
                                 *****************
                                 * O   R   C   A *
                                 *****************

           --- An Ab Initio, DFT and Semiempirical electronic structure package ---

                  #######################################################
                  #                        -***-                        #
                  #          Department of theory and spectroscopy      #
                  #               Directorship: Frank Neese             #
                  #        Max Planck Institute fuer Kohlenforschung    #
                  #                Kaiser Wilhelm Platz 1               #
                  #                 D-45470 Muelheim/Ruhr               #
                  #                      Germany                        #
                  #                                                     #
                  #                  All rights reserved                #
                  #                        -***-                        #
                  #######################################################


                         Program Version 4.2.0 -  RELEASE  -


 With contributions from (in alphabetic order):
   Daniel Aravena         : Magnetic Suceptibility
   Michael Atanasov       : Ab Initio Ligand Field Theory (pilot matlab implementation)
   Alexander A. Auer      : GIAO ZORA, VPT2
   Ute Becker             : Parallelization
   Giovanni Bistoni       : ED, misc. LED, open-shell LED, HFLED
   Martin Brehm           : Molecular dynamics
   Dmytro Bykov           : SCF Hessian
   Vijay G. Chilkuri      : MRCI spin determinant printing, contributions to CSF-ICE
   Dipayan Datta          : RHF DLPNO-CCSD density
   Achintya Kumar Dutta   : EOM-CC, STEOM-CC
   Dmitry Ganyushin       : Spin-Orbit,Spin-Spin,Magnetic field MRCI
   Miquel Garcia          : C-PCM Hessian, Gaussian charge scheme
   Yang Guo               : DLPNO-NEVPT2, CIM, IAO-localization
   Andreas Hansen         : Spin unrestricted coupled pair/coupled cluster methods
   Benjamin Helmich-Paris : CASSCF linear response (MC-RPA)
   Lee Huntington         : MR-EOM, pCC
   Robert Izsak           : Overlap fitted RIJCOSX, COSX-SCS-MP3, EOM
   Christian Kollmar      : KDIIS, OOCD, Brueckner-CCSD(T), CCSD density
   Simone Kossmann        : Meta GGA functionals, TD-DFT gradient, OOMP2, MP2 Hessian
   Martin Krupicka        : AUTO-CI
   Lucas Lang             : DCDCAS
   Dagmar Lenk            : GEPOL surface, SMD
   Dimitrios Liakos       : Extrapolation schemes; Compound Job, initial MDCI parallelization
   Dimitrios Manganas     : Further ROCIS development; embedding schemes
   Dimitrios Pantazis     : SARC Basis sets
   Taras Petrenko         : DFT Hessian,TD-DFT gradient, ASA, ECA, R-Raman, ABS, FL, XAS/XES, NRVS
   Peter Pinski           : DLPNO-MP2, DLPNO-MP2 Gradient
   Christoph Reimann      : Effective Core Potentials
   Marius Retegan         : Local ZFS, SOC
   Christoph Riplinger    : Optimizer, TS searches, QM/MM, DLPNO-CCSD(T), (RO)-DLPNO pert. Triples
   Tobias Risthaus        : Range-separated hybrids, TD-DFT gradient, RPA, STAB
   Michael Roemelt        : Original ROCIS implementation
   Masaaki Saitow         : Open-shell DLPNO-CCSD energy and density
   Barbara Sandhoefer     : DKH picture change effects
   Avijit Sen             : IP-ROCIS
   Kantharuban Sivalingam : CASSCF convergence, NEVPT2, FIC-MRCI
   Bernardo de Souza      : ESD, SOC TD-DFT
   Georgi Stoychev        : AutoAux, RI-MP2 NMR
   Willem Van den Heuvel  : Paramagnetic NMR
   Boris Wezisla          : Elementary symmetry handling
   Frank Wennmohs         : Technical directorship


 We gratefully acknowledge several colleagues who have allowed us to
 interface, adapt or use parts of their codes:
   Stefan Grimme, W. Hujo, H. Kruse,             : VdW corrections, initial TS optimization,
                  C. Bannwarth                     DFT functionals, gCP, sTDA/sTD-DF
   Ed Valeev, F. Pavosevic, A. Kumar             : LibInt (2-el integral package), F12 methods
   Garnet Chan, S. Sharma, J. Yang, R. Olivares  : DMRG
   Ulf Ekstrom                                   : XCFun DFT Library
   Mihaly Kallay                                 : mrcc  (arbitrary order and MRCC methods)
   Andreas Klamt, Michael Diedenhofen            : otool_cosmo (COSMO solvation model)
   Jiri Pittner, Ondrej Demel                    : Mk-CCSD
   Frank Weinhold                                : gennbo (NPA and NBO analysis)
   Christopher J. Cramer and Donald G. Truhlar   : smd solvation model
   Lars Goerigk                                  : TD-DFT with DH, B97 family of functionals
   V. Asgeirsson, H. Jonsson                     : NEB implementation
   FAccTs GmbH                                   : IRC, NEB, NEB-TS, Multilevel, MM, QM/MM, CI optimization
   S Lehtola, MJT Oliveira, MAL Marques          : LibXC Library


 Your calculation uses the libint2 library for the computation of 2-el integrals
 For citations please refer to: http://libint.valeyev.net

 Your ORCA version has been built with support for libXC version: 4.2.3
 For citations please refer to: https://tddft.org/programs/libxc/

 This ORCA versions uses:
   CBLAS   interface :  Fast vector & matrix operations
   LAPACKE interface :  Fast linear algebra routines
   SCALAPACK package :  Parallel linear algebra routines


----- Orbital basis set information -----
Your calculation utilizes the basis: def2-TZVPPD
   F. Weigend and R. Ahlrichs, Phys. Chem. Chem. Phys. 7, 3297 (2005).
   D. Rappoport and F. Furche, J. Chem. Phys. 133 134105 (2010).

================================================================================
                                        WARNINGS
                       Please study these warnings very carefully!
================================================================================


WARNING: your system is open-shell and RHF/RKS was chosen
  ===> : WILL SWITCH to UHF/UKS


WARNING: No MP2 level density has been requested!
         To caclulate MP2 level properties use
         %mp2 Density relaxed end
         or
         %mp2 Density unrelaxed end

WARNING: Post HF methods need fully converged wavefunctions
  ===> : Setting SCFConvForced true
         You can overwrite this default with %scf ConvForced false 


INFO   : the flag for use of LIBINT has been found!

================================================================================
                                       INPUT FILE
================================================================================
NAME = 01_H.in
|  1> #
|  2> # 01_H CCSD(T)/Def2-TZVPPD
|  3> #
|  4> ! MP2 Def2-TZVPPD tightscf
|  5> 
|  6> *xyz 0 2
|  7>  H 0.0 0.0 0.0
|  8> *
|  9> 
| 10> 
| 11>                          ****END OF INPUT****
================================================================================

                       ****************************
                       * Single Point Calculation *
                       ****************************

---------------------------------
CARTESIAN COORDINATES (ANGSTROEM)
---------------------------------
  H      0.000000    0.000000    0.000000

----------------------------
CARTESIAN COORDINATES (A.U.)
----------------------------
  NO LB      ZA    FRAG     MASS         X           Y           Z
   0 H     1.0000    0     1.008    0.000000    0.000000    0.000000

--------------------------------
INTERNAL COORDINATES (ANGSTROEM)
--------------------------------
 H      0   0   0     0.000000000000     0.00000000     0.00000000

---------------------------
INTERNAL COORDINATES (A.U.)
---------------------------
 H      0   0   0     0.000000000000     0.00000000     0.00000000

---------------------
BASIS SET INFORMATION
---------------------
There are 1 groups of distinct atoms

 Group   1 Type H   : 5s3p1d contracted to 3s3p1d pattern {311/111/1}

Atom   0H    basis set group =>   1
------------------------------------------------------------------------------
                           ORCA GTO INTEGRAL CALCULATION
------------------------------------------------------------------------------

                         BASIS SET STATISTICS AND STARTUP INFO

 # of primitive gaussian shells          ...    9
 # of primitive gaussian functions       ...   19
 # of contracted shells                  ...    7
 # of contracted basis functions         ...   17
 Highest angular momentum                ...    2
 Maximum contraction depth               ...    3
 Integral package used                   ... LIBINT
 Integral threshhold            Thresh   ...  2.500e-11
 Primitive cut-off              TCut     ...  2.500e-12


------------------------------ INTEGRAL EVALUATION ----------------------------


 * One electron integrals 
 Pre-screening matrix                    ... done
 Shell pair data                         ... done (   0.000 sec)

-------------------------------------------------------------------------------
                                 ORCA SCF
-------------------------------------------------------------------------------

------------
SCF SETTINGS
------------
Hamiltonian:
 Ab initio Hamiltonian  Method          .... Hartree-Fock(GTOs)


General Settings:
 Integral files         IntName         .... 01_H
 Hartree-Fock type      HFTyp           .... UHF
 Total Charge           Charge          ....    0
 Multiplicity           Mult            ....    2
 Number of Electrons    NEL             ....    1
 Basis Dimension        Dim             ....   17
 Nuclear Repulsion      ENuc            ....      0.0000000000 Eh

Convergence Acceleration:
 DIIS                   CNVDIIS         .... on
   Start iteration      DIISMaxIt       ....    12
   Startup error        DIISStart       ....  0.200000
   # of expansion vecs  DIISMaxEq       ....     5
   Bias factor          DIISBfac        ....   1.050
   Max. coefficient     DIISMaxC        ....  10.000
 Newton-Raphson         CNVNR           .... off
 SOSCF                  CNVSOSCF        .... off
 Level Shifting         CNVShift        .... on
   Level shift para.    LevelShift      ....    0.2500
   Turn off err/grad.   ShiftErr        ....    0.0010
 Zerner damping         CNVZerner       .... off
 Static damping         CNVDamp         .... on
   Fraction old density DampFac         ....    0.7000
   Max. Damping (<1)    DampMax         ....    0.9800
   Min. Damping (>=0)   DampMin         ....    0.0000
   Turn off err/grad.   DampErr         ....    0.1000
 Fernandez-Rico         CNVRico         .... off

SCF Procedure:
 Maximum # iterations   MaxIter         ....   125
 SCF integral mode      SCFMode         .... Direct
   Integral package                     .... LIBINT
 Reset frequency        DirectResetFreq ....    20
 Integral Threshold     Thresh          ....  2.500e-11 Eh
 Primitive CutOff       TCut            ....  2.500e-12 Eh

Convergence Tolerance:
 Convergence Check Mode ConvCheckMode   .... Total+1el-Energy
 Convergence forced     ConvForced      .... 1
 Energy Change          TolE            ....  1.000e-08 Eh
 1-El. energy change                    ....  1.000e-05 Eh
 DIIS Error             TolErr          ....  5.000e-07


Diagonalization of the overlap matrix:
Smallest eigenvalue                        ... 1.094e-01
Time for diagonalization                   ...    0.004 sec
Threshold for overlap eigenvalues          ... 1.000e-08
Number of eigenvalues below threshold      ... 0
Time for construction of square roots      ...    0.019 sec
Total time needed                          ...    0.023 sec

-------------------
DFT GRID GENERATION
-------------------

General Integration Accuracy     IntAcc      ...  4.340
Radial Grid Type                 RadialGrid  ... Gauss-Chebyshev
Angular Grid (max. acc.)         AngularGrid ... Lebedev-110
Angular grid pruning method      GridPruning ... 3 (G Style)
Weight generation scheme         WeightScheme... Becke
Basis function cutoff            BFCut       ...    1.0000e-11
Integration weight cutoff        WCut        ...    1.0000e-14
Grids for H and He will be reduced by one unit

# of grid points (after initial pruning)     ...    794 (   0.0 sec)
# of grid points (after weights+screening)   ...    794 (   0.0 sec)
Grid point division into batches done        ...    0.0 sec
Reduced shell lists constructed in    0.0 sec

Total number of grid points                  ...      794
Total number of batches                      ...       13
Average number of points per batch           ...       61
Average number of grid points per atom       ...      794
Average number of shells per batch           ...     6.50 (92.86%)
Average number of basis functions per batch  ...    15.79 (92.86%)
Average number of large shells per batch     ...     6.50 (100.00%)
Average number of large basis fcns per batch ...    15.79 (100.00%)
Maximum spatial batch extension              ...  17.62, 21.59, 21.59 au
Average spatial batch extension              ...   6.10,  8.93,  9.49 au

Time for grid setup =    0.006 sec

------------------------------
INITIAL GUESS: MODEL POTENTIAL
------------------------------
Loading Hartree-Fock densities                     ... done
Calculating cut-offs                               ... done
Setting up the integral package                    ... done
Initializing the effective Hamiltonian             ... done
Starting the Coulomb interaction                   ... done (   0.0 sec)
Reading the grid                                   ... done
Mapping shells                                     ... done
Starting the XC term evaluation                    ... done (   0.0 sec)
Transforming the Hamiltonian                       ... done (   0.0 sec)
Diagonalizing the Hamiltonian                      ... done (   0.0 sec)
Back transforming the eigenvectors                 ... done (   0.0 sec)
Now organizing SCF variables                       ... done
                      ------------------
                      INITIAL GUESS DONE (   0.1 sec)
                      ------------------
--------------
SCF ITERATIONS
--------------
ITER       Energy         Delta-E        Max-DP      RMS-DP      [F,P]     Damp
               ***  Starting incremental Fock matrix formation  ***
  0     -0.4951036554   0.000000000000 0.01896117  0.00095931  0.0436792 0.7000
  1     -0.4959863843  -0.000882728866 0.01893520  0.00097906  0.0373140 0.7000
                               ***Turning on DIIS***
  2     -0.4967904800  -0.000804095769 0.05349138  0.00280151  0.0310334 0.0000
  3     -0.4996340056  -0.002843525583 0.02473515  0.00141708  0.0130770 0.0000
  4     -0.4998366088  -0.000202603155 0.00633261  0.00037976  0.0030571 0.0000
  5     -0.4998175066   0.000019102144 0.00232820  0.00013424  0.0007062 0.0000
  6     -0.4998095360   0.000007970572 0.00019243  0.00001055  0.0000475 0.0000
  7     -0.4998098226  -0.000000286522 0.00002182  0.00000118  0.0000048 0.0000
                 **** Energy Check signals convergence ****

               *****************************************************
               *                     SUCCESS                       *
               *           SCF CONVERGED AFTER   8 CYCLES          *
               *****************************************************


----------------
TOTAL SCF ENERGY
----------------

Total Energy       :           -0.49980983 Eh             -13.60052 eV

Components:
Nuclear Repulsion  :            0.00000000 Eh               0.00000 eV
Electronic Energy  :           -0.49980983 Eh             -13.60052 eV
One Electron Energy:           -0.49980983 Eh             -13.60052 eV
Two Electron Energy:            0.00000000 Eh               0.00000 eV

Virial components:
Potential Energy   :           -0.99961966 Eh             -27.20103 eV
Kinetic Energy     :            0.49980983 Eh              13.60052 eV
Virial Ratio       :            2.00000001


---------------
SCF CONVERGENCE
---------------

  Last Energy change         ...   -9.6115e-09  Tolerance :   1.0000e-08
  Last MAX-Density change    ...    6.7204e-07  Tolerance :   1.0000e-07
  Last RMS-Density change    ...    3.6241e-08  Tolerance :   5.0000e-09
  Last DIIS Error            ...    1.4472e-07  Tolerance :   5.0000e-07

             **** THE GBW FILE WAS UPDATED (01_H.gbw) ****
             **** DENSITY FILE WAS UPDATED (01_H.scfp) ****
             **** ENERGY FILE WAS UPDATED (01_H.en.tmp) ****
----------------------
UHF SPIN CONTAMINATION
----------------------

Expectation value of <S**2>     :     0.750000
Ideal value S*(S+1) for S=0.5   :     0.750000
Deviation                       :     0.000000

             **** THE GBW FILE WAS UPDATED (01_H.gbw) ****
             **** DENSITY FILE WAS UPDATED (01_H.scfp) ****
----------------
ORBITAL ENERGIES
----------------
                 SPIN UP ORBITALS
  NO   OCC          E(Eh)            E(eV) 
   0   1.0000      -0.499810       -13.6005 
   1   0.0000       0.195301         5.3144 
   2   0.0000       0.195301         5.3144 
   3   0.0000       0.195301         5.3144 
   4   0.0000       0.350640         9.5414 
   5   0.0000       0.964647        26.2494 
   6   0.0000       0.964647        26.2494 
   7   0.0000       0.964647        26.2494 
   8   0.0000       2.482424        67.5502 
   9   0.0000       3.429922        93.3329 
  10   0.0000       3.429922        93.3329 
  11   0.0000       3.429922        93.3329 
  12   0.0000       3.429922        93.3329 
  13   0.0000       3.429922        93.3329 
  14   0.0000       4.028024       109.6081 
  15   0.0000       4.028024       109.6081 
  16   0.0000       4.028024       109.6081 

                 SPIN DOWN ORBITALS
  NO   OCC          E(Eh)            E(eV) 
   0   0.0000       0.056440         1.5358 
   1   0.0000       0.220362         5.9963 
   2   0.0000       0.220362         5.9963 
   3   0.0000       0.220362         5.9963 
   4   0.0000       0.494332        13.4515 
   5   0.0000       1.048101        28.5203 
   6   0.0000       1.048101        28.5203 
   7   0.0000       1.048101        28.5203 
   8   0.0000       2.613788        71.1248 
   9   0.0000       3.486507        94.8727 
  10   0.0000       3.486507        94.8727 
  11   0.0000       3.486507        94.8727 
  12   0.0000       3.486507        94.8727 
  13   0.0000       3.486507        94.8727 
  14   0.0000       4.110493       111.8522 
  15   0.0000       4.110493       111.8522 
  16   0.0000       4.110493       111.8522 

                    ********************************
                    * MULLIKEN POPULATION ANALYSIS *
                    ********************************

--------------------------------------------
MULLIKEN ATOMIC CHARGES AND SPIN POPULATIONS
--------------------------------------------
   0 H :   -0.000000    1.000000
Sum of atomic charges         :   -0.0000000
Sum of atomic spin populations:    1.0000000

-----------------------------------------------------
MULLIKEN REDUCED ORBITAL CHARGES AND SPIN POPULATIONS
-----------------------------------------------------
CHARGE
  0 H s       :     1.000000  s :     1.000000
      pz      :     0.000000  p :     0.000000
      px      :     0.000000
      py      :     0.000000
      dz2     :     0.000000  d :     0.000000
      dxz     :     0.000000
      dyz     :     0.000000
      dx2y2   :     0.000000
      dxy     :     0.000000

SPIN
  0 H s       :     1.000000  s :     1.000000
      pz      :     0.000000  p :     0.000000
      px      :     0.000000
      py      :     0.000000
      dz2     :     0.000000  d :     0.000000
      dxz     :     0.000000
      dyz     :     0.000000
      dx2y2   :     0.000000
      dxy     :     0.000000


                     *******************************
                     * LOEWDIN POPULATION ANALYSIS *
                     *******************************

-------------------------------------------
LOEWDIN ATOMIC CHARGES AND SPIN POPULATIONS
-------------------------------------------
   0 H :    0.000000    1.000000

----------------------------------------------------
LOEWDIN REDUCED ORBITAL CHARGES AND SPIN POPULATIONS
----------------------------------------------------
CHARGE
  0 H s       :     1.000000  s :     1.000000
      pz      :     0.000000  p :     0.000000
      px      :     0.000000
      py      :     0.000000
      dz2     :     0.000000  d :     0.000000
      dxz     :     0.000000
      dyz     :     0.000000
      dx2y2   :     0.000000
      dxy     :     0.000000

SPIN
  0 H s       :     1.000000  s :     1.000000
      pz      :     0.000000  p :     0.000000
      px      :     0.000000
      py      :     0.000000
      dz2     :     0.000000  d :     0.000000
      dxz     :     0.000000
      dyz     :     0.000000
      dx2y2   :     0.000000
      dxy     :     0.000000


                      *****************************
                      * MAYER POPULATION ANALYSIS *
                      *****************************

  NA   - Mulliken gross atomic population
  ZA   - Total nuclear charge
  QA   - Mulliken gross atomic charge
  VA   - Mayer's total valence
  BVA  - Mayer's bonded valence
  FA   - Mayer's free valence

  ATOM       NA         ZA         QA         VA         BVA        FA
  0 H      1.0000     1.0000    -0.0000     1.0000     0.0000     1.0000

  Mayer bond orders larger than 0.100000


Local spin analysis not attempted because no beta electrons available
--------------------------
ATOM BASIS FOR ELEMENT H 
--------------------------
 NewGTO H 
 S 5
    1         34.061341000000         0.006025197845
    2          5.123574600000         0.045021094339
    3          1.164662600000         0.201897261522
    4          0.327230410000         0.503041113193
    5          0.103072410000         0.385457294976
 S 5
    1         34.061341000000         0.002421585678
    2          5.123574600000         0.018094416160
    3          1.164662600000         0.081144475166
    4          0.327230410000         1.318913031457
    5          0.103072410000        -1.556495972972
 S 5
    1         34.061341000000         0.039095967295
    2          5.123574600000         0.292130362695
    3          1.164662600000         1.310059675381
    4          0.327230410000        -1.879578104784
    5          0.103072410000         0.804251701716
 P 3
    1          1.407000000000         0.029325000716
    2          0.388000000000        -0.074274011117
    3          0.095774129600         1.036062754903
 P 3
    1          1.407000000000        -0.091428284422
    2          0.388000000000         1.280004998805
    3          0.095774129600        -0.666383852455
 P 3
    1          1.407000000000         1.317396232600
    2          0.388000000000        -0.925129881997
    3          0.095774129600         0.285579042414
 D 1
    1          1.057000000000         1.000000000000
 end
  // -----------------------------------------------
  // The basis set
  // -----------------------------------------------
  BAS[ATNO] = new BFNGauss[NSH];
  // Basis function   1 L = s
  InitBFNGauss(BAS[ATNO][  0]);
  BAS[ATNO][  0].l  = 0;
  BAS[ATNO][  0].ng = 5;
  BAS[ATNO][  0].a[  0] =        34.061341000000;     BAS[ATNO][  0].d[  0] =         0.006025197845;
  BAS[ATNO][  0].a[  1] =         5.123574600000;     BAS[ATNO][  0].d[  1] =         0.045021094339;
  BAS[ATNO][  0].a[  2] =         1.164662600000;     BAS[ATNO][  0].d[  2] =         0.201897261522;
  BAS[ATNO][  0].a[  3] =         0.327230410000;     BAS[ATNO][  0].d[  3] =         0.503041113193;
  BAS[ATNO][  0].a[  4] =         0.103072410000;     BAS[ATNO][  0].d[  4] =         0.385457294976;

  // Basis function   2 L = s
  InitBFNGauss(BAS[ATNO][  1]);
  BAS[ATNO][  1].l  = 0;
  BAS[ATNO][  1].ng = 5;
  BAS[ATNO][  1].a[  0] =        34.061341000000;     BAS[ATNO][  1].d[  0] =        -0.002421585678;
  BAS[ATNO][  1].a[  1] =         5.123574600000;     BAS[ATNO][  1].d[  1] =        -0.018094416160;
  BAS[ATNO][  1].a[  2] =         1.164662600000;     BAS[ATNO][  1].d[  2] =        -0.081144475166;
  BAS[ATNO][  1].a[  3] =         0.327230410000;     BAS[ATNO][  1].d[  3] =        -1.318913031457;
  BAS[ATNO][  1].a[  4] =         0.103072410000;     BAS[ATNO][  1].d[  4] =         1.556495972972;

  // Basis function   3 L = s
  InitBFNGauss(BAS[ATNO][  2]);
  BAS[ATNO][  2].l  = 0;
  BAS[ATNO][  2].ng = 5;
  BAS[ATNO][  2].a[  0] =        34.061341000000;     BAS[ATNO][  2].d[  0] =        -0.039095967295;
  BAS[ATNO][  2].a[  1] =         5.123574600000;     BAS[ATNO][  2].d[  1] =        -0.292130362695;
  BAS[ATNO][  2].a[  2] =         1.164662600000;     BAS[ATNO][  2].d[  2] =        -1.310059675381;
  BAS[ATNO][  2].a[  3] =         0.327230410000;     BAS[ATNO][  2].d[  3] =         1.879578104784;
  BAS[ATNO][  2].a[  4] =         0.103072410000;     BAS[ATNO][  2].d[  4] =        -0.804251701716;

  // Basis function   4 L = p
  InitBFNGauss(BAS[ATNO][  3]);
  BAS[ATNO][  3].l  = 1;
  BAS[ATNO][  3].ng = 3;
  BAS[ATNO][  3].a[  0] =         1.407000000000;     BAS[ATNO][  3].d[  0] =         0.029325000716;
  BAS[ATNO][  3].a[  1] =         0.388000000000;     BAS[ATNO][  3].d[  1] =        -0.074274011117;
  BAS[ATNO][  3].a[  2] =         0.095774129600;     BAS[ATNO][  3].d[  2] =         1.036062754903;

  // Basis function   5 L = p
  InitBFNGauss(BAS[ATNO][  4]);
  BAS[ATNO][  4].l  = 1;
  BAS[ATNO][  4].ng = 3;
  BAS[ATNO][  4].a[  0] =         1.407000000000;     BAS[ATNO][  4].d[  0] =        -0.091428284422;
  BAS[ATNO][  4].a[  1] =         0.388000000000;     BAS[ATNO][  4].d[  1] =         1.280004998805;
  BAS[ATNO][  4].a[  2] =         0.095774129600;     BAS[ATNO][  4].d[  2] =        -0.666383852455;

  // Basis function   6 L = p
  InitBFNGauss(BAS[ATNO][  5]);
  BAS[ATNO][  5].l  = 1;
  BAS[ATNO][  5].ng = 3;
  BAS[ATNO][  5].a[  0] =         1.407000000000;     BAS[ATNO][  5].d[  0] =         1.317396232600;
  BAS[ATNO][  5].a[  1] =         0.388000000000;     BAS[ATNO][  5].d[  1] =        -0.925129881997;
  BAS[ATNO][  5].a[  2] =         0.095774129600;     BAS[ATNO][  5].d[  2] =         0.285579042414;

  // Basis function   7 L = d
  InitBFNGauss(BAS[ATNO][  6]);
  BAS[ATNO][  6].l  = 2;
  BAS[ATNO][  6].ng = 1;
  BAS[ATNO][  6].a[  0] =         1.057000000000;     BAS[ATNO][  6].d[  0] =         1.000000000000;

-------------------------------------------
RADIAL EXPECTATION VALUES <R**-3> TO <R**3>
-------------------------------------------
   0 :     0.000000     1.986730     0.999620     1.499034     2.990527     7.426503
   1 :     0.000000     0.887271     0.565654     2.933427    10.376030    39.985285
   2 :     0.000000     9.105447     1.922798     1.261549     2.936362     9.465912
   3 :     0.060700     0.120350     0.319139     3.520877    13.590594    56.678838
   4 :     0.060700     0.120350     0.319139     3.520877    13.590594    56.678838
   5 :     0.060700     0.120350     0.319139     3.520877    13.590594    56.678838
   6 :     0.423172     0.456177     0.610079     2.103377     5.916536    21.539486
   7 :     0.423172     0.456177     0.610079     2.103377     5.916536    21.539486
   8 :     0.423172     0.456177     0.610079     2.103377     5.916536    21.539486
   9 :     3.994615     1.944506     1.232425     1.121481     1.936638     5.177136
  10 :     3.994615     1.944506     1.232425     1.121481     1.936638     5.177136
  11 :     3.994615     1.944506     1.232425     1.121481     1.936638     5.177136
  12 :     0.924871     0.845600     0.874996     1.241717     1.655629    11.747557
  13 :     0.924871     0.845600     0.874996     1.241717     1.655629    11.747557
  14 :     0.924871     0.845600     0.874996     1.241717     1.655629    11.747557
  15 :     0.924871     0.845600     0.874996     1.241717     1.655629    11.747557
  16 :     0.924871     0.845600     0.874996     1.241717     1.655629    11.747557
-------
TIMINGS
-------

Total SCF time: 0 days 0 hours 0 min 0 sec 

Total time                  ....       0.938 sec
Sum of individual times     ....       0.737 sec  ( 78.6%)

Fock matrix formation       ....       0.606 sec  ( 64.6%)
Diagonalization             ....       0.002 sec  (  0.2%)
Density matrix formation    ....       0.000 sec  (  0.0%)
Population analysis         ....       0.023 sec  (  2.4%)
Initial guess               ....       0.086 sec  (  9.2%)
Orbital Transformation      ....       0.000 sec  (  0.0%)
Orbital Orthonormalization  ....       0.000 sec  (  0.0%)
DIIS solution               ....       0.015 sec  (  1.6%)

------------------------------------------------------------------------------
                                ORCA  MP2 
------------------------------------------------------------------------------

Freezing NCore=0 chemical core electrons
Warning: Single electron - no MP2 correction

---------------------------------------
MP2 TOTAL ENERGY:       -0.499809832 Eh
---------------------------------------

-------------------------   --------------------
FINAL SINGLE POINT ENERGY        -0.499809832183
-------------------------   --------------------


                            ***************************************
                            *     ORCA property calculations      *
                            ***************************************


  WARNING: The energy has been calculated at the MP2 level but the densities
           used in the property calculations are still SCF densities
           MP2 response densities have not been calculated 
           use %mp2 Density relaxed end
           or  %mp2 Density unrelaxed end

                                    ---------------------
                                    Active property flags
                                    ---------------------
   (+) Dipole Moment


------------------------------------------------------------------------------
                       ORCA ELECTRIC PROPERTIES CALCULATION
------------------------------------------------------------------------------

Dipole Moment Calculation                       ... on
Quadrupole Moment Calculation                   ... off
Polarizability Calculation                      ... off
GBWName                                         ... 01_H.gbw
Electron density file                           ... 01_H.scfp
The origin for moment calculation is the CENTER OF MASS  = ( 0.000000,  0.000000  0.000000)

-------------
DIPOLE MOMENT
-------------
                                X             Y             Z
Electronic contribution:      0.00000      -0.00000       0.00000
Nuclear contribution   :      0.00000       0.00000       0.00000
                        -----------------------------------------
Total Dipole Moment    :      0.00000      -0.00000       0.00000
                        -----------------------------------------
Magnitude (a.u.)       :      0.00000
Magnitude (Debye)      :      0.00000



--------------------
Rotational spectrum 
--------------------
 
Rotational constants in cm-1:     0.000000     0.000000     0.000000 
Rotational constants in MHz :     0.000000     0.000000     0.000000 

 Dipole components along the rotational axes: 
x,y,z [a.u.] :     0.000000    -0.000000     0.000000 
x,y,z [Debye]:     0.000000    -0.000000     0.000000 

 

Timings for individual modules:

Sum of individual times         ...        1.680 sec (=   0.028 min)
GTO integral calculation        ...        0.372 sec (=   0.006 min)  22.1 %
SCF iterations                  ...        1.142 sec (=   0.019 min)  68.0 %
MP2 module                      ...        0.166 sec (=   0.003 min)   9.9 %
                             ****ORCA TERMINATED NORMALLY****
TOTAL RUN TIME: 0 days 0 hours 0 minutes 2 seconds 36 msec
