
                                 *****************
                                 * O   R   C   A *
                                 *****************

           --- An Ab Initio, DFT and Semiempirical electronic structure package ---

                  #######################################################
                  #                        -***-                        #
                  #          Department of theory and spectroscopy      #
                  #               Directorship: Frank Neese             #
                  #        Max Planck Institute fuer Kohlenforschung    #
                  #                Kaiser Wilhelm Platz 1               #
                  #                 D-45470 Muelheim/Ruhr               #
                  #                      Germany                        #
                  #                                                     #
                  #                  All rights reserved                #
                  #                        -***-                        #
                  #######################################################


                         Program Version 4.2.0 -  RELEASE  -


 With contributions from (in alphabetic order):
   Daniel Aravena         : Magnetic Suceptibility
   Michael Atanasov       : Ab Initio Ligand Field Theory (pilot matlab implementation)
   Alexander A. Auer      : GIAO ZORA, VPT2
   Ute Becker             : Parallelization
   Giovanni Bistoni       : ED, misc. LED, open-shell LED, HFLED
   Martin Brehm           : Molecular dynamics
   Dmytro Bykov           : SCF Hessian
   Vijay G. Chilkuri      : MRCI spin determinant printing, contributions to CSF-ICE
   Dipayan Datta          : RHF DLPNO-CCSD density
   Achintya Kumar Dutta   : EOM-CC, STEOM-CC
   Dmitry Ganyushin       : Spin-Orbit,Spin-Spin,Magnetic field MRCI
   Miquel Garcia          : C-PCM Hessian, Gaussian charge scheme
   Yang Guo               : DLPNO-NEVPT2, CIM, IAO-localization
   Andreas Hansen         : Spin unrestricted coupled pair/coupled cluster methods
   Benjamin Helmich-Paris : CASSCF linear response (MC-RPA)
   Lee Huntington         : MR-EOM, pCC
   Robert Izsak           : Overlap fitted RIJCOSX, COSX-SCS-MP3, EOM
   Christian Kollmar      : KDIIS, OOCD, Brueckner-CCSD(T), CCSD density
   Simone Kossmann        : Meta GGA functionals, TD-DFT gradient, OOMP2, MP2 Hessian
   Martin Krupicka        : AUTO-CI
   Lucas Lang             : DCDCAS
   Dagmar Lenk            : GEPOL surface, SMD
   Dimitrios Liakos       : Extrapolation schemes; Compound Job, initial MDCI parallelization
   Dimitrios Manganas     : Further ROCIS development; embedding schemes
   Dimitrios Pantazis     : SARC Basis sets
   Taras Petrenko         : DFT Hessian,TD-DFT gradient, ASA, ECA, R-Raman, ABS, FL, XAS/XES, NRVS
   Peter Pinski           : DLPNO-MP2, DLPNO-MP2 Gradient
   Christoph Reimann      : Effective Core Potentials
   Marius Retegan         : Local ZFS, SOC
   Christoph Riplinger    : Optimizer, TS searches, QM/MM, DLPNO-CCSD(T), (RO)-DLPNO pert. Triples
   Tobias Risthaus        : Range-separated hybrids, TD-DFT gradient, RPA, STAB
   Michael Roemelt        : Original ROCIS implementation
   Masaaki Saitow         : Open-shell DLPNO-CCSD energy and density
   Barbara Sandhoefer     : DKH picture change effects
   Avijit Sen             : IP-ROCIS
   Kantharuban Sivalingam : CASSCF convergence, NEVPT2, FIC-MRCI
   Bernardo de Souza      : ESD, SOC TD-DFT
   Georgi Stoychev        : AutoAux, RI-MP2 NMR
   Willem Van den Heuvel  : Paramagnetic NMR
   Boris Wezisla          : Elementary symmetry handling
   Frank Wennmohs         : Technical directorship


 We gratefully acknowledge several colleagues who have allowed us to
 interface, adapt or use parts of their codes:
   Stefan Grimme, W. Hujo, H. Kruse,             : VdW corrections, initial TS optimization,
                  C. Bannwarth                     DFT functionals, gCP, sTDA/sTD-DF
   Ed Valeev, F. Pavosevic, A. Kumar             : LibInt (2-el integral package), F12 methods
   Garnet Chan, S. Sharma, J. Yang, R. Olivares  : DMRG
   Ulf Ekstrom                                   : XCFun DFT Library
   Mihaly Kallay                                 : mrcc  (arbitrary order and MRCC methods)
   Andreas Klamt, Michael Diedenhofen            : otool_cosmo (COSMO solvation model)
   Jiri Pittner, Ondrej Demel                    : Mk-CCSD
   Frank Weinhold                                : gennbo (NPA and NBO analysis)
   Christopher J. Cramer and Donald G. Truhlar   : smd solvation model
   Lars Goerigk                                  : TD-DFT with DH, B97 family of functionals
   V. Asgeirsson, H. Jonsson                     : NEB implementation
   FAccTs GmbH                                   : IRC, NEB, NEB-TS, Multilevel, MM, QM/MM, CI optimization
   S Lehtola, MJT Oliveira, MAL Marques          : LibXC Library


 Your calculation uses the libint2 library for the computation of 2-el integrals
 For citations please refer to: http://libint.valeyev.net

 Your ORCA version has been built with support for libXC version: 4.2.3
 For citations please refer to: https://tddft.org/programs/libxc/

 This ORCA versions uses:
   CBLAS   interface :  Fast vector & matrix operations
   LAPACKE interface :  Fast linear algebra routines
   SCALAPACK package :  Parallel linear algebra routines


----- Orbital basis set information -----
Your calculation utilizes the basis: def2-TZVPPD
   F. Weigend and R. Ahlrichs, Phys. Chem. Chem. Phys. 7, 3297 (2005).
   D. Rappoport and F. Furche, J. Chem. Phys. 133 134105 (2010).

================================================================================
                                        WARNINGS
                       Please study these warnings very carefully!
================================================================================


WARNING: your system is open-shell and RHF/RKS was chosen
  ===> : WILL SWITCH to UHF/UKS


WARNING: MDCI localization with Augmented Hessian Foster-Boys
  ===> : Switching off randomization!

WARNING: Post HF methods need fully converged wavefunctions
  ===> : Setting SCFConvForced true
         You can overwrite this default with %scf ConvForced false 


INFO   : the flag for use of LIBINT has been found!

================================================================================
                                       INPUT FILE
================================================================================
NAME = 07_N.in
|  1> #
|  2> # 07_N CCSD(T)/Def2-TZVPPD
|  3> #
|  4> ! CCSD(T) Def2-TZVPPD tightscf
|  5> 
|  6> *xyz 0 4
|  7>  N 0.0 0.0 0.0
|  8> *
|  9> 
| 10> %maxcore 5000 
| 11> 
| 12> %pal
| 13> nprocs 10
| 14> end
| 15> 
| 16> 
| 17>                          ****END OF INPUT****
================================================================================

                       ****************************
                       * Single Point Calculation *
                       ****************************

---------------------------------
CARTESIAN COORDINATES (ANGSTROEM)
---------------------------------
  N      0.000000    0.000000    0.000000

----------------------------
CARTESIAN COORDINATES (A.U.)
----------------------------
  NO LB      ZA    FRAG     MASS         X           Y           Z
   0 N     7.0000    0    14.007    0.000000    0.000000    0.000000

--------------------------------
INTERNAL COORDINATES (ANGSTROEM)
--------------------------------
 N      0   0   0     0.000000000000     0.00000000     0.00000000

---------------------------
INTERNAL COORDINATES (A.U.)
---------------------------
 N      0   0   0     0.000000000000     0.00000000     0.00000000

---------------------
BASIS SET INFORMATION
---------------------
There are 1 groups of distinct atoms

 Group   1 Type N   : 12s6p3d1f contracted to 6s3p3d1f pattern {621111/411/111/1}

Atom   0N    basis set group =>   1


           ************************************************************
           *        Program running with 10 parallel MPI-processes    *
           *              working on a common directory               *
           ************************************************************
------------------------------------------------------------------------------
                           ORCA GTO INTEGRAL CALCULATION
------------------------------------------------------------------------------

                         BASIS SET STATISTICS AND STARTUP INFO

 # of primitive gaussian shells          ...   22
 # of primitive gaussian functions       ...   52
 # of contracted shells                  ...   13
 # of contracted basis functions         ...   37
 Highest angular momentum                ...    3
 Maximum contraction depth               ...    6
 Integral package used                   ... LIBINT
 Integral threshhold            Thresh   ...  2.500e-11
 Primitive cut-off              TCut     ...  2.500e-12


------------------------------ INTEGRAL EVALUATION ----------------------------


 * One electron integrals 
 Pre-screening matrix                    ... done
 Shell pair data                         ... done (   0.000 sec)



           ************************************************************
           *        Program running with 10 parallel MPI-processes    *
           *              working on a common directory               *
           ************************************************************
-------------------------------------------------------------------------------
                                 ORCA SCF
-------------------------------------------------------------------------------

------------
SCF SETTINGS
------------
Hamiltonian:
 Ab initio Hamiltonian  Method          .... Hartree-Fock(GTOs)


General Settings:
 Integral files         IntName         .... 07_N
 Hartree-Fock type      HFTyp           .... UHF
 Total Charge           Charge          ....    0
 Multiplicity           Mult            ....    4
 Number of Electrons    NEL             ....    7
 Basis Dimension        Dim             ....   37
 Nuclear Repulsion      ENuc            ....      0.0000000000 Eh

Convergence Acceleration:
 DIIS                   CNVDIIS         .... on
   Start iteration      DIISMaxIt       ....    12
   Startup error        DIISStart       ....  0.200000
   # of expansion vecs  DIISMaxEq       ....     5
   Bias factor          DIISBfac        ....   1.050
   Max. coefficient     DIISMaxC        ....  10.000
 Newton-Raphson         CNVNR           .... off
 SOSCF                  CNVSOSCF        .... off
 Level Shifting         CNVShift        .... on
   Level shift para.    LevelShift      ....    0.2500
   Turn off err/grad.   ShiftErr        ....    0.0010
 Zerner damping         CNVZerner       .... off
 Static damping         CNVDamp         .... on
   Fraction old density DampFac         ....    0.7000
   Max. Damping (<1)    DampMax         ....    0.9800
   Min. Damping (>=0)   DampMin         ....    0.0000
   Turn off err/grad.   DampErr         ....    0.1000
 Fernandez-Rico         CNVRico         .... off

SCF Procedure:
 Maximum # iterations   MaxIter         ....   125
 SCF integral mode      SCFMode         .... Direct
   Integral package                     .... LIBINT
 Reset frequency        DirectResetFreq ....    20
 Integral Threshold     Thresh          ....  2.500e-11 Eh
 Primitive CutOff       TCut            ....  2.500e-12 Eh

Convergence Tolerance:
 Convergence Check Mode ConvCheckMode   .... Total+1el-Energy
 Convergence forced     ConvForced      .... 1
 Energy Change          TolE            ....  1.000e-08 Eh
 1-El. energy change                    ....  1.000e-05 Eh
 DIIS Error             TolErr          ....  5.000e-07


Diagonalization of the overlap matrix:
Smallest eigenvalue                        ... 9.506e-03
Time for diagonalization                   ...    0.001 sec
Threshold for overlap eigenvalues          ... 1.000e-08
Number of eigenvalues below threshold      ... 0
Time for construction of square roots      ...    0.005 sec
Total time needed                          ...    0.006 sec

-------------------
DFT GRID GENERATION
-------------------

General Integration Accuracy     IntAcc      ...  4.340
Radial Grid Type                 RadialGrid  ... Gauss-Chebyshev
Angular Grid (max. acc.)         AngularGrid ... Lebedev-110
Angular grid pruning method      GridPruning ... 3 (G Style)
Weight generation scheme         WeightScheme... Becke
Basis function cutoff            BFCut       ...    1.0000e-11
Integration weight cutoff        WCut        ...    1.0000e-14
Grids for H and He will be reduced by one unit

# of grid points (after initial pruning)     ...   1702 (   0.0 sec)
# of grid points (after weights+screening)   ...   1702 (   0.0 sec)
Grid point division into batches done        ...    0.0 sec
Reduced shell lists constructed in    0.0 sec

Total number of grid points                  ...     1702
Total number of batches                      ...       27
Average number of points per batch           ...       63
Average number of grid points per atom       ...     1702
Average number of shells per batch           ...     7.75 (59.62%)
Average number of basis functions per batch  ...    23.75 (64.19%)
Average number of large shells per batch     ...     6.00 (77.42%)
Average number of large basis fcns per batch ...    17.00 (71.58%)
Maximum spatial batch extension              ...  13.89, 25.65, 25.65 au
Average spatial batch extension              ...   1.43,  2.44,  2.85 au

Time for grid setup =    0.026 sec

------------------------------
INITIAL GUESS: MODEL POTENTIAL
------------------------------
Loading Hartree-Fock densities                     ... done
Calculating cut-offs                               ... done
Setting up the integral package                    ... done
Initializing the effective Hamiltonian             ... done
Starting the Coulomb interaction                   ... done (   0.0 sec)
Reading the grid                                   ... done
Mapping shells                                     ... done
Starting the XC term evaluation                    ... done (   0.0 sec)
Transforming the Hamiltonian                       ... done (   0.0 sec)
Diagonalizing the Hamiltonian                      ... done (   0.0 sec)
Back transforming the eigenvectors                 ... done (   0.0 sec)
Now organizing SCF variables                       ... done
                      ------------------
                      INITIAL GUESS DONE (   0.1 sec)
                      ------------------
--------------
SCF ITERATIONS
--------------
ITER       Energy         Delta-E        Max-DP      RMS-DP      [F,P]     Damp
               ***  Starting incremental Fock matrix formation  ***
  0    -54.3861427037   0.000000000000 0.00991429  0.00065158  0.2725761 0.7000
  1    -54.3901404666  -0.003997762960 0.00909989  0.00059522  0.1923606 0.7000
                               ***Turning on DIIS***
  2    -54.3932898741  -0.003149407438 0.00738247  0.00047792  0.1351963 0.7000
  3    -54.3523259788   0.040963895226 0.02194493  0.00143578  0.0950435 0.0000
  4    -54.4001261469  -0.047800168070 0.00482884  0.00028974  0.0060084 0.0000
  5    -54.4011319481  -0.001005801198 0.00406540  0.00020185  0.0028775 0.0000
  6    -54.4013373842  -0.000205436088 0.00161817  0.00007046  0.0011474 0.0000
  7    -54.4025355117  -0.001198127546 0.00047449  0.00001775  0.0002878 0.0000
  8    -54.4028090742  -0.000273562465 0.00012435  0.00000474  0.0000255 0.0000
  9    -54.4027762379   0.000032836327 0.00001516  0.00000058  0.0000028 0.0000
                            ***DIIS convergence achieved***

               *****************************************************
               *                     SUCCESS                       *
               *           SCF CONVERGED AFTER  10 CYCLES          *
               *****************************************************


----------------
TOTAL SCF ENERGY
----------------

Total Energy       :          -54.40276967 Eh           -1480.37462 eV

Components:
Nuclear Repulsion  :            0.00000000 Eh               0.00000 eV
Electronic Energy  :          -54.40276967 Eh           -1480.37462 eV
One Electron Energy:          -73.95483865 Eh           -2012.41347 eV
Two Electron Energy:           19.55206899 Eh             532.03885 eV

Virial components:
Potential Energy   :         -108.80646364 Eh           -2960.77440 eV
Kinetic Energy     :           54.40369398 Eh            1480.39978 eV
Virial Ratio       :            1.99998301


---------------
SCF CONVERGENCE
---------------

  Last Energy change         ...    6.5726e-06  Tolerance :   1.0000e-08
  Last MAX-Density change    ...    1.0912e-06  Tolerance :   1.0000e-07
  Last RMS-Density change    ...    5.3472e-08  Tolerance :   5.0000e-09
  Last DIIS Error            ...    4.0983e-07  Tolerance :   5.0000e-07

             **** THE GBW FILE WAS UPDATED (07_N.gbw) ****
             **** DENSITY FILE WAS UPDATED (07_N.scfp) ****
             **** ENERGY FILE WAS UPDATED (07_N.en.tmp) ****
----------------------
UHF SPIN CONTAMINATION
----------------------

Expectation value of <S**2>     :     3.757914
Ideal value S*(S+1) for S=1.5   :     3.750000
Deviation                       :     0.007914

             **** THE GBW FILE WAS UPDATED (07_N.gbw) ****
             **** DENSITY FILE WAS UPDATED (07_N.scfp) ****
----------------
ORBITAL ENERGIES
----------------
                 SPIN UP ORBITALS
  NO   OCC          E(Eh)            E(eV) 
   0   1.0000     -15.670816      -426.4246 
   1   1.0000      -1.162511       -31.6335 
   2   1.0000      -0.570725       -15.5302 
   3   1.0000      -0.570725       -15.5302 
   4   1.0000      -0.570725       -15.5302 
   5   0.0000       0.118242         3.2175 
   6   0.0000       0.394538        10.7359 
   7   0.0000       0.394538        10.7359 
   8   0.0000       0.394538        10.7359 
   9   0.0000       0.394538        10.7359 
  10   0.0000       0.394538        10.7359 
  11   0.0000       0.446693        12.1551 
  12   0.0000       0.446693        12.1551 
  13   0.0000       0.446693        12.1551 
  14   0.0000       0.622203        16.9310 
  15   0.0000       1.419586        38.6289 
  16   0.0000       1.419586        38.6289 
  17   0.0000       1.419586        38.6289 
  18   0.0000       1.419586        38.6289 
  19   0.0000       1.419586        38.6289 
  20   0.0000       2.286547        62.2201 
  21   0.0000       2.286547        62.2201 
  22   0.0000       2.286547        62.2201 
  23   0.0000       2.382732        64.8374 
  24   0.0000       4.181952       113.7967 
  25   0.0000       4.181952       113.7967 
  26   0.0000       4.181952       113.7967 
  27   0.0000       4.181952       113.7967 
  28   0.0000       4.181952       113.7967 
  29   0.0000       4.181952       113.7967 
  30   0.0000       4.181952       113.7967 
  31   0.0000       4.916699       133.7902 
  32   0.0000       4.916699       133.7902 
  33   0.0000       4.916699       133.7902 
  34   0.0000       4.916699       133.7902 
  35   0.0000       4.916699       133.7902 
  36   0.0000      32.635861       888.0669 

                 SPIN DOWN ORBITALS
  NO   OCC          E(Eh)            E(eV) 
   0   1.0000     -15.579853      -423.9494 
   1   1.0000      -0.725346       -19.7377 
   2   0.0000       0.129339         3.5195 
   3   0.0000       0.129339         3.5195 
   4   0.0000       0.129339         3.5195 
   5   0.0000       0.134466         3.6590 
   6   0.0000       0.416857        11.3433 
   7   0.0000       0.416857        11.3433 
   8   0.0000       0.416857        11.3433 
   9   0.0000       0.416857        11.3433 
  10   0.0000       0.416857        11.3433 
  11   0.0000       0.603412        16.4197 
  12   0.0000       0.603412        16.4197 
  13   0.0000       0.603412        16.4197 
  14   0.0000       0.680889        18.5279 
  15   0.0000       1.557283        42.3758 
  16   0.0000       1.557283        42.3758 
  17   0.0000       1.557283        42.3758 
  18   0.0000       1.557283        42.3758 
  19   0.0000       1.557283        42.3758 
  20   0.0000       2.456701        66.8502 
  21   0.0000       2.456701        66.8502 
  22   0.0000       2.456701        66.8502 
  23   0.0000       2.496884        67.9437 
  24   0.0000       4.293142       116.8223 
  25   0.0000       4.293142       116.8223 
  26   0.0000       4.293142       116.8223 
  27   0.0000       4.293142       116.8223 
  28   0.0000       4.293142       116.8223 
  29   0.0000       4.293142       116.8223 
  30   0.0000       4.293142       116.8223 
  31   0.0000       5.091108       138.5361 
  32   0.0000       5.091108       138.5361 
  33   0.0000       5.091108       138.5361 
  34   0.0000       5.091108       138.5361 
  35   0.0000       5.091108       138.5361 
  36   0.0000      32.691915       889.5922 

                    ********************************
                    * MULLIKEN POPULATION ANALYSIS *
                    ********************************

--------------------------------------------
MULLIKEN ATOMIC CHARGES AND SPIN POPULATIONS
--------------------------------------------
   0 N :   -0.000000    3.000000
Sum of atomic charges         :   -0.0000000
Sum of atomic spin populations:    3.0000000

-----------------------------------------------------
MULLIKEN REDUCED ORBITAL CHARGES AND SPIN POPULATIONS
-----------------------------------------------------
CHARGE
  0 N s       :     4.000000  s :     4.000000
      pz      :     1.000000  p :     3.000000
      px      :     1.000000
      py      :     1.000000
      dz2     :     0.000000  d :     0.000000
      dxz     :     0.000000
      dyz     :     0.000000
      dx2y2   :     0.000000
      dxy     :     0.000000
      f0      :     0.000000  f :     0.000000
      f+1     :     0.000000
      f-1     :     0.000000
      f+2     :     0.000000
      f-2     :     0.000000
      f+3     :     0.000000
      f-3     :     0.000000

SPIN
  0 N s       :    -0.000000  s :    -0.000000
      pz      :     1.000000  p :     3.000000
      px      :     1.000000
      py      :     1.000000
      dz2     :     0.000000  d :     0.000000
      dxz     :     0.000000
      dyz     :     0.000000
      dx2y2   :     0.000000
      dxy     :     0.000000
      f0      :     0.000000  f :     0.000000
      f+1     :     0.000000
      f-1     :     0.000000
      f+2     :     0.000000
      f-2     :     0.000000
      f+3     :     0.000000
      f-3     :     0.000000


                     *******************************
                     * LOEWDIN POPULATION ANALYSIS *
                     *******************************

-------------------------------------------
LOEWDIN ATOMIC CHARGES AND SPIN POPULATIONS
-------------------------------------------
   0 N :   -0.000000    3.000000

----------------------------------------------------
LOEWDIN REDUCED ORBITAL CHARGES AND SPIN POPULATIONS
----------------------------------------------------
CHARGE
  0 N s       :     4.000000  s :     4.000000
      pz      :     1.000000  p :     3.000000
      px      :     1.000000
      py      :     1.000000
      dz2     :     0.000000  d :     0.000000
      dxz     :     0.000000
      dyz     :     0.000000
      dx2y2   :     0.000000
      dxy     :     0.000000
      f0      :     0.000000  f :     0.000000
      f+1     :     0.000000
      f-1     :     0.000000
      f+2     :     0.000000
      f-2     :     0.000000
      f+3     :     0.000000
      f-3     :     0.000000

SPIN
  0 N s       :    -0.000000  s :    -0.000000
      pz      :     1.000000  p :     3.000000
      px      :     1.000000
      py      :     1.000000
      dz2     :     0.000000  d :     0.000000
      dxz     :     0.000000
      dyz     :     0.000000
      dx2y2   :     0.000000
      dxy     :     0.000000
      f0      :     0.000000  f :     0.000000
      f+1     :     0.000000
      f-1     :     0.000000
      f+2     :     0.000000
      f-2     :     0.000000
      f+3     :     0.000000
      f-3     :     0.000000


                      *****************************
                      * MAYER POPULATION ANALYSIS *
                      *****************************

  NA   - Mulliken gross atomic population
  ZA   - Total nuclear charge
  QA   - Mulliken gross atomic charge
  VA   - Mayer's total valence
  BVA  - Mayer's bonded valence
  FA   - Mayer's free valence

  ATOM       NA         ZA         QA         VA         BVA        FA
  0 N      7.0000     7.0000    -0.0000     3.0158     0.0000     3.0158

  Mayer bond orders larger than 0.100000


-------
TIMINGS
-------

Total SCF time: 0 days 0 hours 0 min 1 sec 

Total time                  ....       1.809 sec
Sum of individual times     ....       1.449 sec  ( 80.1%)

Fock matrix formation       ....       1.215 sec  ( 67.2%)
Diagonalization             ....       0.022 sec  (  1.2%)
Density matrix formation    ....       0.002 sec  (  0.1%)
Population analysis         ....       0.035 sec  (  1.9%)
Initial guess               ....       0.091 sec  (  5.0%)
Orbital Transformation      ....       0.000 sec  (  0.0%)
Orbital Orthonormalization  ....       0.000 sec  (  0.0%)
DIIS solution               ....       0.060 sec  (  3.3%)


           ************************************************************
           *        Program running with 10 parallel MPI-processes    *
           *              working on a common directory               *
           ************************************************************


------------------------------------------------------------------------------- 
                              ORCA-MATRIX DRIVEN CI                            
------------------------------------------------------------------------------- 

--------------------------------
AUTOMATIC CHOICE OF INCORE LEVEL
--------------------------------

Memory available                           ...   2500.00 MB
Memory needed for S+T                      ...      0.23 MB
Memory needed for J+K                      ...      0.47 MB
Memory needed for DIIS                     ...      3.28 MB
Memory needed for 3-ext                    ...      1.00 MB
Memory needed for 4-ext                    ...      4.12 MB
Memory needed for triples                  ...      1.25 MB
 -> Final InCoreLevel    ... 5
 -> check shows that triples correction can be computed


Wavefunction type
-----------------
Correlation treatment                      ...      CCSD     
Single excitations                         ... ON
Orbital optimization                       ... OFF
Calculation of Z vector                    ... OFF
Calculation of Brueckner orbitals          ... OFF
Perturbative triple excitations            ... ON
Calculation of F12 correction              ... OFF
Frozen core treatment                      ... chemical core (2 el)
Reference Wavefunction                     ... UHF
  Alpha-MOs occ    :     1 ...    4 (  4 MO's/  4 electrons)
  Beta-MOs occ     :     1 ...    1 (  1 MO's/  1 electrons)
  Alpha-MOs virt   :     5 ...   36 ( 32 MO's              )
  Beta-MOs virt    :     2 ...   36 ( 35 MO's              )
Number of AO's                             ...     37
Number of electrons                        ...      7
Number of correlated electrons             ...      5

Algorithmic settings
--------------------
Integral transformation                    ... AO direct full transformation
K(C) Formation                             ... FULL-MO TRAFO
Maximum number of iterations               ...        50
Convergence tolerance (max. residuum)      ... 1.000e-05
Level shift for amplitude update           ... 2.000e-01
Maximum number of DIIS vectors             ...         7
DIIS turned on at iteration                ...         0
Damping before turning on DIIS             ...     0.500
Damping after turning on DIIS              ...     0.000
Pair specific amplitude update             ... OFF
Natural orbital iterations                 ... OFF
Perturbative natural orbital generation    ... OFF
Printlevel                                 ... 2

Memory handling:
----------------
Maximum memory for working arrays          ...   2500 MB
Data storage in matrix containers          ... UNCOMPRESSED
Data type for integral storage             ... DOUBLE
In-Core Storage of quantities:
   Amplitudes+Sigma Vector      ... YES
   J+K operators                ... YES
   DIIS vectors                 ... YES
   3-external integrals         ... YES
   4-external integrals         ... YES


Initializing the integral package          ... done
Warning: reference  - re-canonicalizations have been set to INT 1 VIRT 1

--------------------------
UNRESTRICTED FOCK OPERATOR
--------------------------

<ss|ss>:          231 b            0 skpd (  0.0%)    0.000 s ( 0.000 ms/b)
<ss|sp>:          378 b            0 skpd (  0.0%)    0.000 s ( 0.000 ms/b)
<ss|sd>:          378 b            0 skpd (  0.0%)    0.000 s ( 0.000 ms/b)
<ss|sf>:          126 b            0 skpd (  0.0%)    0.000 s ( 0.000 ms/b)
<ss|pp>:          126 b            0 skpd (  0.0%)    0.000 s ( 0.001 ms/b)
<ss|pd>:          189 b            0 skpd (  0.0%)    0.000 s ( 0.000 ms/b)
<ss|pf>:           63 b            0 skpd (  0.0%)    0.000 s ( 0.001 ms/b)
<ss|dd>:          126 b            0 skpd (  0.0%)    0.000 s ( 0.000 ms/b)
<ss|df>:           63 b            0 skpd (  0.0%)    0.000 s ( 0.001 ms/b)
<ss|ff>:           21 b            0 skpd (  0.0%)    0.000 s ( 0.004 ms/b)
<sp|sp>:          171 b            0 skpd (  0.0%)    0.000 s ( 0.001 ms/b)
<sp|sd>:          324 b            0 skpd (  0.0%)    0.000 s ( 0.000 ms/b)
<sp|sf>:          108 b            0 skpd (  0.0%)    0.000 s ( 0.001 ms/b)
<sp|pp>:          108 b            0 skpd (  0.0%)    0.000 s ( 0.001 ms/b)
<sp|pd>:          162 b            0 skpd (  0.0%)    0.000 s ( 0.001 ms/b)
<sp|pf>:           54 b            0 skpd (  0.0%)    0.000 s ( 0.003 ms/b)
<sp|dd>: done
<sp|df>: done
<sp|ff>: done
<sd|sd>:          171 b            0 skpd (  0.0%)    0.000 s ( 0.000 ms/b)
<sd|sf>:          108 b            0 skpd (  0.0%)    0.000 s ( 0.001 ms/b)
<sd|pp>:          108 b            0 skpd (  0.0%)    0.000 s ( 0.002 ms/b)
<sd|pd>: done
<sd|pf>: done
<sd|dd>: done
<sd|df>: done
<sd|ff>: done
<sf|sf>:           21 b            0 skpd (  0.0%)    0.000 s ( 0.002 ms/b)
<sf|pp>:           36 b            0 skpd (  0.0%)    0.000 s ( 0.004 ms/b)
<sf|pd>: done
<sf|pf>: done
<sf|dd>: done
<sf|df>: done
<sf|ff>: done
<pp|pp>:           21 b            0 skpd (  0.0%)    0.000 s ( 0.007 ms/b)
<pp|pd>:           54 b            0 skpd (  0.0%)    0.000 s ( 0.002 ms/b)
<pp|pf>:           18 b            0 skpd (  0.0%)    0.000 s ( 0.007 ms/b)
<pp|dd>:           36 b            0 skpd (  0.0%)    0.000 s ( 0.002 ms/b)
<pp|df>:           18 b            0 skpd (  0.0%)    0.000 s ( 0.007 ms/b)
<pp|ff>:            6 b            0 skpd (  0.0%)    0.000 s ( 0.029 ms/b)
<pd|pd>:           45 b            0 skpd (  0.0%)    0.000 s ( 0.004 ms/b)
<pd|pf>:           27 b            0 skpd (  0.0%)    0.000 s ( 0.010 ms/b)
<pd|dd>: done
<pd|df>: done
<pd|ff>: done
<pf|pf>:            6 b            0 skpd (  0.0%)    0.000 s ( 0.021 ms/b)
<pf|dd>: done
<pf|df>: done
<pf|ff>: done
<dd|dd>: done
<dd|df>: done
<dd|ff>: done
<df|df>: done
<df|ff>: done
<ff|ff>: done
Recanonicalizing the internal orbitals
Recanonicalizing the virtual orbitals
Time needed for Fock operator              ...            0.021 sec
Reference energy                           ...    -54.402769443
Warning: for UHF the TrafoType has to be JK
Warning: for UHF the K(C)-option cannot be MO but must be AOX

-------------------------------
PARTIAL EXCHANGE TRANSFORMATION
-------------------------------

Transformation type                        ... two-operators
Generation of integrals (i,mue|j,nue)      ... ON
Generation of integrals (mue,kappa|nue,tau)... ON
Generation of integrals (i,mue|a,nue)      ... ON
Dimension of the basis                     ...   37
Number of internal alpha-MOs               ...    4 (   1-   4)
Number of internal beta-MOs                ...    1 (   1-   1)
Number of external alpha-MOs               ...   32 (   5-  36)
Number of external beta-MOs                ...   35 (   2-  36)
Pair cutoff                                ... 0.000e+00 Eh
Number of AO pairs in the trafo            ...  703
Total Number of distinct AO pairs          ...  703
Memory devoted for trafo                   ... 2500.0 MB 
Max. Number of MO pairs treated together   ... 239357      
Number Format for Storage                  ... Double (8 Byte)
Integral package used                      ... LIBINT

Starting integral evaluation:
    ... done with AO integral generation
Closing buffer AOK[aa] ( 0.00 GB; CompressionRatio= 0.91)
Closing buffer AOK[bb] ( 0.00 GB; CompressionRatio= 0.40)
Closing buffer AOK[ab] ( 0.00 GB; CompressionRatio= 0.73)
Closing buffer AOK[ba] ( 0.00 GB; CompressionRatio= 0.73)
Collecting buffer AOK 
Closing buffer IAAO1[aa] ( 0.00 GB; CompressionRatio= 0.99)
Closing buffer IAAO1[bb] ( 0.00 GB; CompressionRatio= 0.96)
Closing buffer IAAO1[ab] ( 0.00 GB; CompressionRatio= 0.99)
Closing buffer IAAO1[ba] ( 0.00 GB; CompressionRatio= 0.96)
Closing buffer IAAO2[aa] ( 0.00 GB; CompressionRatio= 0.99)
Closing buffer IAAO2[bb] ( 0.00 GB; CompressionRatio= 0.96)
Closing buffer IAAO2[ab] ( 0.00 GB; CompressionRatio= 0.99)
Closing buffer IAAO2[ba] ( 0.00 GB; CompressionRatio= 0.96)
Collecting buffer IAAO 
Closing buffer PRQS    ( 0.00 GB; CompressionRatio= 1.00)
Collecting buffer PRQS 
Number of alpha/alpha MO pairs in trafo    ...   10
Number of beta /beta  MO pairs in trafo    ...    1
Number of alpha/ beta MO pairs in trafo    ...    4
------------------------
SORTING OF (i,mue|j,nue)
------------------------

SORTING OF ALPHA/ALPHA PAIRS
IBATCH = 1 of  1
Closing buffer KAO[aa] ( 0.00 GB; CompressionRatio= 1.00)
Collecting buffer KAO 
SORTING OF BETA /BETA  PAIRS
IBATCH = 1 of  1
Closing buffer KAO[bb] ( 0.00 GB; CompressionRatio= 1.00)
Collecting buffer KAO 
SORTING OF ALPHA/BETA  PAIRS
IBATCH = 1 of  1
Closing buffer KAO[ab] ( 0.00 GB; CompressionRatio= 0.998905508938)
Collecting buffer KAO[ab] 
------------------------
SORTING OF (i,mue|a,nue)
------------------------

Number of alpha/alpha (i,a) pairs in trafo  ...  128
Number of beta /beta  (i,a) pairs in trafo  ...   35
Number of alpha/ beta (i,a) pairs in trafo  ...  140
Number of beta /alpha (i,a) pairs in trafo  ...   32
Setting up the alpha/alpha list             ... done
Setting up the beta /beta  list             ... done
Setting up the alpha/beta  list             ... done
Setting up the beta /alpha list             ... done
    ... Now sorting (i,mue|a,nue)integrals
    ... Integrals (i,b|a,c) will be made on the fly
SORTING OF ALPHA/ALPHA PAIRS
IBATCH = 1 of  1
Closing buffer IPAQ[aa]  0.00 GB; CompressionRatio= 1.00)
SORTING OF BETA /BETA  PAIRS
IBATCH = 1 of  1
Closing buffer IPAQ[bb]( 0.00 GB; CompressionRatio= 1.00)
SORTING OF ALPHA/BETA  PAIRS (NMatSort_ab=14)
IBATCH = 1 of  1
Closing buffer IPAQ[ab]( 0.00 GB; CompressionRatio= 1.00)
SORTING OF BETA/ALPHA  PAIRS
IBATCH = 1 of  1
Closing buffer IPAQ[ba]( 0.00 GB; CompressionRatio= 1.00)
N(AO-Batches) Done                         ...       676 
N(AO-Batches) Skipped                      ...         0 
N(IJ)-pairs Skipped                        ...         0 
TOTAL TIME for half transformation         ...     1.254 sec
AO-integral generation                     ...     0.004 sec
Half transformation                        ...     0.157 sec
K-integral sorting                         ...     0.283 sec
<ss|**>: 
------------------------------
PARTIAL COULOMB TRANSFORMATION
------------------------------

Transformation type                        ... two-operators
Dimension of the basis                     ...   37
Number of internal alpha-MOs               ...    4 (1-4)
Number of internal beta-MOs                ...    1 (1-1)
Pair cutoff                                ... 0.000e+00 Eh
Number of AO pairs included in the trafo   ...  703
Total Number of distinct AO pairs          ...  703
Memory devoted for trafo                   ... 2500.0 MB 
Max. Number of MO pairs treated together   ... 466116      
Max. Number of MOs treated per batch       ... 12597      
Number Format for Storage                  ... Double (8 Byte)
AO-integral source                         ... DIRECT
Integral package used                      ... LIBINT

Starting integral evaluation:
<sp|**>:         1911 b        0 skpd     0.002 s (  0.001 ms/b)
<sd|**>:         1638 b        0 skpd     0.010 s (  0.006 ms/b)
        1638 b        0 skpd     0.015 s (  0.009 ms/b)
<sf|**>: <pp|**>:          546 b        0 skpd     0.008 s (  0.014 ms/b)
<pd|**>:          546 b        0 skpd     0.008 s (  0.015 ms/b)
<pf|**>:          819 b        0 skpd     0.022 s (  0.027 ms/b)
         273 b        0 skpd     0.016 s (  0.058 ms/b)
<dd|**>:          546 b        0 skpd     0.022 s (  0.041 ms/b)
<df|**>:          273 b        0 skpd     0.025 s (  0.091 ms/b)
<ff|**>:           91 b        0 skpd     0.014 s (  0.152 ms/b)
Closing buffer AOJ[aa] ( 0.00 GB; CompressionRatio= 0.87)
Closing buffer AOJ[bb] ( 0.00 GB; CompressionRatio= 0.00)
Collecting buffer AOJ 
    ... done with AO integral generation
Number of Alpha-MO pairs included          ...   10
Number of Beta-MO pairs included           ...    1
    ... Now sorting integrals
SORTING ALPHA/ALPHA PAIRS
IBATCH = 1 of  1
Closing buffer JAO[aa] ( 0.00 GB; CompressionRatio= 1.00)
SORTING BETA/BETA PAIRS
IBATCH = 1 of  1
Closing buffer JAO[bb] ( 0.00 GB; CompressionRatio= 1.00)
Collecting buffer JAO 
TOTAL TIME for half transformation         ...     0.181 sec
AO-integral generation                     ...     0.072 sec
Half transformation                        ...     0.072 sec
J-integral sorting                         ...     0.027 sec

-------------------------- SECOND HALF TRANSFORMATION -------------------------
Formation of (ij|kl),(ij|ka), (ij|ab)      ... ok (     0.033 sec)
Formation of (ik|jl),(ik|ja), (ia|jb)      ... ok (     0.052 sec)


-----------------------
SPIN UNRESTRICTED GUESS
-----------------------

Entering MDCI_UHF_Guess, Tailored=0
Spin-components of the MP2 energy:
EMP2(aa)=     -0.029010069
EMP2(bb)=      0.000000000
EMP2(ab)=     -0.066250114

Initial guess performed in     0.001 sec
E(0)                                       ...    -54.402769443
E(MP2)                                     ...     -0.095260183
Initial E(tot)                             ...    -54.498029626
<T|T>                                      ...      0.025118067
Number of pairs included                   ... 10

------------------------------------------------
                  UHF COUPLED CLUSTER ITERATIONS
------------------------------------------------

Number of amplitudes to be optimized       ...         7633

Iter       E(tot)           E(Corr)          Delta-E          Residual     Time      <S|S>**1/2
  0    -54.498029626     -0.095260183     -0.000000000      0.012971719    0.04      0.000000085
                           *** Turning on DIIS ***
  1    -54.509778542     -0.107009099     -0.011748917      0.004231730    0.02      0.006129058
  2    -54.513559613     -0.110790170     -0.003781070      0.001760606    0.02      0.011286233
  3    -54.514066849     -0.111297406     -0.000507236      0.000766539    0.02      0.014238414
  4    -54.514165772     -0.111396329     -0.000098923      0.000258026    0.02      0.015261256
  5    -54.514172951     -0.111403509     -0.000007179      0.000063179    0.02      0.015422338
  6    -54.514172437     -0.111402994      0.000000515      0.000012827    0.02      0.015398122
  7    -54.514172571     -0.111403128     -0.000000135      0.000001870    0.02      0.015381977
               --- The Coupled-Cluster iterations have converged ---

----------------------
COUPLED CLUSTER ENERGY
----------------------

E(0)                                       ...    -54.402769443
E(CORR)                                    ...     -0.111403128
E(TOT)                                     ...    -54.514172571
Singles norm <S|S>**1/2                    ...      0.015381977 ( 0.012658347, 0.002723630)  
T1 diagnostic                              ...      0.006879029                              

------------------
LARGEST AMPLITUDES
------------------
   2a-> 19a   1b->  2b       0.028382
   3a-> 16a   1b->  2b       0.024462
   4a-> 17a   1b->  2b       0.024082
   2a-> 18a   1b->  4b       0.023855
   4a-> 13a   3a-> 12a       0.023131
   4a-> 12a   3a-> 13a       0.023131
   3a-> 17a   1b->  4b       0.023085
   4a-> 19a   1b->  3b       0.021775
   3a-> 12a   2a-> 11a       0.020447
   3a-> 11a   2a-> 12a       0.020447
   4a-> 11a   2a-> 13a       0.020270
   4a-> 13a   2a-> 11a       0.020270
   3a-> 16a   1b-> 12b       0.019463
   2a-> 15a   1b->  3b       0.019082
   4a-> 15a   1b->  4b       0.018688
   2a-> 11a   1b-> 14b       0.018654

----------------------
UHF TRIPLES CORRECTION (Algorithm 1)
----------------------

Multiplier for the singles contribution    ...      1.000000000

SPIN-CASE Alpha-Alpha-Alpha:
10% done
20% done
30% done
40% done
50% done
60% done
70% done
80% done
90% done


SPIN-CASE Beta-Beta-Beta:

SPIN-CASE Alpha-Alpha-Beta:
10% done
20% done
30% done
40% done
50% done
60% done
70% done
80% done
90% done


SPIN-CASE Beta-Beta-Alpha:

Triples Correction (T)                     ...     -0.002377591
    alpha-alpha-alpha ... -0.000210692 (  8.9%)
    alpha-alpha-beta  ... -0.002166899 ( 91.1%)
    alpha-beta -beta  ...  0.000000000 ( -0.0%)
    beta -beta -beta  ...  0.000000000 ( -0.0%)
Scaling of triples based on CCSD energies (Peterson et al. Molecular Physics 113, 1551 (2015))
E(T*) = f*E(T) where f = E(F12-CCSD)/E(CCSD) 
f = CCSD (with F12)/ CCSD (without F12)    ...      1.000000000
Scaled triples correction (T)              ...     -0.002377591

Final correlation energy                   ...     -0.113780720
E(CCSD)                                    ...    -54.514172571
E(CCSD(T))                                 ...    -54.516550162



        !!!!!!!!!!!!!!!!!!!!!!!!!!!!!!!!!!!!!!!!!!!!!!!!!!!!!!!!!!!!!!!!!!!!!!!!!! 
        !  Warning: Densities are linearized densities                           !
        !!!!!!!!!!!!!!!!!!!!!!!!!!!!!!!!!!!!!!!!!!!!!!!!!!!!!!!!!!!!!!!!!!!!!!!!!! 

NORM  =      1.038284884 sqrt=     1.018962651
W(HF) =      0.963126802
------------------------------------------------------------------------------
                           ORCA POPULATION ANALYSIS
------------------------------------------------------------------------------
Input electron density              ... 07_N.mdcip
Input spin density                  ... 07_N.mdcir
BaseName (.gbw .S,...)              ... 07_N

                    ********************************
                    * MULLIKEN POPULATION ANALYSIS *
                    ********************************

------------------------------------------
MULLIKEN ATOMIC CHARGES AND SPIN DENSITIES
------------------------------------------
   0 N :   -0.000000    3.000000
Sum of atomic charges       :   -0.0000000
Sum of atomic spin densities:    3.0000000

---------------------------------------------------
MULLIKEN REDUCED ORBITAL CHARGES AND SPIN DENSITIES
---------------------------------------------------
CHARGE
  0 N s       :     3.974064  s :     3.974064
      pz      :     0.999040  p :     2.997119
      px      :     0.999040
      py      :     0.999040
      dz2     :     0.005498  d :     0.027490
      dxz     :     0.005498
      dyz     :     0.005498
      dx2y2   :     0.005498
      dxy     :     0.005498
      f0      :     0.000190  f :     0.001327
      f+1     :     0.000190
      f-1     :     0.000190
      f+2     :     0.000190
      f-2     :     0.000190
      f+3     :     0.000190
      f-3     :     0.000190

SPIN
  0 N s       :     0.022941  s :     0.022941
      pz      :     0.984271  p :     2.952814
      px      :     0.984271
      py      :     0.984271
      dz2     :     0.004738  d :     0.023691
      dxz     :     0.004738
      dyz     :     0.004738
      dx2y2   :     0.004738
      dxy     :     0.004738
      f0      :     0.000079  f :     0.000554
      f+1     :     0.000079
      f-1     :     0.000079
      f+2     :     0.000079
      f-2     :     0.000079
      f+3     :     0.000079
      f-3     :     0.000079


                     *******************************
                     * LOEWDIN POPULATION ANALYSIS *
                     *******************************

-----------------------------------------
LOEWDIN ATOMIC CHARGES AND SPIN DENSITIES
-----------------------------------------
   0 N :   -0.000000    3.000000

--------------------------------------------------
LOEWDIN REDUCED ORBITAL CHARGES AND SPIN DENSITIES
--------------------------------------------------
CHARGE
  0 N s       :     3.974064  s :     3.974064
      pz      :     0.999040  p :     2.997119
      px      :     0.999040
      py      :     0.999040
      dz2     :     0.005498  d :     0.027490
      dxz     :     0.005498
      dyz     :     0.005498
      dx2y2   :     0.005498
      dxy     :     0.005498
      f0      :     0.000190  f :     0.001327
      f+1     :     0.000190
      f-1     :     0.000190
      f+2     :     0.000190
      f-2     :     0.000190
      f+3     :     0.000190
      f-3     :     0.000190

SPIN
  0 N s       :     0.022941  s :     0.022941
      pz      :     0.984271  p :     2.952814
      px      :     0.984271
      py      :     0.984271
      dz2     :     0.004738  d :     0.023691
      dxz     :     0.004738
      dyz     :     0.004738
      dx2y2   :     0.004738
      dxy     :     0.004738
      f0      :     0.000079  f :     0.000554
      f+1     :     0.000079
      f-1     :     0.000079
      f+2     :     0.000079
      f-2     :     0.000079
      f+3     :     0.000079
      f-3     :     0.000079


                      *****************************
                      * MAYER POPULATION ANALYSIS *
                      *****************************

  NA   - Mulliken gross atomic population
  ZA   - Total nuclear charge
  QA   - Mulliken gross atomic charge
  VA   - Mayer's total valence
  BVA  - Mayer's bonded valence
  FA   - Mayer's free valence

  ATOM       NA         ZA         QA         VA         BVA        FA
  0 N      7.0000     7.0000    -0.0000     3.1869     0.0000     3.1869





------------------------------------------------------------------------------- 
                                     TIMINGS                                   
------------------------------------------------------------------------------- 


Total execution time                   ...        1.978 sec

Fock Matrix Formation                  ...        0.021 sec (  1.1%)
Initial Guess                          ...        0.001 sec (  0.1%)
DIIS Solver                            ...        0.005 sec (  0.3%)
State Vector Update                    ...        0.000 sec (  0.0%)
Sigma-vector construction              ...        0.161 sec (  8.1%)
  <D|H|D>(4-ext)                       ...        0.086 sec ( 53.6% of sigma)
  <S|H|0>                              ...        0.002 sec (  1.0% of sigma)
  <D|H|S>(1-ext)                       ...        0.001 sec (  0.9% of sigma)
  Fock-dressing                        ...        0.030 sec ( 18.4% of sigma)
  (ij|ab),(ia|jb)-dressing             ...        0.026 sec ( 16.4% of sigma)
Total Time for computing (T)           ...        0.005 sec (  0.2% of ALL)
  I/O of integral and amplitudes       ...        0.003 sec ( 53.6% of (T))


-------------------------   --------------------
FINAL SINGLE POINT ENERGY       -54.516550162463
-------------------------   --------------------


                            ***************************************
                            *     ORCA property calculations      *
                            ***************************************

                                    ---------------------
                                    Active property flags
                                    ---------------------
   (+) Dipole Moment


------------------------------------------------------------------------------
                       ORCA ELECTRIC PROPERTIES CALCULATION
------------------------------------------------------------------------------

Dipole Moment Calculation                       ... on
Quadrupole Moment Calculation                   ... off
Polarizability Calculation                      ... off
GBWName                                         ... 07_N.gbw
Electron density file                           ... 07_N.scfp
The origin for moment calculation is the CENTER OF MASS  = ( 0.000000,  0.000000  0.000000)

-------------
DIPOLE MOMENT
-------------
                                X             Y             Z
Electronic contribution:     -0.00000      -0.00000      -0.00000
Nuclear contribution   :      0.00000       0.00000       0.00000
                        -----------------------------------------
Total Dipole Moment    :     -0.00000      -0.00000      -0.00000
                        -----------------------------------------
Magnitude (a.u.)       :      0.00000
Magnitude (Debye)      :      0.00000



--------------------
Rotational spectrum 
--------------------
 
Rotational constants in cm-1:     0.000000     0.000000     0.000000 
Rotational constants in MHz :     0.000000     0.000000     0.000000 

 Dipole components along the rotational axes: 
x,y,z [a.u.] :    -0.000000    -0.000000    -0.000000 
x,y,z [Debye]:    -0.000000    -0.000000    -0.000000 

 

                           *** MDCI DENSITY ***

------------------------------------------------------------------------------
                       ORCA ELECTRIC PROPERTIES CALCULATION
------------------------------------------------------------------------------

Dipole Moment Calculation                       ... on
Quadrupole Moment Calculation                   ... off
Polarizability Calculation                      ... off
GBWName                                         ... 07_N.gbw
Electron density file                           ... 07_N.mdcip
The origin for moment calculation is the CENTER OF MASS  = ( 0.000000,  0.000000  0.000000)

-------------
DIPOLE MOMENT
-------------
                                X             Y             Z
Electronic contribution:     -0.00000      -0.00000       0.00000
Nuclear contribution   :      0.00000       0.00000       0.00000
                        -----------------------------------------
Total Dipole Moment    :     -0.00000      -0.00000       0.00000
                        -----------------------------------------
Magnitude (a.u.)       :      0.00000
Magnitude (Debye)      :      0.00000



--------------------
Rotational spectrum 
--------------------
 
Rotational constants in cm-1:     0.000000     0.000000     0.000000 
Rotational constants in MHz :     0.000000     0.000000     0.000000 

 Dipole components along the rotational axes: 
x,y,z [a.u.] :    -0.000000    -0.000000     0.000000 
x,y,z [Debye]:    -0.000000    -0.000000     0.000000 

 

Timings for individual modules:

Sum of individual times         ...        5.063 sec (=   0.084 min)
GTO integral calculation        ...        0.593 sec (=   0.010 min)  11.7 %
SCF iterations                  ...        2.139 sec (=   0.036 min)  42.2 %
MDCI module                     ...        2.331 sec (=   0.039 min)  46.0 %
                             ****ORCA TERMINATED NORMALLY****
TOTAL RUN TIME: 0 days 0 hours 0 minutes 5 seconds 633 msec
