
                                 *****************
                                 * O   R   C   A *
                                 *****************

           --- An Ab Initio, DFT and Semiempirical electronic structure package ---

                  #######################################################
                  #                        -***-                        #
                  #          Department of theory and spectroscopy      #
                  #               Directorship: Frank Neese             #
                  #        Max Planck Institute fuer Kohlenforschung    #
                  #                Kaiser Wilhelm Platz 1               #
                  #                 D-45470 Muelheim/Ruhr               #
                  #                      Germany                        #
                  #                                                     #
                  #                  All rights reserved                #
                  #                        -***-                        #
                  #######################################################


                         Program Version 4.2.0 -  RELEASE  -


 With contributions from (in alphabetic order):
   Daniel Aravena         : Magnetic Suceptibility
   Michael Atanasov       : Ab Initio Ligand Field Theory (pilot matlab implementation)
   Alexander A. Auer      : GIAO ZORA, VPT2
   Ute Becker             : Parallelization
   Giovanni Bistoni       : ED, misc. LED, open-shell LED, HFLED
   Martin Brehm           : Molecular dynamics
   Dmytro Bykov           : SCF Hessian
   Vijay G. Chilkuri      : MRCI spin determinant printing, contributions to CSF-ICE
   Dipayan Datta          : RHF DLPNO-CCSD density
   Achintya Kumar Dutta   : EOM-CC, STEOM-CC
   Dmitry Ganyushin       : Spin-Orbit,Spin-Spin,Magnetic field MRCI
   Miquel Garcia          : C-PCM Hessian, Gaussian charge scheme
   Yang Guo               : DLPNO-NEVPT2, CIM, IAO-localization
   Andreas Hansen         : Spin unrestricted coupled pair/coupled cluster methods
   Benjamin Helmich-Paris : CASSCF linear response (MC-RPA)
   Lee Huntington         : MR-EOM, pCC
   Robert Izsak           : Overlap fitted RIJCOSX, COSX-SCS-MP3, EOM
   Christian Kollmar      : KDIIS, OOCD, Brueckner-CCSD(T), CCSD density
   Simone Kossmann        : Meta GGA functionals, TD-DFT gradient, OOMP2, MP2 Hessian
   Martin Krupicka        : AUTO-CI
   Lucas Lang             : DCDCAS
   Dagmar Lenk            : GEPOL surface, SMD
   Dimitrios Liakos       : Extrapolation schemes; Compound Job, initial MDCI parallelization
   Dimitrios Manganas     : Further ROCIS development; embedding schemes
   Dimitrios Pantazis     : SARC Basis sets
   Taras Petrenko         : DFT Hessian,TD-DFT gradient, ASA, ECA, R-Raman, ABS, FL, XAS/XES, NRVS
   Peter Pinski           : DLPNO-MP2, DLPNO-MP2 Gradient
   Christoph Reimann      : Effective Core Potentials
   Marius Retegan         : Local ZFS, SOC
   Christoph Riplinger    : Optimizer, TS searches, QM/MM, DLPNO-CCSD(T), (RO)-DLPNO pert. Triples
   Tobias Risthaus        : Range-separated hybrids, TD-DFT gradient, RPA, STAB
   Michael Roemelt        : Original ROCIS implementation
   Masaaki Saitow         : Open-shell DLPNO-CCSD energy and density
   Barbara Sandhoefer     : DKH picture change effects
   Avijit Sen             : IP-ROCIS
   Kantharuban Sivalingam : CASSCF convergence, NEVPT2, FIC-MRCI
   Bernardo de Souza      : ESD, SOC TD-DFT
   Georgi Stoychev        : AutoAux, RI-MP2 NMR
   Willem Van den Heuvel  : Paramagnetic NMR
   Boris Wezisla          : Elementary symmetry handling
   Frank Wennmohs         : Technical directorship


 We gratefully acknowledge several colleagues who have allowed us to
 interface, adapt or use parts of their codes:
   Stefan Grimme, W. Hujo, H. Kruse,             : VdW corrections, initial TS optimization,
                  C. Bannwarth                     DFT functionals, gCP, sTDA/sTD-DF
   Ed Valeev, F. Pavosevic, A. Kumar             : LibInt (2-el integral package), F12 methods
   Garnet Chan, S. Sharma, J. Yang, R. Olivares  : DMRG
   Ulf Ekstrom                                   : XCFun DFT Library
   Mihaly Kallay                                 : mrcc  (arbitrary order and MRCC methods)
   Andreas Klamt, Michael Diedenhofen            : otool_cosmo (COSMO solvation model)
   Jiri Pittner, Ondrej Demel                    : Mk-CCSD
   Frank Weinhold                                : gennbo (NPA and NBO analysis)
   Christopher J. Cramer and Donald G. Truhlar   : smd solvation model
   Lars Goerigk                                  : TD-DFT with DH, B97 family of functionals
   V. Asgeirsson, H. Jonsson                     : NEB implementation
   FAccTs GmbH                                   : IRC, NEB, NEB-TS, Multilevel, MM, QM/MM, CI optimization
   S Lehtola, MJT Oliveira, MAL Marques          : LibXC Library


 Your calculation uses the libint2 library for the computation of 2-el integrals
 For citations please refer to: http://libint.valeyev.net

 Your ORCA version has been built with support for libXC version: 4.2.3
 For citations please refer to: https://tddft.org/programs/libxc/

 This ORCA versions uses:
   CBLAS   interface :  Fast vector & matrix operations
   LAPACKE interface :  Fast linear algebra routines
   SCALAPACK package :  Parallel linear algebra routines


----- Orbital basis set information -----
Your calculation utilizes the basis: def2-TZVPPD
   F. Weigend and R. Ahlrichs, Phys. Chem. Chem. Phys. 7, 3297 (2005).
   D. Rappoport and F. Furche, J. Chem. Phys. 133 134105 (2010).

================================================================================
                                        WARNINGS
                       Please study these warnings very carefully!
================================================================================


WARNING: MDCI localization with Augmented Hessian Foster-Boys
  ===> : Switching off randomization!

WARNING: Post HF methods need fully converged wavefunctions
  ===> : Setting SCFConvForced true
         You can overwrite this default with %scf ConvForced false 


INFO   : the flag for use of LIBINT has been found!

================================================================================
                                       INPUT FILE
================================================================================
NAME = 10_Ne.in
|  1> #
|  2> # 10_Ne CCSD(T)/Def2-TZVPPD
|  3> #
|  4> ! CCSD(T) Def2-TZVPPD tightscf
|  5> 
|  6> *xyz 0 1
|  7>  Ne 0.0 0.0 0.0
|  8> *
|  9> 
| 10> %maxcore 5000 
| 11> 
| 12> %pal
| 13> nprocs 10
| 14> end
| 15> 
| 16> 
| 17>                          ****END OF INPUT****
================================================================================

                       ****************************
                       * Single Point Calculation *
                       ****************************

---------------------------------
CARTESIAN COORDINATES (ANGSTROEM)
---------------------------------
  Ne     0.000000    0.000000    0.000000

----------------------------
CARTESIAN COORDINATES (A.U.)
----------------------------
  NO LB      ZA    FRAG     MASS         X           Y           Z
   0 Ne   10.0000    0    20.179    0.000000    0.000000    0.000000

--------------------------------
INTERNAL COORDINATES (ANGSTROEM)
--------------------------------
 Ne     0   0   0     0.000000000000     0.00000000     0.00000000

---------------------------
INTERNAL COORDINATES (A.U.)
---------------------------
 Ne     0   0   0     0.000000000000     0.00000000     0.00000000

---------------------
BASIS SET INFORMATION
---------------------
There are 1 groups of distinct atoms

 Group   1 Type Ne  : 12s7p3d1f contracted to 6s4p3d1f pattern {621111/4111/111/1}

Atom   0Ne   basis set group =>   1


           ************************************************************
           *        Program running with 10 parallel MPI-processes    *
           *              working on a common directory               *
           ************************************************************
------------------------------------------------------------------------------
                           ORCA GTO INTEGRAL CALCULATION
------------------------------------------------------------------------------

                         BASIS SET STATISTICS AND STARTUP INFO

 # of primitive gaussian shells          ...   23
 # of primitive gaussian functions       ...   55
 # of contracted shells                  ...   14
 # of contracted basis functions         ...   40
 Highest angular momentum                ...    3
 Maximum contraction depth               ...    6
 Integral package used                   ... LIBINT
 Integral threshhold            Thresh   ...  2.500e-11
 Primitive cut-off              TCut     ...  2.500e-12


------------------------------ INTEGRAL EVALUATION ----------------------------


 * One electron integrals 
 Pre-screening matrix                    ... done
 Shell pair data                         ... done (   0.000 sec)



           ************************************************************
           *        Program running with 10 parallel MPI-processes    *
           *              working on a common directory               *
           ************************************************************
-------------------------------------------------------------------------------
                                 ORCA SCF
-------------------------------------------------------------------------------

------------
SCF SETTINGS
------------
Hamiltonian:
 Ab initio Hamiltonian  Method          .... Hartree-Fock(GTOs)


General Settings:
 Integral files         IntName         .... 10_Ne
 Hartree-Fock type      HFTyp           .... RHF
 Total Charge           Charge          ....    0
 Multiplicity           Mult            ....    1
 Number of Electrons    NEL             ....   10
 Basis Dimension        Dim             ....   40
 Nuclear Repulsion      ENuc            ....      0.0000000000 Eh

Convergence Acceleration:
 DIIS                   CNVDIIS         .... on
   Start iteration      DIISMaxIt       ....    12
   Startup error        DIISStart       ....  0.200000
   # of expansion vecs  DIISMaxEq       ....     5
   Bias factor          DIISBfac        ....   1.050
   Max. coefficient     DIISMaxC        ....  10.000
 Newton-Raphson         CNVNR           .... off
 SOSCF                  CNVSOSCF        .... on
   Start iteration      SOSCFMaxIt      ....   150
   Startup grad/error   SOSCFStart      ....  0.003300
 Level Shifting         CNVShift        .... on
   Level shift para.    LevelShift      ....    0.2500
   Turn off err/grad.   ShiftErr        ....    0.0010
 Zerner damping         CNVZerner       .... off
 Static damping         CNVDamp         .... on
   Fraction old density DampFac         ....    0.7000
   Max. Damping (<1)    DampMax         ....    0.9800
   Min. Damping (>=0)   DampMin         ....    0.0000
   Turn off err/grad.   DampErr         ....    0.1000
 Fernandez-Rico         CNVRico         .... off

SCF Procedure:
 Maximum # iterations   MaxIter         ....   125
 SCF integral mode      SCFMode         .... Direct
   Integral package                     .... LIBINT
 Reset frequency        DirectResetFreq ....    20
 Integral Threshold     Thresh          ....  2.500e-11 Eh
 Primitive CutOff       TCut            ....  2.500e-12 Eh

Convergence Tolerance:
 Convergence Check Mode ConvCheckMode   .... Total+1el-Energy
 Convergence forced     ConvForced      .... 1
 Energy Change          TolE            ....  1.000e-08 Eh
 1-El. energy change                    ....  1.000e-05 Eh
 Orbital Gradient       TolG            ....  1.000e-05
 Orbital Rotation angle TolX            ....  1.000e-05
 DIIS Error             TolErr          ....  5.000e-07


Diagonalization of the overlap matrix:
Smallest eigenvalue                        ... 1.620e-02
Time for diagonalization                   ...    0.001 sec
Threshold for overlap eigenvalues          ... 1.000e-08
Number of eigenvalues below threshold      ... 0
Time for construction of square roots      ...    0.005 sec
Total time needed                          ...    0.006 sec

-------------------
DFT GRID GENERATION
-------------------

General Integration Accuracy     IntAcc      ...  4.340
Radial Grid Type                 RadialGrid  ... Gauss-Chebyshev
Angular Grid (max. acc.)         AngularGrid ... Lebedev-110
Angular grid pruning method      GridPruning ... 3 (G Style)
Weight generation scheme         WeightScheme... Becke
Basis function cutoff            BFCut       ...    1.0000e-11
Integration weight cutoff        WCut        ...    1.0000e-14
Grids for H and He will be reduced by one unit

# of grid points (after initial pruning)     ...   1694 (   0.0 sec)
# of grid points (after weights+screening)   ...   1694 (   0.0 sec)
Grid point division into batches done        ...    0.0 sec
Reduced shell lists constructed in    0.0 sec

Total number of grid points                  ...     1694
Total number of batches                      ...       27
Average number of points per batch           ...       62
Average number of grid points per atom       ...     1694
Average number of shells per batch           ...     6.00 (42.86%)
Average number of basis functions per batch  ...    16.50 (41.25%)
Average number of large shells per batch     ...     5.00 (83.33%)
Average number of large basis fcns per batch ...    13.50 (81.82%)
Maximum spatial batch extension              ...  13.89, 25.65, 25.65 au
Average spatial batch extension              ...   1.43,  2.44,  2.85 au

Time for grid setup =    0.024 sec

------------------------------
INITIAL GUESS: MODEL POTENTIAL
------------------------------
Loading Hartree-Fock densities                     ... done
Calculating cut-offs                               ... done
Setting up the integral package                    ... done
Initializing the effective Hamiltonian             ... done
Starting the Coulomb interaction                   ... done (   0.0 sec)
Reading the grid                                   ... done
Mapping shells                                     ... done
Starting the XC term evaluation                    ... done (   0.0 sec)
Transforming the Hamiltonian                       ... done (   0.0 sec)
Diagonalizing the Hamiltonian                      ... done (   0.0 sec)
Back transforming the eigenvectors                 ... done (   0.0 sec)
Now organizing SCF variables                       ... done
                      ------------------
                      INITIAL GUESS DONE (   0.1 sec)
                      ------------------
--------------
SCF ITERATIONS
--------------
ITER       Energy         Delta-E        Max-DP      RMS-DP      [F,P]     Damp
               ***  Starting incremental Fock matrix formation  ***
  0   -128.5230916341   0.000000000000 0.01356177  0.00109991  0.4129573 0.7000
  1   -128.5286434428  -0.005551808718 0.01130926  0.00087336  0.2900682 0.7000
  2   -128.5325004703  -0.003857027481 0.00849981  0.00062825  0.2037760 0.7000
                               ***Turning on DIIS***
  3   -128.5352083960  -0.002707925751 0.00627504  0.00045034  0.1436022 0.7000
  4   -128.4878783973   0.047329998717 0.00509758  0.00034310  0.1014920 0.7000
  5   -128.4993604934  -0.011482096061 0.01236850  0.00083508  0.0717029 0.0000
                      *** Initiating the SOSCF procedure ***
                           *** Shutting down DIIS ***
                      *** Re-Reading the Fockian *** 
                      *** Removing any level shift *** 
ITER      Energy       Delta-E        Grad      Rot      Max-DP    RMS-DP
  6   -128.54118064  -0.0418201441  0.000513  0.000513  0.000466  0.000033
               *** Restarting incremental Fock matrix formation ***
  7   -128.54180241  -0.0006217754  0.000211  0.000083  0.000144  0.000011
  8   -128.54180250  -0.0000000905  0.000086  0.000025  0.000042  0.000003
  9   -128.54180253  -0.0000000217  0.000004  0.000004  0.000005  0.000000
                 **** Energy Check signals convergence ****
              ***Rediagonalizing the Fockian in SOSCF/NRSCF***

               *****************************************************
               *                     SUCCESS                       *
               *           SCF CONVERGED AFTER  10 CYCLES          *
               *****************************************************


----------------
TOTAL SCF ENERGY
----------------

Total Energy       :         -128.54180253 Eh           -3497.80027 eV

Components:
Nuclear Repulsion  :            0.00000000 Eh               0.00000 eV
Electronic Energy  :         -128.54180253 Eh           -3497.80027 eV
One Electron Energy:         -182.56923769 Eh           -4967.96152 eV
Two Electron Energy:           54.02743516 Eh            1470.16125 eV

Virial components:
Potential Energy   :         -257.06962002 Eh           -6995.21999 eV
Kinetic Energy     :          128.52781750 Eh            3497.41972 eV
Virial Ratio       :            2.00010881


---------------
SCF CONVERGENCE
---------------

  Last Energy change         ...   -1.5024e-10  Tolerance :   1.0000e-08
  Last MAX-Density change    ...    4.5165e-07  Tolerance :   1.0000e-07
  Last RMS-Density change    ...    3.6524e-08  Tolerance :   5.0000e-09
  Last Orbital Gradient      ...    2.8113e-07  Tolerance :   1.0000e-05
  Last Orbital Rotation      ...    3.1295e-07  Tolerance :   1.0000e-05

             **** THE GBW FILE WAS UPDATED (10_Ne.gbw) ****
             **** DENSITY FILE WAS UPDATED (10_Ne.scfp) ****
             **** ENERGY FILE WAS UPDATED (10_Ne.en.tmp) ****
             **** THE GBW FILE WAS UPDATED (10_Ne.gbw) ****
             **** DENSITY FILE WAS UPDATED (10_Ne.scfp) ****
----------------
ORBITAL ENERGIES
----------------

  NO   OCC          E(Eh)            E(eV) 
   0   2.0000     -32.774331      -891.8349 
   1   2.0000      -1.930615       -52.5347 
   2   2.0000      -0.850746       -23.1500 
   3   2.0000      -0.850746       -23.1500 
   4   2.0000      -0.850746       -23.1500 
   5   0.0000       0.182272         4.9599 
   6   0.0000       0.182272         4.9599 
   7   0.0000       0.182272         4.9599 
   8   0.0000       0.213357         5.8058 
   9   0.0000       0.735149        20.0044 
  10   0.0000       0.735149        20.0044 
  11   0.0000       0.735149        20.0044 
  12   0.0000       0.735149        20.0044 
  13   0.0000       0.735149        20.0044 
  14   0.0000       1.018720        27.7208 
  15   0.0000       1.018720        27.7208 
  16   0.0000       1.018720        27.7208 
  17   0.0000       1.273960        34.6662 
  18   0.0000       3.133904        85.2779 
  19   0.0000       3.133904        85.2779 
  20   0.0000       3.133904        85.2779 
  21   0.0000       3.133904        85.2779 
  22   0.0000       3.133904        85.2779 
  23   0.0000       4.478827       121.8751 
  24   0.0000       4.478827       121.8751 
  25   0.0000       4.478827       121.8751 
  26   0.0000       5.307842       144.4337 
  27   0.0000       9.642574       262.3878 
  28   0.0000       9.642574       262.3878 
  29   0.0000       9.642574       262.3878 
  30   0.0000       9.642574       262.3878 
  31   0.0000       9.642574       262.3878 
  32   0.0000       9.642574       262.3878 
  33   0.0000       9.642574       262.3878 
  34   0.0000      11.437599       311.2329 
  35   0.0000      11.437599       311.2329 
  36   0.0000      11.437599       311.2329 
  37   0.0000      11.437599       311.2329 
  38   0.0000      11.437599       311.2329 
  39   0.0000      73.963854      2012.6588 

                    ********************************
                    * MULLIKEN POPULATION ANALYSIS *
                    ********************************

-----------------------
MULLIKEN ATOMIC CHARGES
-----------------------
   0 Ne:   -0.000000
Sum of atomic charges:   -0.0000000

--------------------------------
MULLIKEN REDUCED ORBITAL CHARGES
--------------------------------
  0 Nes       :     4.000000  s :     4.000000
      pz      :     2.000000  p :     6.000000
      px      :     2.000000
      py      :     2.000000
      dz2     :     0.000000  d :     0.000000
      dxz     :     0.000000
      dyz     :     0.000000
      dx2y2   :     0.000000
      dxy     :     0.000000
      f0      :     0.000000  f :     0.000000
      f+1     :     0.000000
      f-1     :     0.000000
      f+2     :     0.000000
      f-2     :     0.000000
      f+3     :     0.000000
      f-3     :     0.000000


                     *******************************
                     * LOEWDIN POPULATION ANALYSIS *
                     *******************************

----------------------
LOEWDIN ATOMIC CHARGES
----------------------
   0 Ne:   -0.000000

-------------------------------
LOEWDIN REDUCED ORBITAL CHARGES
-------------------------------
  0 Nes       :     4.000000  s :     4.000000
      pz      :     2.000000  p :     6.000000
      px      :     2.000000
      py      :     2.000000
      dz2     :     0.000000  d :     0.000000
      dxz     :     0.000000
      dyz     :     0.000000
      dx2y2   :     0.000000
      dxy     :     0.000000
      f0      :     0.000000  f :     0.000000
      f+1     :     0.000000
      f-1     :     0.000000
      f+2     :     0.000000
      f-2     :     0.000000
      f+3     :     0.000000
      f-3     :     0.000000


                      *****************************
                      * MAYER POPULATION ANALYSIS *
                      *****************************

  NA   - Mulliken gross atomic population
  ZA   - Total nuclear charge
  QA   - Mulliken gross atomic charge
  VA   - Mayer's total valence
  BVA  - Mayer's bonded valence
  FA   - Mayer's free valence

  ATOM       NA         ZA         QA         VA         BVA        FA
  0 Ne    10.0000    10.0000    -0.0000    -0.0000     0.0000    -0.0000

  Mayer bond orders larger than 0.100000


--------------------------
ATOM BASIS FOR ELEMENT Ne
--------------------------
 NewGTO Ne
 S 12
    1      45069.464022000000         0.000231576062
    2       6755.976865600000         0.001795268454
    3       1537.650286400000         0.009327903252
    4        435.516976670000         0.037758853271
    5        142.286556380000         0.120891502118
    6         51.692153804000         0.284619082861
    7         20.315870490000         0.413808301565
    8          8.202194264600         0.267117237855
    9          1.968127627800         0.023736853118
   10          0.779047560000        -0.007862345118
   11          0.302295020400         0.003805239088
   12          0.112465336800        -0.001005217845
 S 12
    1      45069.464022000000         0.000058859502
    2       6755.976865600000         0.000456301944
    3       1537.650286400000         0.002370865695
    4        435.516976670000         0.009597137480
    5        142.286556380000         0.030726896224
    6         51.692153804000         0.072341404227
    7         20.315870490000         0.170286507950
    8          8.202194264600         0.109921578363
    9          1.968127627800        -0.377925888858
   10          0.779047560000        -0.545719998774
   11          0.302295020400        -0.214326110911
   12          0.112465336800        -0.002439396905
 S 12
    1      45069.464022000000        -0.000012943985
    2       6755.976865600000        -0.000100346846
    3       1537.650286400000        -0.000521384791
    4        435.516976670000        -0.002110537737
    5        142.286556380000        -0.006757251749
    6         51.692153804000        -0.015908833639
    7         20.315870490000        -0.042461786475
    8          8.202194264600        -0.027409491484
    9          1.968127627800         0.186887668541
   10          0.779047560000        -0.217288346709
   11          0.302295020400         1.268920969696
   12          0.112465336800        -1.774292556186
 S 12
    1      45069.464022000000        -0.000031836541
    2       6755.976865600000        -0.000246809355
    3       1537.650286400000        -0.001282378564
    4        435.516976670000        -0.005190999813
    5        142.286556380000        -0.016619884094
    6         51.692153804000        -0.039128773199
    7         20.315870490000        -0.079163810179
    8          8.202194264600        -0.051101000713
    9          1.968127627800        -0.163453118627
   10          0.779047560000         2.466340765640
   11          0.302295020400        -3.709645309713
   12          0.112465336800         1.576935403076
 S 12
    1      45069.464022000000        -0.000071066736
    2       6755.976865600000        -0.000550937213
    3       1537.650286400000        -0.002862574122
    4        435.516976670000        -0.011587546881
    5        142.286556380000        -0.037099536321
    6         51.692153804000        -0.087344733229
    7         20.315870490000        -0.304616294770
    8          8.202194264600        -0.196632747475
    9          1.968127627800         3.113865477998
   10          0.779047560000        -4.542232501047
   11          0.302295020400         2.794067115643
   12          0.112465336800        -0.823939475783
 S 12
    1      45069.464022000000         0.000771693258
    2       6755.976865600000         0.005982468790
    3       1537.650286400000         0.031083869363
    4        435.516976670000         0.125825840024
    5        142.286556380000         0.402853198339
    6         51.692153804000         0.948451345464
    7         20.315870490000        -1.059669440192
    8          8.202194264600        -0.684026813461
    9          1.968127627800         1.443376917995
   10          0.779047560000        -1.368298441272
   11          0.302295020400         0.741575509052
   12          0.112465336800        -0.221221843982
 P 7
    1         99.782996032000         0.006552916672
    2         23.176124101000         0.045859968395
    3          7.116394587200         0.173206972104
    4          2.441871143500         0.364529786323
    5          0.833896057700         0.439977541929
    6          0.266073113000         0.235739762959
    7          0.071067552400         0.009644120336
 P 7
    1         99.782996032000         0.001259004503
    2         23.176124101000         0.008811024097
    3          7.116394587200         0.033278060550
    4          2.441871143500         0.070036697450
    5          0.833896057700         0.025017924976
    6          0.266073113000         0.310650198098
    7          0.071067552400        -1.147973138411
 P 7
    1         99.782996032000         0.003442193033
    2         23.176124101000         0.024089862817
    3          7.116394587200         0.090984192597
    4          2.441871143500         0.191484487508
    5          0.833896057700         0.688050882568
    6          0.266073113000        -1.577228339998
    7          0.071067552400         0.638703024302
 P 7
    1         99.782996032000         0.014765663074
    2         23.176124101000         0.103336098379
    3          7.116394587200         0.390286634198
    4          2.441871143500         0.821393628910
    5          0.833896057700        -1.668611208581
    6          0.266073113000         0.925771297820
    7          0.071067552400        -0.265734571694
 D 3
    1          4.014000000000         0.019084272774
    2          1.096000000000        -0.023912565255
    3          0.230448083900         1.007652835378
 D 3
    1          4.014000000000         0.002356237788
    2          1.096000000000         1.079104530558
    3          0.230448083900        -0.396612916254
 D 3
    1          4.014000000000         1.170371222628
    2          1.096000000000        -0.654442466498
    3          0.230448083900         0.158211046247
 F 1
    1          2.544000000000         1.000000000000
 end
  // -----------------------------------------------
  // The basis set
  // -----------------------------------------------
  BAS[ATNO] = new BFNGauss[NSH];
  // Basis function   1 L = s
  InitBFNGauss(BAS[ATNO][  0]);
  BAS[ATNO][  0].l  = 0;
  BAS[ATNO][  0].ng = 12;
  BAS[ATNO][  0].a[  0] =     45069.464022000000;     BAS[ATNO][  0].d[  0] =         0.000231576062;
  BAS[ATNO][  0].a[  1] =      6755.976865600000;     BAS[ATNO][  0].d[  1] =         0.001795268454;
  BAS[ATNO][  0].a[  2] =      1537.650286400000;     BAS[ATNO][  0].d[  2] =         0.009327903252;
  BAS[ATNO][  0].a[  3] =       435.516976670000;     BAS[ATNO][  0].d[  3] =         0.037758853271;
  BAS[ATNO][  0].a[  4] =       142.286556380000;     BAS[ATNO][  0].d[  4] =         0.120891502118;
  BAS[ATNO][  0].a[  5] =        51.692153804000;     BAS[ATNO][  0].d[  5] =         0.284619082861;
  BAS[ATNO][  0].a[  6] =        20.315870490000;     BAS[ATNO][  0].d[  6] =         0.413808301565;
  BAS[ATNO][  0].a[  7] =         8.202194264600;     BAS[ATNO][  0].d[  7] =         0.267117237855;
  BAS[ATNO][  0].a[  8] =         1.968127627800;     BAS[ATNO][  0].d[  8] =         0.023736853118;
  BAS[ATNO][  0].a[  9] =         0.779047560000;     BAS[ATNO][  0].d[  9] =        -0.007862345118;
  BAS[ATNO][  0].a[ 10] =         0.302295020400;     BAS[ATNO][  0].d[ 10] =         0.003805239088;
  BAS[ATNO][  0].a[ 11] =         0.112465336800;     BAS[ATNO][  0].d[ 11] =        -0.001005217845;

  // Basis function   2 L = s
  InitBFNGauss(BAS[ATNO][  1]);
  BAS[ATNO][  1].l  = 0;
  BAS[ATNO][  1].ng = 12;
  BAS[ATNO][  1].a[  0] =     45069.464022000000;     BAS[ATNO][  1].d[  0] =        -0.000058859502;
  BAS[ATNO][  1].a[  1] =      6755.976865600000;     BAS[ATNO][  1].d[  1] =        -0.000456301944;
  BAS[ATNO][  1].a[  2] =      1537.650286400000;     BAS[ATNO][  1].d[  2] =        -0.002370865695;
  BAS[ATNO][  1].a[  3] =       435.516976670000;     BAS[ATNO][  1].d[  3] =        -0.009597137480;
  BAS[ATNO][  1].a[  4] =       142.286556380000;     BAS[ATNO][  1].d[  4] =        -0.030726896224;
  BAS[ATNO][  1].a[  5] =        51.692153804000;     BAS[ATNO][  1].d[  5] =        -0.072341404227;
  BAS[ATNO][  1].a[  6] =        20.315870490000;     BAS[ATNO][  1].d[  6] =        -0.170286507950;
  BAS[ATNO][  1].a[  7] =         8.202194264600;     BAS[ATNO][  1].d[  7] =        -0.109921578363;
  BAS[ATNO][  1].a[  8] =         1.968127627800;     BAS[ATNO][  1].d[  8] =         0.377925888858;
  BAS[ATNO][  1].a[  9] =         0.779047560000;     BAS[ATNO][  1].d[  9] =         0.545719998774;
  BAS[ATNO][  1].a[ 10] =         0.302295020400;     BAS[ATNO][  1].d[ 10] =         0.214326110911;
  BAS[ATNO][  1].a[ 11] =         0.112465336800;     BAS[ATNO][  1].d[ 11] =         0.002439396905;

  // Basis function   3 L = s
  InitBFNGauss(BAS[ATNO][  2]);
  BAS[ATNO][  2].l  = 0;
  BAS[ATNO][  2].ng = 12;
  BAS[ATNO][  2].a[  0] =     45069.464022000000;     BAS[ATNO][  2].d[  0] =         0.000012943985;
  BAS[ATNO][  2].a[  1] =      6755.976865600000;     BAS[ATNO][  2].d[  1] =         0.000100346846;
  BAS[ATNO][  2].a[  2] =      1537.650286400000;     BAS[ATNO][  2].d[  2] =         0.000521384791;
  BAS[ATNO][  2].a[  3] =       435.516976670000;     BAS[ATNO][  2].d[  3] =         0.002110537737;
  BAS[ATNO][  2].a[  4] =       142.286556380000;     BAS[ATNO][  2].d[  4] =         0.006757251749;
  BAS[ATNO][  2].a[  5] =        51.692153804000;     BAS[ATNO][  2].d[  5] =         0.015908833639;
  BAS[ATNO][  2].a[  6] =        20.315870490000;     BAS[ATNO][  2].d[  6] =         0.042461786475;
  BAS[ATNO][  2].a[  7] =         8.202194264600;     BAS[ATNO][  2].d[  7] =         0.027409491484;
  BAS[ATNO][  2].a[  8] =         1.968127627800;     BAS[ATNO][  2].d[  8] =        -0.186887668541;
  BAS[ATNO][  2].a[  9] =         0.779047560000;     BAS[ATNO][  2].d[  9] =         0.217288346709;
  BAS[ATNO][  2].a[ 10] =         0.302295020400;     BAS[ATNO][  2].d[ 10] =        -1.268920969696;
  BAS[ATNO][  2].a[ 11] =         0.112465336800;     BAS[ATNO][  2].d[ 11] =         1.774292556186;

  // Basis function   4 L = s
  InitBFNGauss(BAS[ATNO][  3]);
  BAS[ATNO][  3].l  = 0;
  BAS[ATNO][  3].ng = 12;
  BAS[ATNO][  3].a[  0] =     45069.464022000000;     BAS[ATNO][  3].d[  0] =         0.000031836541;
  BAS[ATNO][  3].a[  1] =      6755.976865600000;     BAS[ATNO][  3].d[  1] =         0.000246809355;
  BAS[ATNO][  3].a[  2] =      1537.650286400000;     BAS[ATNO][  3].d[  2] =         0.001282378564;
  BAS[ATNO][  3].a[  3] =       435.516976670000;     BAS[ATNO][  3].d[  3] =         0.005190999813;
  BAS[ATNO][  3].a[  4] =       142.286556380000;     BAS[ATNO][  3].d[  4] =         0.016619884094;
  BAS[ATNO][  3].a[  5] =        51.692153804000;     BAS[ATNO][  3].d[  5] =         0.039128773199;
  BAS[ATNO][  3].a[  6] =        20.315870490000;     BAS[ATNO][  3].d[  6] =         0.079163810179;
  BAS[ATNO][  3].a[  7] =         8.202194264600;     BAS[ATNO][  3].d[  7] =         0.051101000713;
  BAS[ATNO][  3].a[  8] =         1.968127627800;     BAS[ATNO][  3].d[  8] =         0.163453118627;
  BAS[ATNO][  3].a[  9] =         0.779047560000;     BAS[ATNO][  3].d[  9] =        -2.466340765640;
  BAS[ATNO][  3].a[ 10] =         0.302295020400;     BAS[ATNO][  3].d[ 10] =         3.709645309713;
  BAS[ATNO][  3].a[ 11] =         0.112465336800;     BAS[ATNO][  3].d[ 11] =        -1.576935403076;

  // Basis function   5 L = s
  InitBFNGauss(BAS[ATNO][  4]);
  BAS[ATNO][  4].l  = 0;
  BAS[ATNO][  4].ng = 12;
  BAS[ATNO][  4].a[  0] =     45069.464022000000;     BAS[ATNO][  4].d[  0] =         0.000071066736;
  BAS[ATNO][  4].a[  1] =      6755.976865600000;     BAS[ATNO][  4].d[  1] =         0.000550937213;
  BAS[ATNO][  4].a[  2] =      1537.650286400000;     BAS[ATNO][  4].d[  2] =         0.002862574122;
  BAS[ATNO][  4].a[  3] =       435.516976670000;     BAS[ATNO][  4].d[  3] =         0.011587546881;
  BAS[ATNO][  4].a[  4] =       142.286556380000;     BAS[ATNO][  4].d[  4] =         0.037099536321;
  BAS[ATNO][  4].a[  5] =        51.692153804000;     BAS[ATNO][  4].d[  5] =         0.087344733229;
  BAS[ATNO][  4].a[  6] =        20.315870490000;     BAS[ATNO][  4].d[  6] =         0.304616294770;
  BAS[ATNO][  4].a[  7] =         8.202194264600;     BAS[ATNO][  4].d[  7] =         0.196632747475;
  BAS[ATNO][  4].a[  8] =         1.968127627800;     BAS[ATNO][  4].d[  8] =        -3.113865477998;
  BAS[ATNO][  4].a[  9] =         0.779047560000;     BAS[ATNO][  4].d[  9] =         4.542232501047;
  BAS[ATNO][  4].a[ 10] =         0.302295020400;     BAS[ATNO][  4].d[ 10] =        -2.794067115643;
  BAS[ATNO][  4].a[ 11] =         0.112465336800;     BAS[ATNO][  4].d[ 11] =         0.823939475783;

  // Basis function   6 L = s
  InitBFNGauss(BAS[ATNO][  5]);
  BAS[ATNO][  5].l  = 0;
  BAS[ATNO][  5].ng = 12;
  BAS[ATNO][  5].a[  0] =     45069.464022000000;     BAS[ATNO][  5].d[  0] =         0.000771693258;
  BAS[ATNO][  5].a[  1] =      6755.976865600000;     BAS[ATNO][  5].d[  1] =         0.005982468790;
  BAS[ATNO][  5].a[  2] =      1537.650286400000;     BAS[ATNO][  5].d[  2] =         0.031083869363;
  BAS[ATNO][  5].a[  3] =       435.516976670000;     BAS[ATNO][  5].d[  3] =         0.125825840024;
  BAS[ATNO][  5].a[  4] =       142.286556380000;     BAS[ATNO][  5].d[  4] =         0.402853198339;
  BAS[ATNO][  5].a[  5] =        51.692153804000;     BAS[ATNO][  5].d[  5] =         0.948451345464;
  BAS[ATNO][  5].a[  6] =        20.315870490000;     BAS[ATNO][  5].d[  6] =        -1.059669440192;
  BAS[ATNO][  5].a[  7] =         8.202194264600;     BAS[ATNO][  5].d[  7] =        -0.684026813461;
  BAS[ATNO][  5].a[  8] =         1.968127627800;     BAS[ATNO][  5].d[  8] =         1.443376917995;
  BAS[ATNO][  5].a[  9] =         0.779047560000;     BAS[ATNO][  5].d[  9] =        -1.368298441272;
  BAS[ATNO][  5].a[ 10] =         0.302295020400;     BAS[ATNO][  5].d[ 10] =         0.741575509052;
  BAS[ATNO][  5].a[ 11] =         0.112465336800;     BAS[ATNO][  5].d[ 11] =        -0.221221843982;

  // Basis function   7 L = p
  InitBFNGauss(BAS[ATNO][  6]);
  BAS[ATNO][  6].l  = 1;
  BAS[ATNO][  6].ng = 7;
  BAS[ATNO][  6].a[  0] =        99.782996032000;     BAS[ATNO][  6].d[  0] =         0.006552916672;
  BAS[ATNO][  6].a[  1] =        23.176124101000;     BAS[ATNO][  6].d[  1] =         0.045859968395;
  BAS[ATNO][  6].a[  2] =         7.116394587200;     BAS[ATNO][  6].d[  2] =         0.173206972104;
  BAS[ATNO][  6].a[  3] =         2.441871143500;     BAS[ATNO][  6].d[  3] =         0.364529786323;
  BAS[ATNO][  6].a[  4] =         0.833896057700;     BAS[ATNO][  6].d[  4] =         0.439977541929;
  BAS[ATNO][  6].a[  5] =         0.266073113000;     BAS[ATNO][  6].d[  5] =         0.235739762959;
  BAS[ATNO][  6].a[  6] =         0.071067552400;     BAS[ATNO][  6].d[  6] =         0.009644120336;

  // Basis function   8 L = p
  InitBFNGauss(BAS[ATNO][  7]);
  BAS[ATNO][  7].l  = 1;
  BAS[ATNO][  7].ng = 7;
  BAS[ATNO][  7].a[  0] =        99.782996032000;     BAS[ATNO][  7].d[  0] =        -0.001259004503;
  BAS[ATNO][  7].a[  1] =        23.176124101000;     BAS[ATNO][  7].d[  1] =        -0.008811024097;
  BAS[ATNO][  7].a[  2] =         7.116394587200;     BAS[ATNO][  7].d[  2] =        -0.033278060550;
  BAS[ATNO][  7].a[  3] =         2.441871143500;     BAS[ATNO][  7].d[  3] =        -0.070036697450;
  BAS[ATNO][  7].a[  4] =         0.833896057700;     BAS[ATNO][  7].d[  4] =        -0.025017924976;
  BAS[ATNO][  7].a[  5] =         0.266073113000;     BAS[ATNO][  7].d[  5] =        -0.310650198098;
  BAS[ATNO][  7].a[  6] =         0.071067552400;     BAS[ATNO][  7].d[  6] =         1.147973138411;

  // Basis function   9 L = p
  InitBFNGauss(BAS[ATNO][  8]);
  BAS[ATNO][  8].l  = 1;
  BAS[ATNO][  8].ng = 7;
  BAS[ATNO][  8].a[  0] =        99.782996032000;     BAS[ATNO][  8].d[  0] =        -0.003442193033;
  BAS[ATNO][  8].a[  1] =        23.176124101000;     BAS[ATNO][  8].d[  1] =        -0.024089862817;
  BAS[ATNO][  8].a[  2] =         7.116394587200;     BAS[ATNO][  8].d[  2] =        -0.090984192597;
  BAS[ATNO][  8].a[  3] =         2.441871143500;     BAS[ATNO][  8].d[  3] =        -0.191484487508;
  BAS[ATNO][  8].a[  4] =         0.833896057700;     BAS[ATNO][  8].d[  4] =        -0.688050882568;
  BAS[ATNO][  8].a[  5] =         0.266073113000;     BAS[ATNO][  8].d[  5] =         1.577228339998;
  BAS[ATNO][  8].a[  6] =         0.071067552400;     BAS[ATNO][  8].d[  6] =        -0.638703024302;

  // Basis function  10 L = p
  InitBFNGauss(BAS[ATNO][  9]);
  BAS[ATNO][  9].l  = 1;
  BAS[ATNO][  9].ng = 7;
  BAS[ATNO][  9].a[  0] =        99.782996032000;     BAS[ATNO][  9].d[  0] =        -0.014765663074;
  BAS[ATNO][  9].a[  1] =        23.176124101000;     BAS[ATNO][  9].d[  1] =        -0.103336098379;
  BAS[ATNO][  9].a[  2] =         7.116394587200;     BAS[ATNO][  9].d[  2] =        -0.390286634198;
  BAS[ATNO][  9].a[  3] =         2.441871143500;     BAS[ATNO][  9].d[  3] =        -0.821393628910;
  BAS[ATNO][  9].a[  4] =         0.833896057700;     BAS[ATNO][  9].d[  4] =         1.668611208581;
  BAS[ATNO][  9].a[  5] =         0.266073113000;     BAS[ATNO][  9].d[  5] =        -0.925771297820;
  BAS[ATNO][  9].a[  6] =         0.071067552400;     BAS[ATNO][  9].d[  6] =         0.265734571694;

  // Basis function  11 L = d
  InitBFNGauss(BAS[ATNO][ 10]);
  BAS[ATNO][ 10].l  = 2;
  BAS[ATNO][ 10].ng = 3;
  BAS[ATNO][ 10].a[  0] =         4.014000000000;     BAS[ATNO][ 10].d[  0] =         0.019084272774;
  BAS[ATNO][ 10].a[  1] =         1.096000000000;     BAS[ATNO][ 10].d[  1] =        -0.023912565255;
  BAS[ATNO][ 10].a[  2] =         0.230448083900;     BAS[ATNO][ 10].d[  2] =         1.007652835378;

  // Basis function  12 L = d
  InitBFNGauss(BAS[ATNO][ 11]);
  BAS[ATNO][ 11].l  = 2;
  BAS[ATNO][ 11].ng = 3;
  BAS[ATNO][ 11].a[  0] =         4.014000000000;     BAS[ATNO][ 11].d[  0] =         0.002356237788;
  BAS[ATNO][ 11].a[  1] =         1.096000000000;     BAS[ATNO][ 11].d[  1] =         1.079104530558;
  BAS[ATNO][ 11].a[  2] =         0.230448083900;     BAS[ATNO][ 11].d[  2] =        -0.396612916254;

  // Basis function  13 L = d
  InitBFNGauss(BAS[ATNO][ 12]);
  BAS[ATNO][ 12].l  = 2;
  BAS[ATNO][ 12].ng = 3;
  BAS[ATNO][ 12].a[  0] =         4.014000000000;     BAS[ATNO][ 12].d[  0] =         1.170371222628;
  BAS[ATNO][ 12].a[  1] =         1.096000000000;     BAS[ATNO][ 12].d[  1] =        -0.654442466498;
  BAS[ATNO][ 12].a[  2] =         0.230448083900;     BAS[ATNO][ 12].d[  2] =         0.158211046247;

  // Basis function  14 L = f
  InitBFNGauss(BAS[ATNO][ 13]);
  BAS[ATNO][ 13].l  = 3;
  BAS[ATNO][ 13].ng = 1;
  BAS[ATNO][ 13].a[  0] =         2.544000000000;     BAS[ATNO][ 13].d[  0] =         1.000000000000;

-------------------------------------------
RADIAL EXPECTATION VALUES <R**-3> TO <R**3>
-------------------------------------------
   0 :     0.000000   186.989451     9.616953     0.157638     0.033474     0.008985
   1 :     0.000000    11.175763     1.633344     0.892230     0.967436     1.242698
   2 :     0.000000     0.643291     0.370309     3.255475    11.437186    42.664356
   3 :     0.000000     3.027586     0.701065     2.264949     6.569649    22.906439
   4 :     0.000000    16.910168     1.757652     1.230284     2.414078     6.745415
   5 :     0.000000   452.910621    12.568207     0.255243     0.217840     0.484275
   6 :    10.797671     3.054217     1.434852     0.965890     1.230933     1.987322
   7 :    10.797671     3.054217     1.434852     0.965890     1.230933     1.987322
   8 :    10.797671     3.054217     1.434852     0.965890     1.230933     1.987322
   9 :     0.355605     0.145981     0.270393     4.353327    20.451981   102.223172
  10 :     0.355605     0.145981     0.270393     4.353327    20.451981   102.223172
  11 :     0.355605     0.145981     0.270393     4.353327    20.451981   102.223172
  12 :     3.104442     0.945840     0.656927     2.422562     7.796129    31.585780
  13 :     3.104442     0.945840     0.656927     2.422562     7.796129    31.585780
  14 :     3.104442     0.945840     0.656927     2.422562     7.796129    31.585780
  15 :    27.649394     5.317345     1.696960     1.148535     2.274315     6.925117
  16 :    27.649394     5.317345     1.696960     1.148535     2.274315     6.925117
  17 :    27.649394     5.317345     1.696960     1.148535     2.274315     6.925117
  18 :     0.095010     0.182334     0.405682     2.674260     7.665159   116.755616
  19 :     0.095010     0.182334     0.405682     2.674260     7.665159   116.755616
  20 :     0.095010     0.182334     0.405682     2.674260     7.665159   116.755616
  21 :     0.095010     0.182334     0.405682     2.674260     7.665159   116.755616
  22 :     0.095010     0.182334     0.405682     2.674260     7.665159   116.755616
  23 :     1.011502     0.883017     0.880421     1.332015     2.200050    23.453051
  24 :     1.011502     0.883017     0.880421     1.332015     2.200050    23.453051
  25 :     1.011502     0.883017     0.880421     1.332015     2.200050    23.453051
  26 :     1.011502     0.883017     0.880421     1.332015     2.200050    23.453051
  27 :     1.011502     0.883017     0.880421     1.332015     2.200050    23.453051
  28 :     7.151883     3.207008     1.657276     0.745763     0.757374     5.669916
  29 :     7.151883     3.207008     1.657276     0.745763     0.757374     5.669916
  30 :     7.151883     3.207008     1.657276     0.745763     0.757374     5.669916
  31 :     7.151883     3.207008     1.657276     0.745763     0.757374     5.669916
  32 :     7.151883     3.207008     1.657276     0.745763     0.757374     5.669916
  33 :     1.973360     1.453714     1.163538     0.914731     0.884434     6.292372
  34 :     1.973360     1.453714     1.163538     0.914731     0.884434     6.292372
  35 :     1.973360     1.453714     1.163538     0.914731     0.884434     6.292372
  36 :     1.973360     1.453714     1.163538     0.914731     0.884434     6.292372
  37 :     1.973360     1.453714     1.163538     0.914731     0.884434     6.292372
  38 :     1.973360     1.453714     1.163538     0.914731     0.884434     6.292372
  39 :     1.973360     1.453714     1.163538     0.914731     0.884434     6.292372
-------
TIMINGS
-------

Total SCF time: 0 days 0 hours 0 min 1 sec 

Total time                  ....       1.741 sec
Sum of individual times     ....       1.398 sec  ( 80.3%)

Fock matrix formation       ....       1.112 sec  ( 63.9%)
Diagonalization             ....       0.015 sec  (  0.9%)
Density matrix formation    ....       0.001 sec  (  0.1%)
Population analysis         ....       0.011 sec  (  0.6%)
Initial guess               ....       0.103 sec  (  5.9%)
Orbital Transformation      ....       0.000 sec  (  0.0%)
Orbital Orthonormalization  ....       0.000 sec  (  0.0%)
DIIS solution               ....       0.120 sec  (  6.9%)
SOSCF solution              ....       0.011 sec  (  0.6%)


           ************************************************************
           *        Program running with 10 parallel MPI-processes    *
           *              working on a common directory               *
           ************************************************************


------------------------------------------------------------------------------- 
                              ORCA-MATRIX DRIVEN CI                            
------------------------------------------------------------------------------- 

--------------------------------
AUTOMATIC CHOICE OF INCORE LEVEL
--------------------------------

Memory available                           ...   2500.00 MB
Memory needed for S+T                      ...      0.28 MB
Memory needed for J+K                      ...      0.57 MB
Memory needed for DIIS                     ...      3.93 MB
Memory needed for 3-ext                    ...      1.31 MB
Memory needed for 4-ext                    ...      5.89 MB
Memory needed for triples                  ...      1.64 MB
 -> Final InCoreLevel    ... 5
 -> check shows that triples correction can be computed


Wavefunction type
-----------------
Correlation treatment                      ...      CCSD     
Single excitations                         ... ON
Orbital optimization                       ... OFF
Calculation of Z vector                    ... OFF
Calculation of Brueckner orbitals          ... OFF
Perturbative triple excitations            ... ON
Calculation of F12 correction              ... OFF
Frozen core treatment                      ... chemical core (2 el)
Reference Wavefunction                     ... RHF
  Internal Orbitals:     1 ...    4 (  4 MO's/  8 electrons)
  Virtual  Orbitals:     5 ...   39 ( 35 MO's              )
Number of AO's                             ...     40
Number of electrons                        ...     10
Number of correlated electrons             ...      8

Algorithmic settings
--------------------
Integral transformation                    ... AO direct full transformation
K(C) Formation                             ... FULL-MO TRAFO
Maximum number of iterations               ...        50
Convergence tolerance (max. residuum)      ... 1.000e-05
Level shift for amplitude update           ... 2.000e-01
Maximum number of DIIS vectors             ...         7
DIIS turned on at iteration                ...         0
Damping before turning on DIIS             ...     0.500
Damping after turning on DIIS              ...     0.000
Pair specific amplitude update             ... OFF
Natural orbital iterations                 ... OFF
Perturbative natural orbital generation    ... OFF
Printlevel                                 ... 2

Memory handling:
----------------
Maximum memory for working arrays          ...   2500 MB
Data storage in matrix containers          ... UNCOMPRESSED
Data type for integral storage             ... DOUBLE
In-Core Storage of quantities:
   Amplitudes+Sigma Vector      ... YES
   J+K operators                ... YES
   DIIS vectors                 ... YES
   3-external integrals         ... YES
   4-external integrals         ... YES


Initializing the integral package          ... done
Warning: reference  - re-canonicalizations have been set to INT 1 VIRT 1

--------------------------
CLOSED-SHELL FOCK OPERATOR
--------------------------

<ss|ss>:          231 b            0 skpd (  0.0%)    0.000 s ( 0.000 ms/b)
<ss|sp>:          504 b            0 skpd (  0.0%)    0.000 s ( 0.000 ms/b)
<ss|sd>:          378 b            0 skpd (  0.0%)    0.000 s ( 0.000 ms/b)
<ss|sf>:          126 b            0 skpd (  0.0%)    0.000 s ( 0.000 ms/b)
<ss|pp>:          210 b            0 skpd (  0.0%)    0.000 s ( 0.001 ms/b)
<ss|pd>:          252 b            0 skpd (  0.0%)    0.000 s ( 0.000 ms/b)
<ss|pf>:           84 b            0 skpd (  0.0%)    0.000 s ( 0.001 ms/b)
<ss|dd>:          126 b            0 skpd (  0.0%)    0.000 s ( 0.000 ms/b)
<ss|df>:           63 b            0 skpd (  0.0%)    0.000 s ( 0.001 ms/b)
<ss|ff>:           21 b            0 skpd (  0.0%)    0.000 s ( 0.003 ms/b)
<sp|sp>:          300 b            0 skpd (  0.0%)    0.000 s ( 0.001 ms/b)
<sp|sd>:          432 b            0 skpd (  0.0%)    0.000 s ( 0.000 ms/b)
<sp|sf>:          144 b            0 skpd (  0.0%)    0.000 s ( 0.001 ms/b)
<sp|pp>:          240 b            0 skpd (  0.0%)    0.000 s ( 0.001 ms/b)
<sp|pd>:          288 b            0 skpd (  0.0%)    0.000 s ( 0.001 ms/b)
<sp|pf>:           96 b            0 skpd (  0.0%)    0.000 s ( 0.002 ms/b)
<sp|dd>: done
<sp|df>: done
<sp|ff>: done
<sd|sd>:          171 b            0 skpd (  0.0%)    0.000 s ( 0.000 ms/b)
<sd|sf>:          108 b            0 skpd (  0.0%)    0.000 s ( 0.001 ms/b)
<sd|pp>:          180 b            0 skpd (  0.0%)    0.000 s ( 0.001 ms/b)
<sd|pd>: done
<sd|pf>: done
<sd|dd>: done
<sd|df>: done
<sd|ff>: done
<sf|sf>:           21 b            0 skpd (  0.0%)    0.000 s ( 0.001 ms/b)
<sf|pp>:           60 b            0 skpd (  0.0%)    0.000 s ( 0.002 ms/b)
<sf|pd>: done
<sf|pf>: done
<sf|dd>: done
<sf|df>: done
<sf|ff>: done
<pp|pp>:           55 b            0 skpd (  0.0%)    0.000 s ( 0.003 ms/b)
<pp|pd>:          120 b            0 skpd (  0.0%)    0.000 s ( 0.002 ms/b)
<pp|pf>:           40 b            0 skpd (  0.0%)    0.000 s ( 0.004 ms/b)
<pp|dd>:           60 b            0 skpd (  0.0%)    0.000 s ( 0.001 ms/b)
<pp|df>:           30 b            0 skpd (  0.0%)    0.000 s ( 0.005 ms/b)
<pp|ff>:           10 b            0 skpd (  0.0%)    0.000 s ( 0.020 ms/b)
<pd|pd>:           78 b            0 skpd (  0.0%)    0.000 s ( 0.003 ms/b)
<pd|pf>:           48 b            0 skpd (  0.0%)    0.000 s ( 0.005 ms/b)
<pd|dd>: done
<pd|df>: done
<pd|ff>: done
<pf|pf>:           10 b            0 skpd (  0.0%)    0.000 s ( 0.015 ms/b)
<pf|dd>: done
<pf|df>: done
<pf|ff>: done
<dd|dd>: done
<dd|df>: done
<dd|ff>: done
<df|df>: done
<df|ff>: done
<ff|ff>: done
Recanonicalizing the internal orbitals
Recanonicalizing the virtual orbitals
Time needed for Fock operator              ...            0.215 sec
Reference energy                           ...   -128.541802525

------------------------------
PARTIAL COULOMB TRANSFORMATION
------------------------------

Transformation type                        ... one-operator
Dimension of the basis                     ...   40
Number of internal MOs                     ...   39 (1-39)
Pair cutoff                                ... 0.000e+00 Eh
Number of AO pairs included in the trafo   ...  820
Total Number of distinct AO pairs          ...  820
Memory devoted for trafo                   ... 2500.0 MB 
Max. Number of MO pairs treated together   ... 399609      
Max. Number of MOs treated per batch       ... 9990      
Number Format for Storage                  ... Double (8 Byte)
AO-integral source                         ... DIRECT
Integral package used                      ... LIBINT

Starting integral evaluation:
<ss|**>: <sp|**>:         2205 b        0 skpd     0.011 s (  0.005 ms/b)
<sd|**>:         2520 b        0 skpd     0.007 s (  0.003 ms/b)
<sf|**>:         1890 b        0 skpd     0.009 s (  0.005 ms/b)
<pp|**>:          630 b        0 skpd     0.006 s (  0.009 ms/b)
        1050 b        0 skpd     0.008 s (  0.007 ms/b)
<pd|**>:         1260 b        0 skpd     0.024 s (  0.019 ms/b)
<pf|**>:          420 b        0 skpd     0.013 s (  0.032 ms/b)
<dd|**>:          630 b        0 skpd     0.015 s (  0.024 ms/b)
<df|**>:          315 b        0 skpd     0.019 s (  0.060 ms/b)
<ff|**>:          105 b        0 skpd     0.014 s (  0.131 ms/b)
Closing buffer AOJ ( 0.00 GB; CompressionRatio= 1.00)
Collecting buffer AOJ 
    ... done with AO integral generation
Number of MO pairs included in the trafo   ...  780
    ... Now sorting integrals
IBATCH = 1 of  1
Closing buffer JAO ( 0.00 GB; CompressionRatio= 1.00)
Collecting buffer JAO 
TOTAL TIME for half transformation         ...     0.235 sec
AO-integral generation                     ...     0.081 sec
Half transformation                        ...     0.047 sec
J-integral sorting                         ...     0.096 sec

-------------------------- SECOND HALF TRANSFORMATION -------------------------
Formation of (pq|rs)                       ... ok (     0.113 sec)
Integral sorting                           ... ok (     0.072 sec)

------------------
CLOSED SHELL GUESS
------------------

Initial guess performed in     0.001 sec
E(0)                                       ...   -128.541802525
E(MP2)                                     ...     -0.263888018
Initial E(tot)                             ...   -128.805690543
<T|T>                                      ...      0.034981219
Number of pairs included                   ... 10
Total number of pairs                      ... 10

------------------------------------------------
                  RHF COUPLED CLUSTER ITERATIONS
------------------------------------------------

Number of amplitudes to be optimized       ... 12390

Iter       E(tot)           E(Corr)          Delta-E          Residual     Time
  0   -128.805690543     -0.263888018      0.000000000      0.017150271    0.01
                           *** Turning on DIIS ***
  1   -128.805132323     -0.263329798      0.000558220      0.004196324    0.01
  2   -128.807899562     -0.266097037     -0.002767239      0.001228101    0.01
  3   -128.808145276     -0.266342751     -0.000245714      0.000256878    0.01
  4   -128.808236616     -0.266434091     -0.000091340      0.000119409    0.01
  5   -128.808243801     -0.266441276     -0.000007185      0.000030567    0.01
  6   -128.808245548     -0.266443023     -0.000001747      0.000006383    0.01
               --- The Coupled-Cluster iterations have converged ---

----------------------
COUPLED CLUSTER ENERGY
----------------------

E(0)                                       ...   -128.541802525
E(CORR)                                    ...     -0.266443023
E(TOT)                                     ...   -128.808245548
Singles Norm <S|S>**1/2                    ...      0.021690832  
T1 diagnostic                              ...      0.007668867  

------------------
LARGEST AMPLITUDES
------------------
   3-> 14   3-> 14       0.027034
   2-> 15   2-> 15       0.026984
   4-> 16   4-> 16       0.026983
   3-> 14   2-> 15       0.019462
   4-> 16   3-> 14       0.019462
   4-> 16   2-> 15       0.019431
   4-> 25   4-> 25       0.017088
   2-> 24   2-> 24       0.016030
   3-> 23   3-> 23       0.015909
   4-> 19   4-> 19       0.015609
   4-> 25   4-> 16       0.014534
   4-> 16   4-> 25       0.014534
   3-> 14   1-> 17       0.014239
   2-> 15   1-> 17       0.014224
   4-> 16   1-> 17       0.014223
   2-> 15   2-> 24       0.014006


        !!!!!!!!!!!!!!!!!!!!!!!!!!!!!!!!!!!!!!!!!!!!!!!!!!!!!!!!!!!!!!!!!!!!!!!!!! 
        !  Warning: Densities are linearized densities !                         !
        !!!!!!!!!!!!!!!!!!!!!!!!!!!!!!!!!!!!!!!!!!!!!!!!!!!!!!!!!!!!!!!!!!!!!!!!!! 

Trace of internal density part =     -0.071351794
Trace of external density part =      0.071351794
----------------------
RHF TRIPLES CORRECTION (Algorithm 1)
----------------------

Multiplier for the singles contribution    ...      1.000000000

10% done
20% done
30% done
40% done
50% done
60% done
70% done
80% done
90% done

Triples Correction (T)                     ...     -0.004434027
Scaling of triples based on CCSD energies (Peterson et al. Molecular Physics 113, 1551 (2015))
E(T*) = f*E(T) where f = E(F12-CCSD)/E(CCSD) 
f = CCSD (with F12)/ CCSD (without F12)    ...      1.000000000
Scaled triples correction (T)              ...     -0.004434027

Final correlation energy                   ...     -0.270877049
E(CCSD)                                    ...   -128.808245548
E(CCSD(T))                                 ...   -128.812679575

NORM  =      1.036146389 sqrt=     1.017912761
W(HF) =      0.965114592
------------------------------------------------------------------------------
                           ORCA POPULATION ANALYSIS
------------------------------------------------------------------------------
Input electron density              ... 10_Ne.mdcip
BaseName (.gbw .S,...)              ... 10_Ne

                    ********************************
                    * MULLIKEN POPULATION ANALYSIS *
                    ********************************

-----------------------
MULLIKEN ATOMIC CHARGES
-----------------------
   0 Ne:   -0.000000
Sum of atomic charges:   -0.0000000

--------------------------------
MULLIKEN REDUCED ORBITAL CHARGES
--------------------------------
  0 Nes       :     3.998048  s :     3.998048
      pz      :     1.992573  p :     5.977719
      px      :     1.992573
      py      :     1.992573
      dz2     :     0.004457  d :     0.022283
      dxz     :     0.004457
      dyz     :     0.004457
      dx2y2   :     0.004457
      dxy     :     0.004457
      f0      :     0.000279  f :     0.001950
      f+1     :     0.000279
      f-1     :     0.000279
      f+2     :     0.000279
      f-2     :     0.000279
      f+3     :     0.000279
      f-3     :     0.000279


                     *******************************
                     * LOEWDIN POPULATION ANALYSIS *
                     *******************************

----------------------
LOEWDIN ATOMIC CHARGES
----------------------
   0 Ne:   -0.000000

-------------------------------
LOEWDIN REDUCED ORBITAL CHARGES
-------------------------------
  0 Nes       :     3.998048  s :     3.998048
      pz      :     1.992573  p :     5.977719
      px      :     1.992573
      py      :     1.992573
      dz2     :     0.004457  d :     0.022283
      dxz     :     0.004457
      dyz     :     0.004457
      dx2y2   :     0.004457
      dxy     :     0.004457
      f0      :     0.000279  f :     0.001950
      f+1     :     0.000279
      f-1     :     0.000279
      f+2     :     0.000279
      f-2     :     0.000279
      f+3     :     0.000279
      f-3     :     0.000279


                      *****************************
                      * MAYER POPULATION ANALYSIS *
                      *****************************

  NA   - Mulliken gross atomic population
  ZA   - Total nuclear charge
  QA   - Mulliken gross atomic charge
  VA   - Mayer's total valence
  BVA  - Mayer's bonded valence
  FA   - Mayer's free valence

  ATOM       NA         ZA         QA         VA         BVA        FA
  0 Ne    10.0000    10.0000    -0.0000     0.2802     0.0000     0.2802





------------------------------------------------------------------------------- 
                                     TIMINGS                                   
------------------------------------------------------------------------------- 


Total execution time                   ...        0.855 sec

Fock Matrix Formation                  ...        0.215 sec ( 25.1%)
Initial Guess                          ...        0.001 sec (  0.1%)
DIIS Solver                            ...        0.004 sec (  0.5%)
State Vector Update                    ...        0.000 sec (  0.0%)
Sigma-vector construction              ...        0.068 sec (  7.9%)
  <D|H|D>(4-ext)                       ...        0.011 sec ( 16.2% of sigma)
  <D|H|D>(4-ext-corr)                  ...        0.006 sec (  8.3% of sigma)
  <S|H|D>(3-ext)                       ...        0.006 sec (  9.3% of sigma)
  Fock-dressing                        ...        0.018 sec ( 27.3% of sigma)
  (ij|ab),(ia|jb)-dressing             ...        0.016 sec ( 23.4% of sigma)
Total Time for computing (T)           ...        0.002 sec (  0.2% of ALL)


-------------------------   --------------------
FINAL SINGLE POINT ENERGY      -128.812679574537
-------------------------   --------------------


                            ***************************************
                            *     ORCA property calculations      *
                            ***************************************

                                    ---------------------
                                    Active property flags
                                    ---------------------
   (+) Dipole Moment


------------------------------------------------------------------------------
                       ORCA ELECTRIC PROPERTIES CALCULATION
------------------------------------------------------------------------------

Dipole Moment Calculation                       ... on
Quadrupole Moment Calculation                   ... off
Polarizability Calculation                      ... off
GBWName                                         ... 10_Ne.gbw
Electron density file                           ... 10_Ne.scfp
The origin for moment calculation is the CENTER OF MASS  = ( 0.000000,  0.000000  0.000000)

-------------
DIPOLE MOMENT
-------------
                                X             Y             Z
Electronic contribution:     -0.00000      -0.00000       0.00000
Nuclear contribution   :      0.00000       0.00000       0.00000
                        -----------------------------------------
Total Dipole Moment    :     -0.00000      -0.00000       0.00000
                        -----------------------------------------
Magnitude (a.u.)       :      0.00000
Magnitude (Debye)      :      0.00000



--------------------
Rotational spectrum 
--------------------
 
Rotational constants in cm-1:     0.000000     0.000000     0.000000 
Rotational constants in MHz :     0.000000     0.000000     0.000000 

 Dipole components along the rotational axes: 
x,y,z [a.u.] :    -0.000000    -0.000000     0.000000 
x,y,z [Debye]:    -0.000000    -0.000000     0.000000 

 

                           *** MDCI DENSITY ***

------------------------------------------------------------------------------
                       ORCA ELECTRIC PROPERTIES CALCULATION
------------------------------------------------------------------------------

Dipole Moment Calculation                       ... on
Quadrupole Moment Calculation                   ... off
Polarizability Calculation                      ... off
GBWName                                         ... 10_Ne.gbw
Electron density file                           ... 10_Ne.mdcip
The origin for moment calculation is the CENTER OF MASS  = ( 0.000000,  0.000000  0.000000)

-------------
DIPOLE MOMENT
-------------
                                X             Y             Z
Electronic contribution:      0.00000      -0.00000      -0.00000
Nuclear contribution   :      0.00000       0.00000       0.00000
                        -----------------------------------------
Total Dipole Moment    :      0.00000      -0.00000      -0.00000
                        -----------------------------------------
Magnitude (a.u.)       :      0.00000
Magnitude (Debye)      :      0.00000



--------------------
Rotational spectrum 
--------------------
 
Rotational constants in cm-1:     0.000000     0.000000     0.000000 
Rotational constants in MHz :     0.000000     0.000000     0.000000 

 Dipole components along the rotational axes: 
x,y,z [a.u.] :     0.000000    -0.000000    -0.000000 
x,y,z [Debye]:     0.000000    -0.000000    -0.000000 

 

Timings for individual modules:

Sum of individual times         ...        3.809 sec (=   0.063 min)
GTO integral calculation        ...        0.580 sec (=   0.010 min)  15.2 %
SCF iterations                  ...        2.049 sec (=   0.034 min)  53.8 %
MDCI module                     ...        1.181 sec (=   0.020 min)  31.0 %
                             ****ORCA TERMINATED NORMALLY****
TOTAL RUN TIME: 0 days 0 hours 0 minutes 4 seconds 366 msec
