
                                 *****************
                                 * O   R   C   A *
                                 *****************

           --- An Ab Initio, DFT and Semiempirical electronic structure package ---

                  #######################################################
                  #                        -***-                        #
                  #          Department of theory and spectroscopy      #
                  #               Directorship: Frank Neese             #
                  #        Max Planck Institute fuer Kohlenforschung    #
                  #                Kaiser Wilhelm Platz 1               #
                  #                 D-45470 Muelheim/Ruhr               #
                  #                      Germany                        #
                  #                                                     #
                  #                  All rights reserved                #
                  #                        -***-                        #
                  #######################################################


                         Program Version 4.2.0 -  RELEASE  -


 With contributions from (in alphabetic order):
   Daniel Aravena         : Magnetic Suceptibility
   Michael Atanasov       : Ab Initio Ligand Field Theory (pilot matlab implementation)
   Alexander A. Auer      : GIAO ZORA, VPT2
   Ute Becker             : Parallelization
   Giovanni Bistoni       : ED, misc. LED, open-shell LED, HFLED
   Martin Brehm           : Molecular dynamics
   Dmytro Bykov           : SCF Hessian
   Vijay G. Chilkuri      : MRCI spin determinant printing, contributions to CSF-ICE
   Dipayan Datta          : RHF DLPNO-CCSD density
   Achintya Kumar Dutta   : EOM-CC, STEOM-CC
   Dmitry Ganyushin       : Spin-Orbit,Spin-Spin,Magnetic field MRCI
   Miquel Garcia          : C-PCM Hessian, Gaussian charge scheme
   Yang Guo               : DLPNO-NEVPT2, CIM, IAO-localization
   Andreas Hansen         : Spin unrestricted coupled pair/coupled cluster methods
   Benjamin Helmich-Paris : CASSCF linear response (MC-RPA)
   Lee Huntington         : MR-EOM, pCC
   Robert Izsak           : Overlap fitted RIJCOSX, COSX-SCS-MP3, EOM
   Christian Kollmar      : KDIIS, OOCD, Brueckner-CCSD(T), CCSD density
   Simone Kossmann        : Meta GGA functionals, TD-DFT gradient, OOMP2, MP2 Hessian
   Martin Krupicka        : AUTO-CI
   Lucas Lang             : DCDCAS
   Dagmar Lenk            : GEPOL surface, SMD
   Dimitrios Liakos       : Extrapolation schemes; Compound Job, initial MDCI parallelization
   Dimitrios Manganas     : Further ROCIS development; embedding schemes
   Dimitrios Pantazis     : SARC Basis sets
   Taras Petrenko         : DFT Hessian,TD-DFT gradient, ASA, ECA, R-Raman, ABS, FL, XAS/XES, NRVS
   Peter Pinski           : DLPNO-MP2, DLPNO-MP2 Gradient
   Christoph Reimann      : Effective Core Potentials
   Marius Retegan         : Local ZFS, SOC
   Christoph Riplinger    : Optimizer, TS searches, QM/MM, DLPNO-CCSD(T), (RO)-DLPNO pert. Triples
   Tobias Risthaus        : Range-separated hybrids, TD-DFT gradient, RPA, STAB
   Michael Roemelt        : Original ROCIS implementation
   Masaaki Saitow         : Open-shell DLPNO-CCSD energy and density
   Barbara Sandhoefer     : DKH picture change effects
   Avijit Sen             : IP-ROCIS
   Kantharuban Sivalingam : CASSCF convergence, NEVPT2, FIC-MRCI
   Bernardo de Souza      : ESD, SOC TD-DFT
   Georgi Stoychev        : AutoAux, RI-MP2 NMR
   Willem Van den Heuvel  : Paramagnetic NMR
   Boris Wezisla          : Elementary symmetry handling
   Frank Wennmohs         : Technical directorship


 We gratefully acknowledge several colleagues who have allowed us to
 interface, adapt or use parts of their codes:
   Stefan Grimme, W. Hujo, H. Kruse,             : VdW corrections, initial TS optimization,
                  C. Bannwarth                     DFT functionals, gCP, sTDA/sTD-DF
   Ed Valeev, F. Pavosevic, A. Kumar             : LibInt (2-el integral package), F12 methods
   Garnet Chan, S. Sharma, J. Yang, R. Olivares  : DMRG
   Ulf Ekstrom                                   : XCFun DFT Library
   Mihaly Kallay                                 : mrcc  (arbitrary order and MRCC methods)
   Andreas Klamt, Michael Diedenhofen            : otool_cosmo (COSMO solvation model)
   Jiri Pittner, Ondrej Demel                    : Mk-CCSD
   Frank Weinhold                                : gennbo (NPA and NBO analysis)
   Christopher J. Cramer and Donald G. Truhlar   : smd solvation model
   Lars Goerigk                                  : TD-DFT with DH, B97 family of functionals
   V. Asgeirsson, H. Jonsson                     : NEB implementation
   FAccTs GmbH                                   : IRC, NEB, NEB-TS, Multilevel, MM, QM/MM, CI optimization
   S Lehtola, MJT Oliveira, MAL Marques          : LibXC Library


 Your calculation uses the libint2 library for the computation of 2-el integrals
 For citations please refer to: http://libint.valeyev.net

 Your ORCA version has been built with support for libXC version: 4.2.3
 For citations please refer to: https://tddft.org/programs/libxc/

 This ORCA versions uses:
   CBLAS   interface :  Fast vector & matrix operations
   LAPACKE interface :  Fast linear algebra routines
   SCALAPACK package :  Parallel linear algebra routines


----- Orbital basis set information -----
Your calculation utilizes the basis: def2-TZVPPD
   F. Weigend and R. Ahlrichs, Phys. Chem. Chem. Phys. 7, 3297 (2005).
   D. Rappoport and F. Furche, J. Chem. Phys. 133 134105 (2010).

================================================================================
                                        WARNINGS
                       Please study these warnings very carefully!
================================================================================


WARNING: your system is open-shell and RHF/RKS was chosen
  ===> : WILL SWITCH to UHF/UKS


WARNING: MDCI localization with Augmented Hessian Foster-Boys
  ===> : Switching off randomization!

WARNING: Post HF methods need fully converged wavefunctions
  ===> : Setting SCFConvForced true
         You can overwrite this default with %scf ConvForced false 


INFO   : the flag for use of LIBINT has been found!

================================================================================
                                       INPUT FILE
================================================================================
NAME = 13_Al.in
|  1> #
|  2> # 13_Al CCSD(T)/Def2-TZVPPD
|  3> #
|  4> ! CCSD(T) Def2-TZVPPD tightscf
|  5> 
|  6> *xyz 0 2
|  7>  Al 0.0 0.0 0.0
|  8> *
|  9> 
| 10> %maxcore 5000 
| 11> 
| 12> %pal
| 13> nprocs 3
| 14> end
| 15> 
| 16> 
| 17>                          ****END OF INPUT****
================================================================================

                       ****************************
                       * Single Point Calculation *
                       ****************************

---------------------------------
CARTESIAN COORDINATES (ANGSTROEM)
---------------------------------
  Al     0.000000    0.000000    0.000000

----------------------------
CARTESIAN COORDINATES (A.U.)
----------------------------
  NO LB      ZA    FRAG     MASS         X           Y           Z
   0 Al   13.0000    0    26.982    0.000000    0.000000    0.000000

--------------------------------
INTERNAL COORDINATES (ANGSTROEM)
--------------------------------
 Al     0   0   0     0.000000000000     0.00000000     0.00000000

---------------------------
INTERNAL COORDINATES (A.U.)
---------------------------
 Al     0   0   0     0.000000000000     0.00000000     0.00000000

---------------------
BASIS SET INFORMATION
---------------------
There are 1 groups of distinct atoms

 Group   1 Type Al  : 15s9p4d1f contracted to 6s5p4d1f pattern {732111/51111/1111/1}

Atom   0Al   basis set group =>   1


           ************************************************************
           *        Program running with 3 parallel MPI-processes     *
           *              working on a common directory               *
           ************************************************************
------------------------------------------------------------------------------
                           ORCA GTO INTEGRAL CALCULATION
------------------------------------------------------------------------------

                         BASIS SET STATISTICS AND STARTUP INFO

 # of primitive gaussian shells          ...   29
 # of primitive gaussian functions       ...   69
 # of contracted shells                  ...   16
 # of contracted basis functions         ...   48
 Highest angular momentum                ...    3
 Maximum contraction depth               ...    7
 Integral package used                   ... LIBINT
 Integral threshhold            Thresh   ...  2.500e-11
 Primitive cut-off              TCut     ...  2.500e-12


------------------------------ INTEGRAL EVALUATION ----------------------------


 * One electron integrals 
 Pre-screening matrix                    ... done
 Shell pair data                         ... done (   0.000 sec)



           ************************************************************
           *        Program running with 3 parallel MPI-processes     *
           *              working on a common directory               *
           ************************************************************
-------------------------------------------------------------------------------
                                 ORCA SCF
-------------------------------------------------------------------------------

------------
SCF SETTINGS
------------
Hamiltonian:
 Ab initio Hamiltonian  Method          .... Hartree-Fock(GTOs)


General Settings:
 Integral files         IntName         .... 13_Al
 Hartree-Fock type      HFTyp           .... UHF
 Total Charge           Charge          ....    0
 Multiplicity           Mult            ....    2
 Number of Electrons    NEL             ....   13
 Basis Dimension        Dim             ....   48
 Nuclear Repulsion      ENuc            ....      0.0000000000 Eh

Convergence Acceleration:
 DIIS                   CNVDIIS         .... on
   Start iteration      DIISMaxIt       ....    12
   Startup error        DIISStart       ....  0.200000
   # of expansion vecs  DIISMaxEq       ....     5
   Bias factor          DIISBfac        ....   1.050
   Max. coefficient     DIISMaxC        ....  10.000
 Newton-Raphson         CNVNR           .... off
 SOSCF                  CNVSOSCF        .... off
 Level Shifting         CNVShift        .... on
   Level shift para.    LevelShift      ....    0.2500
   Turn off err/grad.   ShiftErr        ....    0.0010
 Zerner damping         CNVZerner       .... off
 Static damping         CNVDamp         .... on
   Fraction old density DampFac         ....    0.7000
   Max. Damping (<1)    DampMax         ....    0.9800
   Min. Damping (>=0)   DampMin         ....    0.0000
   Turn off err/grad.   DampErr         ....    0.1000
 Fernandez-Rico         CNVRico         .... off

SCF Procedure:
 Maximum # iterations   MaxIter         ....   125
 SCF integral mode      SCFMode         .... Direct
   Integral package                     .... LIBINT
 Reset frequency        DirectResetFreq ....    20
 Integral Threshold     Thresh          ....  2.500e-11 Eh
 Primitive CutOff       TCut            ....  2.500e-12 Eh

Convergence Tolerance:
 Convergence Check Mode ConvCheckMode   .... Total+1el-Energy
 Convergence forced     ConvForced      .... 1
 Energy Change          TolE            ....  1.000e-08 Eh
 1-El. energy change                    ....  1.000e-05 Eh
 DIIS Error             TolErr          ....  5.000e-07


Diagonalization of the overlap matrix:
Smallest eigenvalue                        ... 2.409e-02
Time for diagonalization                   ...    0.001 sec
Threshold for overlap eigenvalues          ... 1.000e-08
Number of eigenvalues below threshold      ... 0
Time for construction of square roots      ...    0.003 sec
Total time needed                          ...    0.004 sec

-------------------
DFT GRID GENERATION
-------------------

General Integration Accuracy     IntAcc      ...  4.340
Radial Grid Type                 RadialGrid  ... Gauss-Chebyshev
Angular Grid (max. acc.)         AngularGrid ... Lebedev-110
Angular grid pruning method      GridPruning ... 3 (G Style)
Weight generation scheme         WeightScheme... Becke
Basis function cutoff            BFCut       ...    1.0000e-11
Integration weight cutoff        WCut        ...    1.0000e-14
Grids for H and He will be reduced by one unit

# of grid points (after initial pruning)     ...   1866 (   0.0 sec)
# of grid points (after weights+screening)   ...   1866 (   0.0 sec)
Grid point division into batches done        ...    0.0 sec
Reduced shell lists constructed in    0.0 sec

Total number of grid points                  ...     1866
Total number of batches                      ...       30
Average number of points per batch           ...       62
Average number of grid points per atom       ...     1866
Average number of shells per batch           ...     9.82 (61.36%)
Average number of basis functions per batch  ...    33.09 (68.94%)
Average number of large shells per batch     ...     9.00 (91.67%)
Average number of large basis fcns per batch ...    30.09 (90.93%)
Maximum spatial batch extension              ...  21.07, 38.78, 38.78 au
Average spatial batch extension              ...   5.73,  7.22,  8.87 au

Time for grid setup =    0.018 sec

------------------------------
INITIAL GUESS: MODEL POTENTIAL
------------------------------
Loading Hartree-Fock densities                     ... done
Calculating cut-offs                               ... done
Setting up the integral package                    ... done
Initializing the effective Hamiltonian             ... done
Starting the Coulomb interaction                   ... done (   0.0 sec)
Reading the grid                                   ... done
Mapping shells                                     ... done
Starting the XC term evaluation                    ... done (   0.0 sec)
Transforming the Hamiltonian                       ... done (   0.0 sec)
Diagonalizing the Hamiltonian                      ... done (   0.0 sec)
Back transforming the eigenvectors                 ... done (   0.0 sec)
Now organizing SCF variables                       ... done
                      ------------------
                      INITIAL GUESS DONE (   0.1 sec)
                      ------------------
--------------
SCF ITERATIONS
--------------
ITER       Energy         Delta-E        Max-DP      RMS-DP      [F,P]     Damp
               ***  Starting incremental Fock matrix formation  ***
  0   -241.8575488947   0.000000000000 0.01493018  0.00047669  0.1242730 0.7000
  1   -241.8617953786  -0.004246483915 0.01576576  0.00043865  0.0878203 0.7000
                               ***Turning on DIIS***
  2   -241.8650554551  -0.003260076501 0.04534497  0.00119635  0.0620158 0.0000
  3   -241.8723239881  -0.007268532979 0.01406162  0.00033177  0.0089572 0.0000
  4   -241.8694250510   0.002898937084 0.00582366  0.00014164  0.0020422 0.0000
  5   -241.8766454760  -0.007220425058 0.00495717  0.00014260  0.0009015 0.0000
  6   -241.8751341549   0.001511321146 0.00123362  0.00005642  0.0001848 0.0000
  7   -241.8741297718   0.001004383049 0.00049763  0.00001904  0.0000701 0.0000
  8   -241.8743498718  -0.000220099929 0.00024423  0.00000539  0.0000142 0.0000
  9   -241.8744334208  -0.000083548988 0.00011504  0.00000236  0.0000048 0.0000
 10   -241.8744424615  -0.000009040778 0.00002999  0.00000066  0.0000011 0.0000
                            ***DIIS convergence achieved***

               *****************************************************
               *                     SUCCESS                       *
               *           SCF CONVERGED AFTER  11 CYCLES          *
               *****************************************************


----------------
TOTAL SCF ENERGY
----------------

Total Energy       :         -241.87444681 Eh           -6581.73831 eV

Components:
Nuclear Repulsion  :            0.00000000 Eh               0.00000 eV
Electronic Energy  :         -241.87444681 Eh           -6581.73831 eV
One Electron Energy:         -336.63632115 Eh           -9160.34000 eV
Two Electron Energy:           94.76187434 Eh            2578.60169 eV

Virial components:
Potential Energy   :         -483.74975987 Eh          -13163.50019 eV
Kinetic Energy     :          241.87531306 Eh            6581.76188 eV
Virial Ratio       :            1.99999642


---------------
SCF CONVERGENCE
---------------

  Last Energy change         ...   -4.3452e-06  Tolerance :   1.0000e-08
  Last MAX-Density change    ...    4.3464e-06  Tolerance :   1.0000e-07
  Last RMS-Density change    ...    1.0988e-07  Tolerance :   5.0000e-09
  Last DIIS Error            ...    1.6155e-07  Tolerance :   5.0000e-07

             **** THE GBW FILE WAS UPDATED (13_Al.gbw) ****
             **** DENSITY FILE WAS UPDATED (13_Al.scfp) ****
             **** ENERGY FILE WAS UPDATED (13_Al.en.tmp) ****
----------------------
UHF SPIN CONTAMINATION
----------------------

Expectation value of <S**2>     :     0.770486
Ideal value S*(S+1) for S=0.5   :     0.750000
Deviation                       :     0.020486

             **** THE GBW FILE WAS UPDATED (13_Al.gbw) ****
             **** DENSITY FILE WAS UPDATED (13_Al.scfp) ****
----------------
ORBITAL ENERGIES
----------------
                 SPIN UP ORBITALS
  NO   OCC          E(Eh)            E(eV) 
   0   1.0000     -58.498419     -1591.8229 
   1   1.0000      -4.909972      -133.6071 
   2   1.0000      -3.224565       -87.7449 
   3   1.0000      -3.217227       -87.5452 
   4   1.0000      -3.217227       -87.5452 
   5   1.0000      -0.425308       -11.5732 
   6   1.0000      -0.217974        -5.9314 
   7   0.0000       0.025341         0.6896 
   8   0.0000       0.025341         0.6896 
   9   0.0000       0.060760         1.6534 
  10   0.0000       0.116069         3.1584 
  11   0.0000       0.116069         3.1584 
  12   0.0000       0.116330         3.1655 
  13   0.0000       0.117499         3.1973 
  14   0.0000       0.117499         3.1973 
  15   0.0000       0.309518         8.4224 
  16   0.0000       0.338179         9.2023 
  17   0.0000       0.338179         9.2023 
  18   0.0000       0.339892         9.2489 
  19   0.0000       0.342461         9.3188 
  20   0.0000       0.342461         9.3188 
  21   0.0000       0.353275         9.6131 
  22   0.0000       0.353275         9.6131 
  23   0.0000       0.374982        10.2038 
  24   0.0000       0.898990        24.4628 
  25   0.0000       0.898990        24.4628 
  26   0.0000       0.903433        24.5837 
  27   0.0000       0.903433        24.5837 
  28   0.0000       0.905775        24.6474 
  29   0.0000       0.905775        24.6474 
  30   0.0000       0.906507        24.6673 
  31   0.0000       0.952847        25.9283 
  32   0.0000       0.952847        25.9283 
  33   0.0000       0.957467        26.0540 
  34   0.0000       0.957467        26.0540 
  35   0.0000       0.958967        26.0948 
  36   0.0000       2.130936        57.9857 
  37   0.0000       2.130936        57.9857 
  38   0.0000       2.131728        58.0073 
  39   0.0000       3.513281        95.6012 
  40   0.0000       3.513281        95.6012 
  41   0.0000       3.523560        95.8809 
  42   0.0000       3.523560        95.8809 
  43   0.0000       3.526979        95.9740 
  44   0.0000       6.941338       188.8834 
  45   0.0000       9.842944       267.8401 
  46   0.0000       9.842944       267.8401 
  47   0.0000       9.845493       267.9095 

                 SPIN DOWN ORBITALS
  NO   OCC          E(Eh)            E(eV) 
   0   1.0000     -58.495187     -1591.7350 
   1   1.0000      -4.906361      -133.5089 
   2   1.0000      -3.215586       -87.5005 
   3   1.0000      -3.215586       -87.5005 
   4   1.0000      -3.206184       -87.2447 
   5   1.0000      -0.362975        -9.8771 
   6   0.0000       0.032921         0.8958 
   7   0.0000       0.032921         0.8958 
   8   0.0000       0.065804         1.7906 
   9   0.0000       0.071557         1.9472 
  10   0.0000       0.118424         3.2225 
  11   0.0000       0.118424         3.2225 
  12   0.0000       0.128503         3.4967 
  13   0.0000       0.128503         3.4967 
  14   0.0000       0.132805         3.6138 
  15   0.0000       0.341687         9.2978 
  16   0.0000       0.341687         9.2978 
  17   0.0000       0.354716         9.6523 
  18   0.0000       0.354716         9.6523 
  19   0.0000       0.376522        10.2457 
  20   0.0000       0.379627        10.3302 
  21   0.0000       0.379627        10.3302 
  22   0.0000       0.381073        10.3695 
  23   0.0000       0.395996        10.7756 
  24   0.0000       0.898817        24.4580 
  25   0.0000       0.898817        24.4580 
  26   0.0000       0.922338        25.0981 
  27   0.0000       0.922338        25.0981 
  28   0.0000       0.937256        25.5040 
  29   0.0000       0.937256        25.5040 
  30   0.0000       0.942430        25.6448 
  31   0.0000       0.952957        25.9313 
  32   0.0000       0.952957        25.9313 
  33   0.0000       0.978365        26.6227 
  34   0.0000       0.978365        26.6227 
  35   0.0000       0.988024        26.8855 
  36   0.0000       2.133089        58.0443 
  37   0.0000       2.133089        58.0443 
  38   0.0000       2.160909        58.8013 
  39   0.0000       3.513272        95.6010 
  40   0.0000       3.513272        95.6010 
  41   0.0000       3.527693        95.9934 
  42   0.0000       3.527693        95.9934 
  43   0.0000       3.532554        96.1257 
  44   0.0000       6.946347       189.0197 
  45   0.0000       9.844280       267.8765 
  46   0.0000       9.844280       267.8765 
  47   0.0000       9.858033       268.2507 

                    ********************************
                    * MULLIKEN POPULATION ANALYSIS *
                    ********************************

--------------------------------------------
MULLIKEN ATOMIC CHARGES AND SPIN POPULATIONS
--------------------------------------------
   0 Al:    0.000000    1.000000
Sum of atomic charges         :    0.0000000
Sum of atomic spin populations:    1.0000000

-----------------------------------------------------
MULLIKEN REDUCED ORBITAL CHARGES AND SPIN POPULATIONS
-----------------------------------------------------
CHARGE
  0 Als       :     5.989597  s :     5.989597
      pz      :     2.000006  p :     6.999964
      px      :     2.512987
      py      :     2.486972
      dz2     :     0.002601  d :     0.010403
      dxz     :     0.000000
      dyz     :     0.000000
      dx2y2   :     0.000005
      dxy     :     0.007797
      f0      :     0.000000  f :     0.000036
      f+1     :     0.000007
      f-1     :     0.000006
      f+2     :     0.000000
      f-2     :     0.000000
      f+3     :     0.000010
      f-3     :     0.000012

SPIN
  0 Als       :    -0.002093  s :    -0.002093
      pz      :     0.000006  p :     0.999966
      px      :     0.512987
      py      :     0.486972
      dz2     :     0.000523  d :     0.002093
      dxz     :     0.000000
      dyz     :     0.000000
      dx2y2   :     0.000001
      dxy     :     0.001569
      f0      :    -0.000000  f :     0.000034
      f+1     :     0.000007
      f-1     :     0.000006
      f+2     :    -0.000000
      f-2     :    -0.000000
      f+3     :     0.000010
      f-3     :     0.000012


                     *******************************
                     * LOEWDIN POPULATION ANALYSIS *
                     *******************************

-------------------------------------------
LOEWDIN ATOMIC CHARGES AND SPIN POPULATIONS
-------------------------------------------
   0 Al:   -0.000000    1.000000

----------------------------------------------------
LOEWDIN REDUCED ORBITAL CHARGES AND SPIN POPULATIONS
----------------------------------------------------
CHARGE
  0 Als       :     5.989597  s :     5.989597
      pz      :     2.000006  p :     6.999964
      px      :     2.512987
      py      :     2.486972
      dz2     :     0.002601  d :     0.010403
      dxz     :     0.000000
      dyz     :     0.000000
      dx2y2   :     0.000005
      dxy     :     0.007797
      f0      :     0.000000  f :     0.000036
      f+1     :     0.000007
      f-1     :     0.000006
      f+2     :     0.000000
      f-2     :     0.000000
      f+3     :     0.000010
      f-3     :     0.000012

SPIN
  0 Als       :    -0.002093  s :    -0.002093
      pz      :     0.000006  p :     0.999966
      px      :     0.512987
      py      :     0.486972
      dz2     :     0.000523  d :     0.002093
      dxz     :     0.000000
      dyz     :     0.000000
      dx2y2   :     0.000001
      dxy     :     0.001569
      f0      :    -0.000000  f :     0.000034
      f+1     :     0.000007
      f-1     :     0.000006
      f+2     :    -0.000000
      f-2     :    -0.000000
      f+3     :     0.000010
      f-3     :     0.000012


                      *****************************
                      * MAYER POPULATION ANALYSIS *
                      *****************************

  NA   - Mulliken gross atomic population
  ZA   - Total nuclear charge
  QA   - Mulliken gross atomic charge
  VA   - Mayer's total valence
  BVA  - Mayer's bonded valence
  FA   - Mayer's free valence

  ATOM       NA         ZA         QA         VA         BVA        FA
  0 Al    13.0000    13.0000     0.0000     1.0410     0.0000     1.0410

  Mayer bond orders larger than 0.100000


-------
TIMINGS
-------

Total SCF time: 0 days 0 hours 0 min 1 sec 

Total time                  ....       1.906 sec
Sum of individual times     ....       1.600 sec  ( 84.0%)

Fock matrix formation       ....       1.338 sec  ( 70.2%)
Diagonalization             ....       0.018 sec  (  0.9%)
Density matrix formation    ....       0.002 sec  (  0.1%)
Population analysis         ....       0.116 sec  (  6.1%)
Initial guess               ....       0.079 sec  (  4.1%)
Orbital Transformation      ....       0.000 sec  (  0.0%)
Orbital Orthonormalization  ....       0.000 sec  (  0.0%)
DIIS solution               ....       0.030 sec  (  1.6%)


           ************************************************************
           *        Program running with 3 parallel MPI-processes     *
           *              working on a common directory               *
           ************************************************************


------------------------------------------------------------------------------- 
                              ORCA-MATRIX DRIVEN CI                            
------------------------------------------------------------------------------- 

--------------------------------
AUTOMATIC CHOICE OF INCORE LEVEL
--------------------------------

Memory available                           ...   2500.00 MB
Memory needed for S+T                      ...      0.12 MB
Memory needed for J+K                      ...      0.23 MB
Memory needed for DIIS                     ...      1.62 MB
Memory needed for 3-ext                    ...      1.05 MB
Memory needed for 4-ext                    ...     11.04 MB
Memory needed for triples                  ...      2.63 MB
 -> Final InCoreLevel    ... 5
 -> check shows that triples correction can be computed


Wavefunction type
-----------------
Correlation treatment                      ...      CCSD     
Single excitations                         ... ON
Orbital optimization                       ... OFF
Calculation of Z vector                    ... OFF
Calculation of Brueckner orbitals          ... OFF
Perturbative triple excitations            ... ON
Calculation of F12 correction              ... OFF
Frozen core treatment                      ... chemical core (10 el)
Reference Wavefunction                     ... UHF
  Alpha-MOs occ    :     5 ...    6 (  2 MO's/  2 electrons)
  Beta-MOs occ     :     5 ...    5 (  1 MO's/  1 electrons)
  Alpha-MOs virt   :     7 ...   47 ( 41 MO's              )
  Beta-MOs virt    :     6 ...   47 ( 42 MO's              )
Number of AO's                             ...     48
Number of electrons                        ...     13
Number of correlated electrons             ...      3

Algorithmic settings
--------------------
Integral transformation                    ... AO direct full transformation
K(C) Formation                             ... FULL-MO TRAFO
Maximum number of iterations               ...        50
Convergence tolerance (max. residuum)      ... 1.000e-05
Level shift for amplitude update           ... 2.000e-01
Maximum number of DIIS vectors             ...         7
DIIS turned on at iteration                ...         0
Damping before turning on DIIS             ...     0.500
Damping after turning on DIIS              ...     0.000
Pair specific amplitude update             ... OFF
Natural orbital iterations                 ... OFF
Perturbative natural orbital generation    ... OFF
Printlevel                                 ... 2

Memory handling:
----------------
Maximum memory for working arrays          ...   2500 MB
Data storage in matrix containers          ... UNCOMPRESSED
Data type for integral storage             ... DOUBLE
In-Core Storage of quantities:
   Amplitudes+Sigma Vector      ... YES
   J+K operators                ... YES
   DIIS vectors                 ... YES
   3-external integrals         ... YES
   4-external integrals         ... YES


Initializing the integral package          ... done
Warning: reference  - re-canonicalizations have been set to INT 1 VIRT 1

--------------------------
UNRESTRICTED FOCK OPERATOR
--------------------------

<ss|ss>:          231 b            0 skpd (  0.0%)    0.000 s ( 0.001 ms/b)
<ss|sp>:          630 b            0 skpd (  0.0%)    0.001 s ( 0.001 ms/b)
<ss|sd>:          504 b            0 skpd (  0.0%)    0.000 s ( 0.001 ms/b)
<ss|sf>:          126 b            0 skpd (  0.0%)    0.000 s ( 0.001 ms/b)
<ss|pp>:          315 b            0 skpd (  0.0%)    0.000 s ( 0.001 ms/b)
<ss|pd>:          420 b            0 skpd (  0.0%)    0.000 s ( 0.001 ms/b)
<ss|pf>:          105 b            0 skpd (  0.0%)    0.000 s ( 0.001 ms/b)
<ss|dd>:          210 b            0 skpd (  0.0%)    0.000 s ( 0.001 ms/b)
<ss|df>:           84 b            0 skpd (  0.0%)    0.000 s ( 0.002 ms/b)
<ss|ff>:           21 b            0 skpd (  0.0%)    0.000 s ( 0.005 ms/b)
<sp|sp>:          465 b            0 skpd (  0.0%)    0.000 s ( 0.001 ms/b)
<sp|sd>:          720 b            0 skpd (  0.0%)    0.001 s ( 0.001 ms/b)
<sp|sf>:          180 b            0 skpd (  0.0%)    0.000 s ( 0.001 ms/b)
<sp|pp>:          450 b            0 skpd (  0.0%)    0.001 s ( 0.002 ms/b)
<sp|pd>:          600 b            0 skpd (  0.0%)    0.001 s ( 0.001 ms/b)
<sp|pf>:          150 b            0 skpd (  0.0%)    0.000 s ( 0.003 ms/b)
<sp|dd>:          300 b            0 skpd (  0.0%)    0.001 s ( 0.002 ms/b)
<sp|df>:          120 b            0 skpd (  0.0%)    0.000 s ( 0.004 ms/b)
<sp|ff>:           30 b            0 skpd (  0.0%)    0.000 s ( 0.010 ms/b)
<sd|sd>:          300 b            0 skpd (  0.0%)    0.000 s ( 0.001 ms/b)
<sd|sf>:          144 b            0 skpd (  0.0%)    0.000 s ( 0.002 ms/b)
<sd|pp>:          360 b            0 skpd (  0.0%)    0.001 s ( 0.002 ms/b)
<sd|pd>:          480 b            1 skpd (  0.2%)    0.001 s ( 0.002 ms/b)
<sd|pf>:          120 b            0 skpd (  0.0%)    0.000 s ( 0.004 ms/b)
<sd|dd>:          240 b            0 skpd (  0.0%)    0.001 s ( 0.003 ms/b)
<sd|df>:           96 b            0 skpd (  0.0%)    0.001 s ( 0.006 ms/b)
<sd|ff>:           24 b            0 skpd (  0.0%)    0.000 s ( 0.016 ms/b)
<sf|sf>:           21 b            0 skpd (  0.0%)    0.000 s ( 0.003 ms/b)
<sf|pp>:           90 b            0 skpd (  0.0%)    0.000 s ( 0.004 ms/b)
<sf|pd>:          120 b            0 skpd (  0.0%)    0.000 s ( 0.003 ms/b)
<sf|pf>:           30 b            0 skpd (  0.0%)    0.000 s ( 0.008 ms/b)
<sf|dd>:           60 b            0 skpd (  0.0%)    0.000 s ( 0.005 ms/b)
<sf|df>:           24 b            0 skpd (  0.0%)    0.000 s ( 0.011 ms/b)
<sf|ff>:            6 b            0 skpd (  0.0%)    0.000 s ( 0.031 ms/b)
<pp|pp>:          120 b            0 skpd (  0.0%)    0.001 s ( 0.005 ms/b)
<pp|pd>:          300 b            0 skpd (  0.0%)    0.001 s ( 0.003 ms/b)
<pp|pf>:           75 b            0 skpd (  0.0%)    0.000 s ( 0.006 ms/b)
<pp|dd>:          150 b            0 skpd (  0.0%)    0.001 s ( 0.004 ms/b)
<pp|df>:           60 b            0 skpd (  0.0%)    0.001 s ( 0.009 ms/b)
<pp|ff>:           15 b            0 skpd (  0.0%)    0.000 s ( 0.025 ms/b)
<pd|pd>:          210 b            0 skpd (  0.0%)    0.001 s ( 0.005 ms/b)
<pd|pf>:          100 b            0 skpd (  0.0%)    0.001 s ( 0.008 ms/b)
<pd|dd>:          200 b            0 skpd (  0.0%)    0.002 s ( 0.008 ms/b)
<pd|df>:           80 b            0 skpd (  0.0%)    0.001 s ( 0.016 ms/b)
<pd|ff>:           20 b            0 skpd (  0.0%)    0.001 s ( 0.040 ms/b)
<pf|pf>:           15 b            0 skpd (  0.0%)    0.000 s ( 0.016 ms/b)
<pf|dd>:           50 b            0 skpd (  0.0%)    0.001 s ( 0.011 ms/b)
<pf|df>:           20 b            0 skpd (  0.0%)    0.001 s ( 0.029 ms/b)
<pf|ff>:            5 b            0 skpd (  0.0%)    0.000 s ( 0.069 ms/b)
<dd|dd>:           55 b            0 skpd (  0.0%)    0.001 s ( 0.011 ms/b)
<dd|df>:           40 b            0 skpd (  0.0%)    0.001 s ( 0.022 ms/b)
<dd|ff>:           10 b            0 skpd (  0.0%)    0.001 s ( 0.062 ms/b)
<df|df>:           10 b            0 skpd (  0.0%)    0.000 s ( 0.043 ms/b)
<df|ff>:            4 b            0 skpd (  0.0%)    0.000 s ( 0.122 ms/b)
<ff|ff>:            1 b            0 skpd (  0.0%)    0.000 s ( 0.250 ms/b)
Recanonicalizing the internal orbitals
Recanonicalizing the virtual orbitals
Time needed for Fock operator              ...            0.039 sec
Reference energy                           ...   -241.874447084
Warning: for UHF the TrafoType has to be JK
Warning: for UHF the K(C)-option cannot be MO but must be AOX

-------------------------------
PARTIAL EXCHANGE TRANSFORMATION
-------------------------------

Transformation type                        ... two-operators
Generation of integrals (i,mue|j,nue)      ... ON
Generation of integrals (mue,kappa|nue,tau)... ON
Generation of integrals (i,mue|a,nue)      ... ON
Dimension of the basis                     ...   48
Number of internal alpha-MOs               ...    2 (   5-   6)
Number of internal beta-MOs                ...    1 (   5-   5)
Number of external alpha-MOs               ...   41 (   7-  47)
Number of external beta-MOs                ...   42 (   6-  47)
Pair cutoff                                ... 0.000e+00 Eh
Number of AO pairs in the trafo            ... 1176
Total Number of distinct AO pairs          ... 1176
Memory devoted for trafo                   ... 2500.0 MB 
Max. Number of MO pairs treated together   ... 142222      
Number Format for Storage                  ... Double (8 Byte)
Integral package used                      ... LIBINT

Starting integral evaluation:
    ... done with AO integral generation
Closing buffer AOK[aa] ( 0.00 GB; CompressionRatio= 0.73)
Closing buffer AOK[bb] ( 0.00 GB; CompressionRatio= 0.40)
Closing buffer AOK[ab] ( 0.00 GB; CompressionRatio= 0.57)
Closing buffer AOK[ba] ( 0.00 GB; CompressionRatio= 0.57)
Collecting buffer AOK 
Closing buffer IAAO1[aa] ( 0.00 GB; CompressionRatio= 0.98)
Closing buffer IAAO1[bb] ( 0.00 GB; CompressionRatio= 0.97)
Closing buffer IAAO1[ab] ( 0.00 GB; CompressionRatio= 0.98)
Closing buffer IAAO1[ba] ( 0.00 GB; CompressionRatio= 0.96)
Closing buffer IAAO2[aa] ( 0.00 GB; CompressionRatio= 0.98)
Closing buffer IAAO2[bb] ( 0.00 GB; CompressionRatio= 0.97)
Closing buffer IAAO2[ab] ( 0.00 GB; CompressionRatio= 0.98)
Closing buffer IAAO2[ba] ( 0.00 GB; CompressionRatio= 0.96)
Collecting buffer IAAO 
Closing buffer PRQS    ( 0.01 GB; CompressionRatio= 1.00)
Collecting buffer PRQS 
Number of alpha/alpha MO pairs in trafo    ...    3
Number of beta /beta  MO pairs in trafo    ...    1
Number of alpha/ beta MO pairs in trafo    ...    2
------------------------
SORTING OF (i,mue|j,nue)
------------------------

SORTING OF ALPHA/ALPHA PAIRS
IBATCH = 1 of  1
Closing buffer KAO[aa] ( 0.00 GB; CompressionRatio= 1.00)
Collecting buffer KAO 
SORTING OF BETA /BETA  PAIRS
IBATCH = 1 of  1
Closing buffer KAO[bb] ( 0.00 GB; CompressionRatio= 1.00)
Collecting buffer KAO 
SORTING OF ALPHA/BETA  PAIRS
IBATCH = 1 of  1
Closing buffer KAO[ab] ( 0.00 GB; CompressionRatio= 0.999349381913)
Collecting buffer KAO[ab] 
------------------------
SORTING OF (i,mue|a,nue)
------------------------

Number of alpha/alpha (i,a) pairs in trafo  ...   82
Number of beta /beta  (i,a) pairs in trafo  ...   42
Number of alpha/ beta (i,a) pairs in trafo  ...   84
Number of beta /alpha (i,a) pairs in trafo  ...   41
Setting up the alpha/alpha list             ... done
Setting up the beta /beta  list             ... done
Setting up the alpha/beta  list             ... done
Setting up the beta /alpha list             ... done
    ... Now sorting (i,mue|a,nue)integrals
    ... Integrals (i,b|a,c) will be made on the fly
SORTING OF ALPHA/ALPHA PAIRS
IBATCH = 1 of  1
Closing buffer IPAQ[aa]  0.00 GB; CompressionRatio= 1.00)
SORTING OF BETA /BETA  PAIRS
IBATCH = 1 of  1
Closing buffer IPAQ[bb]( 0.00 GB; CompressionRatio= 1.00)
SORTING OF ALPHA/BETA  PAIRS (NMatSort_ab=28)
IBATCH = 1 of  1
Closing buffer IPAQ[ab]( 0.00 GB; CompressionRatio= 1.00)
SORTING OF BETA/ALPHA  PAIRS
IBATCH = 1 of  1
Closing buffer IPAQ[ba]( 0.00 GB; CompressionRatio= 1.00)
N(AO-Batches) Done                         ...     10240 
N(AO-Batches) Skipped                      ...         0 
N(IJ)-pairs Skipped                        ...         0 
TOTAL TIME for half transformation         ...     2.271 sec
AO-integral generation                     ...     0.096 sec
Half transformation                        ...     1.610 sec
K-integral sorting                         ...     0.093 sec
<ss|**>: 
------------------------------
PARTIAL COULOMB TRANSFORMATION
------------------------------

Transformation type                        ... two-operators
Dimension of the basis                     ...   48
Number of internal alpha-MOs               ...    2 (5-6)
Number of internal beta-MOs                ...    1 (5-5)
Pair cutoff                                ... 0.000e+00 Eh
Number of AO pairs included in the trafo   ... 1176
Total Number of distinct AO pairs          ... 1176
Memory devoted for trafo                   ... 2500.0 MB 
Max. Number of MO pairs treated together   ... 278639      
Max. Number of MOs treated per batch       ... 5804      
Number Format for Storage                  ... Double (8 Byte)
AO-integral source                         ... DIRECT
Integral package used                      ... LIBINT

Starting integral evaluation:
<sp|**>:         2856 b        0 skpd     0.006 s (  0.002 ms/b)
        4080 b        0 skpd     0.030 s (  0.007 ms/b)
<sd|**>: <sf|**>:         3264 b        0 skpd     0.035 s (  0.011 ms/b)
<pp|**>:          816 b        0 skpd     0.016 s (  0.020 ms/b)
        2040 b        0 skpd     0.041 s (  0.020 ms/b)
<pd|**>: <pf|**>:         2720 b        0 skpd     0.091 s (  0.034 ms/b)
<dd|**>:          680 b        0 skpd     0.037 s (  0.054 ms/b)
        1360 b        0 skpd     0.062 s (  0.046 ms/b)
<df|**>:          544 b        0 skpd     0.054 s (  0.100 ms/b)
<ff|**>:          136 b        0 skpd     0.019 s (  0.137 ms/b)
Closing buffer AOJ[aa] ( 0.00 GB; CompressionRatio= 0.67)
Closing buffer AOJ[bb] ( 0.00 GB; CompressionRatio= 0.00)
Collecting buffer AOJ 
    ... done with AO integral generation
Number of Alpha-MO pairs included          ...    3
Number of Beta-MO pairs included           ...    1
    ... Now sorting integrals
SORTING ALPHA/ALPHA PAIRS
IBATCH = 1 of  1
Closing buffer JAO[aa] ( 0.00 GB; CompressionRatio= 1.00)
SORTING BETA/BETA PAIRS
IBATCH = 1 of  1
Closing buffer JAO[bb] ( 0.00 GB; CompressionRatio= 1.00)
Collecting buffer JAO 
TOTAL TIME for half transformation         ...     0.413 sec
AO-integral generation                     ...     0.098 sec
Half transformation                        ...     0.295 sec
J-integral sorting                         ...     0.013 sec

-------------------------- SECOND HALF TRANSFORMATION -------------------------
Formation of (ij|kl),(ij|ka), (ij|ab)      ... ok (     0.012 sec)
Formation of (ik|jl),(ik|ja), (ia|jb)      ... ok (     0.020 sec)


-----------------------
SPIN UNRESTRICTED GUESS
-----------------------

Entering MDCI_UHF_Guess, Tailored=0
Spin-components of the MP2 energy:
EMP2(aa)=     -0.002501541
EMP2(bb)=      0.000000000
EMP2(ab)=     -0.033219143

Initial guess performed in     0.001 sec
E(0)                                       ...   -241.874447084
E(MP2)                                     ...     -0.035720684
Initial E(tot)                             ...   -241.910167768
<T|T>                                      ...      0.029971219
Number of pairs included                   ... 3

------------------------------------------------
                  UHF COUPLED CLUSTER ITERATIONS
------------------------------------------------

Number of amplitudes to be optimized       ...         4346

Iter       E(tot)           E(Corr)          Delta-E          Residual     Time      <S|S>**1/2
  0   -241.910167768     -0.035720684     -0.000000000      0.018509846    0.07      0.000000355
                           *** Turning on DIIS ***
  1   -241.917777664     -0.043330580     -0.007609896      0.010647285    0.04      0.011662543
  2   -241.924237909     -0.049790825     -0.006460245      0.002563625    0.04      0.026581727
  3   -241.925092735     -0.050645650     -0.000854825      0.000718352    0.04      0.032162094
  4   -241.925310765     -0.050863680     -0.000218030      0.000226270    0.04      0.033741880
  5   -241.925322058     -0.050874974     -0.000011294      0.000066142    0.04      0.033943523
  6   -241.925321539     -0.050874454      0.000000520      0.000018232    0.04      0.033951698
  7   -241.925323078     -0.050875993     -0.000001539      0.000006264    0.04      0.033949104
               --- The Coupled-Cluster iterations have converged ---

----------------------
COUPLED CLUSTER ENERGY
----------------------

E(0)                                       ...   -241.874447084
E(CORR)                                    ...     -0.050875993
E(TOT)                                     ...   -241.925323078
Singles norm <S|S>**1/2                    ...      0.033949104 ( 0.028963143, 0.004985960)  
T1 diagnostic                              ...      0.019600524                              

------------------
LARGEST AMPLITUDES
------------------
   5a->  8a   5b->  6b       0.102447
   5a->  7a   5b->  7b       0.102447
   6a-> 18a   5b->  9b       0.062630
   6a-> 20a   5b->  6b       0.056915
   6a-> 19a   5b->  7b       0.056915
   5a->  8a   5b-> 15b       0.055034
   5a->  7a   5b-> 16b       0.055034
   5a-> 16a   5b->  6b       0.053837
   5a-> 17a   5b->  7b       0.053837
   6a-> 12a   5b->  9b       0.046871
   6a-> 11a   5b->  7b       0.039757
   6a-> 10a   5b->  6b       0.039757
   6a->  7a   5b-> 21b       0.037401
   6a->  8a   5b-> 20b       0.037401
   6a-> 18a   5b-> 19b       0.035684
   5a-> 16a   5b-> 15b       0.034762

----------------------
UHF TRIPLES CORRECTION (Algorithm 1)
----------------------

Multiplier for the singles contribution    ...      1.000000000

SPIN-CASE Alpha-Alpha-Alpha:

SPIN-CASE Beta-Beta-Beta:

SPIN-CASE Alpha-Alpha-Beta:
10% done
20% done
30% done
40% done
50% done
60% done
70% done
80% done
90% done


SPIN-CASE Beta-Beta-Alpha:

Triples Correction (T)                     ...     -0.001153035
    alpha-alpha-alpha ...  0.000000000 ( -0.0%)
    alpha-alpha-beta  ... -0.001153035 (100.0%)
    alpha-beta -beta  ...  0.000000000 ( -0.0%)
    beta -beta -beta  ...  0.000000000 ( -0.0%)
Scaling of triples based on CCSD energies (Peterson et al. Molecular Physics 113, 1551 (2015))
E(T*) = f*E(T) where f = E(F12-CCSD)/E(CCSD) 
f = CCSD (with F12)/ CCSD (without F12)    ...      1.000000000
Scaled triples correction (T)              ...     -0.001153035

Final correlation energy                   ...     -0.052029029
E(CCSD)                                    ...   -241.925323078
E(CCSD(T))                                 ...   -241.926476113



        !!!!!!!!!!!!!!!!!!!!!!!!!!!!!!!!!!!!!!!!!!!!!!!!!!!!!!!!!!!!!!!!!!!!!!!!!! 
        !  Warning: Densities are linearized densities                           !
        !!!!!!!!!!!!!!!!!!!!!!!!!!!!!!!!!!!!!!!!!!!!!!!!!!!!!!!!!!!!!!!!!!!!!!!!!! 

NORM  =      1.074677826 sqrt=     1.036666690
W(HF) =      0.930511430
------------------------------------------------------------------------------
                           ORCA POPULATION ANALYSIS
------------------------------------------------------------------------------
Input electron density              ... 13_Al.mdcip
Input spin density                  ... 13_Al.mdcir
BaseName (.gbw .S,...)              ... 13_Al

                    ********************************
                    * MULLIKEN POPULATION ANALYSIS *
                    ********************************

------------------------------------------
MULLIKEN ATOMIC CHARGES AND SPIN DENSITIES
------------------------------------------
   0 Al:   -0.000000    1.000000
Sum of atomic charges       :   -0.0000000
Sum of atomic spin densities:    1.0000000

---------------------------------------------------
MULLIKEN REDUCED ORBITAL CHARGES AND SPIN DENSITIES
---------------------------------------------------
CHARGE
  0 Als       :     5.887424  s :     5.887424
      pz      :     2.045196  p :     7.073282
      px      :     2.526241
      py      :     2.501845
      dz2     :     0.004015  d :     0.038117
      dxz     :     0.006070
      dyz     :     0.005791
      dx2y2   :     0.011306
      dxy     :     0.010935
      f0      :     0.000116  f :     0.001177
      f+1     :     0.000126
      f-1     :     0.000122
      f+2     :     0.000146
      f-2     :     0.000174
      f+3     :     0.000246
      f-3     :     0.000246

SPIN
  0 Als       :     0.026448  s :     0.026448
      pz      :    -0.003248  p :     0.955657
      px      :     0.492011
      py      :     0.466894
      dz2     :     0.001774  d :     0.017254
      dxz     :     0.002580
      dyz     :     0.002447
      dx2y2   :     0.005062
      dxy     :     0.005390
      f0      :     0.000058  f :     0.000642
      f+1     :     0.000064
      f-1     :     0.000061
      f+2     :     0.000074
      f-2     :     0.000096
      f+3     :     0.000144
      f-3     :     0.000144


                     *******************************
                     * LOEWDIN POPULATION ANALYSIS *
                     *******************************

-----------------------------------------
LOEWDIN ATOMIC CHARGES AND SPIN DENSITIES
-----------------------------------------
   0 Al:   -0.000000    1.000000

--------------------------------------------------
LOEWDIN REDUCED ORBITAL CHARGES AND SPIN DENSITIES
--------------------------------------------------
CHARGE
  0 Als       :     5.887424  s :     5.887424
      pz      :     2.045196  p :     7.073282
      px      :     2.526241
      py      :     2.501845
      dz2     :     0.004015  d :     0.038117
      dxz     :     0.006070
      dyz     :     0.005791
      dx2y2   :     0.011306
      dxy     :     0.010935
      f0      :     0.000116  f :     0.001177
      f+1     :     0.000126
      f-1     :     0.000122
      f+2     :     0.000146
      f-2     :     0.000174
      f+3     :     0.000246
      f-3     :     0.000246

SPIN
  0 Als       :     0.026448  s :     0.026448
      pz      :    -0.003248  p :     0.955657
      px      :     0.492011
      py      :     0.466894
      dz2     :     0.001774  d :     0.017254
      dxz     :     0.002580
      dyz     :     0.002447
      dx2y2   :     0.005062
      dxy     :     0.005390
      f0      :     0.000058  f :     0.000642
      f+1     :     0.000064
      f-1     :     0.000061
      f+2     :     0.000074
      f-2     :     0.000096
      f+3     :     0.000144
      f-3     :     0.000144


                      *****************************
                      * MAYER POPULATION ANALYSIS *
                      *****************************

  NA   - Mulliken gross atomic population
  ZA   - Total nuclear charge
  QA   - Mulliken gross atomic charge
  VA   - Mayer's total valence
  BVA  - Mayer's bonded valence
  FA   - Mayer's free valence

  ATOM       NA         ZA         QA         VA         BVA        FA
  0 Al    13.0000    13.0000    -0.0000     1.4950     0.0000     1.4950





------------------------------------------------------------------------------- 
                                     TIMINGS                                   
------------------------------------------------------------------------------- 


Total execution time                   ...        3.287 sec

Fock Matrix Formation                  ...        0.039 sec (  1.2%)
Initial Guess                          ...        0.001 sec (  0.0%)
DIIS Solver                            ...        0.004 sec (  0.1%)
State Vector Update                    ...        0.000 sec (  0.0%)
Sigma-vector construction              ...        0.355 sec ( 10.8%)
  <D|H|D>(4-ext)                       ...        0.165 sec ( 46.5% of sigma)
  <S|H|0>                              ...        0.001 sec (  0.3% of sigma)
  Fock-dressing                        ...        0.150 sec ( 42.2% of sigma)
  (ij|ab),(ia|jb)-dressing             ...        0.021 sec (  5.9% of sigma)
Total Time for computing (T)           ...        0.005 sec (  0.2% of ALL)
  I/O of integral and amplitudes       ...        0.001 sec ( 23.7% of (T))
  N**6 triples energy contributions    ...        0.001 sec ( 24.2% of (T))


-------------------------   --------------------
FINAL SINGLE POINT ENERGY      -241.926476113242
-------------------------   --------------------


                            ***************************************
                            *     ORCA property calculations      *
                            ***************************************

                                    ---------------------
                                    Active property flags
                                    ---------------------
   (+) Dipole Moment


------------------------------------------------------------------------------
                       ORCA ELECTRIC PROPERTIES CALCULATION
------------------------------------------------------------------------------

Dipole Moment Calculation                       ... on
Quadrupole Moment Calculation                   ... off
Polarizability Calculation                      ... off
GBWName                                         ... 13_Al.gbw
Electron density file                           ... 13_Al.scfp
The origin for moment calculation is the CENTER OF MASS  = ( 0.000000,  0.000000  0.000000)

-------------
DIPOLE MOMENT
-------------
                                X             Y             Z
Electronic contribution:     -0.00000       0.00000      -0.00000
Nuclear contribution   :      0.00000       0.00000       0.00000
                        -----------------------------------------
Total Dipole Moment    :     -0.00000       0.00000      -0.00000
                        -----------------------------------------
Magnitude (a.u.)       :      0.00000
Magnitude (Debye)      :      0.00000



--------------------
Rotational spectrum 
--------------------
 
Rotational constants in cm-1:     0.000000     0.000000     0.000000 
Rotational constants in MHz :     0.000000     0.000000     0.000000 

 Dipole components along the rotational axes: 
x,y,z [a.u.] :    -0.000000     0.000000    -0.000000 
x,y,z [Debye]:    -0.000000     0.000000    -0.000000 

 

                           *** MDCI DENSITY ***

------------------------------------------------------------------------------
                       ORCA ELECTRIC PROPERTIES CALCULATION
------------------------------------------------------------------------------

Dipole Moment Calculation                       ... on
Quadrupole Moment Calculation                   ... off
Polarizability Calculation                      ... off
GBWName                                         ... 13_Al.gbw
Electron density file                           ... 13_Al.mdcip
The origin for moment calculation is the CENTER OF MASS  = ( 0.000000,  0.000000  0.000000)

-------------
DIPOLE MOMENT
-------------
                                X             Y             Z
Electronic contribution:      0.00000       0.00000      -0.00000
Nuclear contribution   :      0.00000       0.00000       0.00000
                        -----------------------------------------
Total Dipole Moment    :      0.00000       0.00000      -0.00000
                        -----------------------------------------
Magnitude (a.u.)       :      0.00000
Magnitude (Debye)      :      0.00000



--------------------
Rotational spectrum 
--------------------
 
Rotational constants in cm-1:     0.000000     0.000000     0.000000 
Rotational constants in MHz :     0.000000     0.000000     0.000000 

 Dipole components along the rotational axes: 
x,y,z [a.u.] :     0.000000     0.000000    -0.000000 
x,y,z [Debye]:     0.000000     0.000000    -0.000000 

 

Timings for individual modules:

Sum of individual times         ...        6.321 sec (=   0.105 min)
GTO integral calculation        ...        0.511 sec (=   0.009 min)   8.1 %
SCF iterations                  ...        2.182 sec (=   0.036 min)  34.5 %
MDCI module                     ...        3.628 sec (=   0.060 min)  57.4 %
                             ****ORCA TERMINATED NORMALLY****
TOTAL RUN TIME: 0 days 0 hours 0 minutes 6 seconds 829 msec
