
                                 *****************
                                 * O   R   C   A *
                                 *****************

           --- An Ab Initio, DFT and Semiempirical electronic structure package ---

                  #######################################################
                  #                        -***-                        #
                  #          Department of theory and spectroscopy      #
                  #               Directorship: Frank Neese             #
                  #        Max Planck Institute fuer Kohlenforschung    #
                  #                Kaiser Wilhelm Platz 1               #
                  #                 D-45470 Muelheim/Ruhr               #
                  #                      Germany                        #
                  #                                                     #
                  #                  All rights reserved                #
                  #                        -***-                        #
                  #######################################################


                         Program Version 4.2.0 -  RELEASE  -


 With contributions from (in alphabetic order):
   Daniel Aravena         : Magnetic Suceptibility
   Michael Atanasov       : Ab Initio Ligand Field Theory (pilot matlab implementation)
   Alexander A. Auer      : GIAO ZORA, VPT2
   Ute Becker             : Parallelization
   Giovanni Bistoni       : ED, misc. LED, open-shell LED, HFLED
   Martin Brehm           : Molecular dynamics
   Dmytro Bykov           : SCF Hessian
   Vijay G. Chilkuri      : MRCI spin determinant printing, contributions to CSF-ICE
   Dipayan Datta          : RHF DLPNO-CCSD density
   Achintya Kumar Dutta   : EOM-CC, STEOM-CC
   Dmitry Ganyushin       : Spin-Orbit,Spin-Spin,Magnetic field MRCI
   Miquel Garcia          : C-PCM Hessian, Gaussian charge scheme
   Yang Guo               : DLPNO-NEVPT2, CIM, IAO-localization
   Andreas Hansen         : Spin unrestricted coupled pair/coupled cluster methods
   Benjamin Helmich-Paris : CASSCF linear response (MC-RPA)
   Lee Huntington         : MR-EOM, pCC
   Robert Izsak           : Overlap fitted RIJCOSX, COSX-SCS-MP3, EOM
   Christian Kollmar      : KDIIS, OOCD, Brueckner-CCSD(T), CCSD density
   Simone Kossmann        : Meta GGA functionals, TD-DFT gradient, OOMP2, MP2 Hessian
   Martin Krupicka        : AUTO-CI
   Lucas Lang             : DCDCAS
   Dagmar Lenk            : GEPOL surface, SMD
   Dimitrios Liakos       : Extrapolation schemes; Compound Job, initial MDCI parallelization
   Dimitrios Manganas     : Further ROCIS development; embedding schemes
   Dimitrios Pantazis     : SARC Basis sets
   Taras Petrenko         : DFT Hessian,TD-DFT gradient, ASA, ECA, R-Raman, ABS, FL, XAS/XES, NRVS
   Peter Pinski           : DLPNO-MP2, DLPNO-MP2 Gradient
   Christoph Reimann      : Effective Core Potentials
   Marius Retegan         : Local ZFS, SOC
   Christoph Riplinger    : Optimizer, TS searches, QM/MM, DLPNO-CCSD(T), (RO)-DLPNO pert. Triples
   Tobias Risthaus        : Range-separated hybrids, TD-DFT gradient, RPA, STAB
   Michael Roemelt        : Original ROCIS implementation
   Masaaki Saitow         : Open-shell DLPNO-CCSD energy and density
   Barbara Sandhoefer     : DKH picture change effects
   Avijit Sen             : IP-ROCIS
   Kantharuban Sivalingam : CASSCF convergence, NEVPT2, FIC-MRCI
   Bernardo de Souza      : ESD, SOC TD-DFT
   Georgi Stoychev        : AutoAux, RI-MP2 NMR
   Willem Van den Heuvel  : Paramagnetic NMR
   Boris Wezisla          : Elementary symmetry handling
   Frank Wennmohs         : Technical directorship


 We gratefully acknowledge several colleagues who have allowed us to
 interface, adapt or use parts of their codes:
   Stefan Grimme, W. Hujo, H. Kruse,             : VdW corrections, initial TS optimization,
                  C. Bannwarth                     DFT functionals, gCP, sTDA/sTD-DF
   Ed Valeev, F. Pavosevic, A. Kumar             : LibInt (2-el integral package), F12 methods
   Garnet Chan, S. Sharma, J. Yang, R. Olivares  : DMRG
   Ulf Ekstrom                                   : XCFun DFT Library
   Mihaly Kallay                                 : mrcc  (arbitrary order and MRCC methods)
   Andreas Klamt, Michael Diedenhofen            : otool_cosmo (COSMO solvation model)
   Jiri Pittner, Ondrej Demel                    : Mk-CCSD
   Frank Weinhold                                : gennbo (NPA and NBO analysis)
   Christopher J. Cramer and Donald G. Truhlar   : smd solvation model
   Lars Goerigk                                  : TD-DFT with DH, B97 family of functionals
   V. Asgeirsson, H. Jonsson                     : NEB implementation
   FAccTs GmbH                                   : IRC, NEB, NEB-TS, Multilevel, MM, QM/MM, CI optimization
   S Lehtola, MJT Oliveira, MAL Marques          : LibXC Library


 Your calculation uses the libint2 library for the computation of 2-el integrals
 For citations please refer to: http://libint.valeyev.net

 Your ORCA version has been built with support for libXC version: 4.2.3
 For citations please refer to: https://tddft.org/programs/libxc/

 This ORCA versions uses:
   CBLAS   interface :  Fast vector & matrix operations
   LAPACKE interface :  Fast linear algebra routines
   SCALAPACK package :  Parallel linear algebra routines


----- Orbital basis set information -----
Your calculation utilizes the basis: def2-TZVPPD
   F. Weigend and R. Ahlrichs, Phys. Chem. Chem. Phys. 7, 3297 (2005).
   D. Rappoport and F. Furche, J. Chem. Phys. 133 134105 (2010).

================================================================================
                                        WARNINGS
                       Please study these warnings very carefully!
================================================================================


WARNING: your system is open-shell and RHF/RKS was chosen
  ===> : WILL SWITCH to UHF/UKS


WARNING: MDCI localization with Augmented Hessian Foster-Boys
  ===> : Switching off randomization!

WARNING: Post HF methods need fully converged wavefunctions
  ===> : Setting SCFConvForced true
         You can overwrite this default with %scf ConvForced false 


INFO   : the flag for use of LIBINT has been found!

================================================================================
                                       INPUT FILE
================================================================================
NAME = 16_S.in
|  1> #
|  2> # 16_S CCSD(T)/Def2-TZVPPD
|  3> #
|  4> ! CCSD(T) Def2-TZVPPD tightscf
|  5> 
|  6> *xyz 0 3
|  7>  S 0.0 0.0 0.0
|  8> *
|  9> 
| 10> %maxcore 5000 
| 11> 
| 12> %pal
| 13> nprocs 15
| 14> end
| 15> 
| 16> 
| 17>                          ****END OF INPUT****
================================================================================

                       ****************************
                       * Single Point Calculation *
                       ****************************

---------------------------------
CARTESIAN COORDINATES (ANGSTROEM)
---------------------------------
  S      0.000000    0.000000    0.000000

----------------------------
CARTESIAN COORDINATES (A.U.)
----------------------------
  NO LB      ZA    FRAG     MASS         X           Y           Z
   0 S    16.0000    0    32.060    0.000000    0.000000    0.000000

--------------------------------
INTERNAL COORDINATES (ANGSTROEM)
--------------------------------
 S      0   0   0     0.000000000000     0.00000000     0.00000000

---------------------------
INTERNAL COORDINATES (A.U.)
---------------------------
 S      0   0   0     0.000000000000     0.00000000     0.00000000

---------------------
BASIS SET INFORMATION
---------------------
There are 1 groups of distinct atoms

 Group   1 Type S   : 15s10p4d1f contracted to 6s6p4d1f pattern {732111/511111/1111/1}

Atom   0S    basis set group =>   1


           ************************************************************
           *        Program running with 15 parallel MPI-processes    *
           *              working on a common directory               *
           ************************************************************
------------------------------------------------------------------------------
                           ORCA GTO INTEGRAL CALCULATION
------------------------------------------------------------------------------

                         BASIS SET STATISTICS AND STARTUP INFO

 # of primitive gaussian shells          ...   30
 # of primitive gaussian functions       ...   72
 # of contracted shells                  ...   17
 # of contracted basis functions         ...   51
 Highest angular momentum                ...    3
 Maximum contraction depth               ...    7
 Integral package used                   ... LIBINT
 Integral threshhold            Thresh   ...  2.500e-11
 Primitive cut-off              TCut     ...  2.500e-12


------------------------------ INTEGRAL EVALUATION ----------------------------


 * One electron integrals 
 Pre-screening matrix                    ... done
 Shell pair data                         ... done (   0.000 sec)



           ************************************************************
           *        Program running with 15 parallel MPI-processes    *
           *              working on a common directory               *
           ************************************************************
-------------------------------------------------------------------------------
                                 ORCA SCF
-------------------------------------------------------------------------------

------------
SCF SETTINGS
------------
Hamiltonian:
 Ab initio Hamiltonian  Method          .... Hartree-Fock(GTOs)


General Settings:
 Integral files         IntName         .... 16_S
 Hartree-Fock type      HFTyp           .... UHF
 Total Charge           Charge          ....    0
 Multiplicity           Mult            ....    3
 Number of Electrons    NEL             ....   16
 Basis Dimension        Dim             ....   51
 Nuclear Repulsion      ENuc            ....      0.0000000000 Eh

Convergence Acceleration:
 DIIS                   CNVDIIS         .... on
   Start iteration      DIISMaxIt       ....    12
   Startup error        DIISStart       ....  0.200000
   # of expansion vecs  DIISMaxEq       ....     5
   Bias factor          DIISBfac        ....   1.050
   Max. coefficient     DIISMaxC        ....  10.000
 Newton-Raphson         CNVNR           .... off
 SOSCF                  CNVSOSCF        .... off
 Level Shifting         CNVShift        .... on
   Level shift para.    LevelShift      ....    0.2500
   Turn off err/grad.   ShiftErr        ....    0.0010
 Zerner damping         CNVZerner       .... off
 Static damping         CNVDamp         .... on
   Fraction old density DampFac         ....    0.7000
   Max. Damping (<1)    DampMax         ....    0.9800
   Min. Damping (>=0)   DampMin         ....    0.0000
   Turn off err/grad.   DampErr         ....    0.1000
 Fernandez-Rico         CNVRico         .... off

SCF Procedure:
 Maximum # iterations   MaxIter         ....   125
 SCF integral mode      SCFMode         .... Direct
   Integral package                     .... LIBINT
 Reset frequency        DirectResetFreq ....    20
 Integral Threshold     Thresh          ....  2.500e-11 Eh
 Primitive CutOff       TCut            ....  2.500e-12 Eh

Convergence Tolerance:
 Convergence Check Mode ConvCheckMode   .... Total+1el-Energy
 Convergence forced     ConvForced      .... 1
 Energy Change          TolE            ....  1.000e-08 Eh
 1-El. energy change                    ....  1.000e-05 Eh
 DIIS Error             TolErr          ....  5.000e-07


Diagonalization of the overlap matrix:
Smallest eigenvalue                        ... 3.254e-02
Time for diagonalization                   ...    0.002 sec
Threshold for overlap eigenvalues          ... 1.000e-08
Number of eigenvalues below threshold      ... 0
Time for construction of square roots      ...    0.108 sec
Total time needed                          ...    0.110 sec

-------------------
DFT GRID GENERATION
-------------------

General Integration Accuracy     IntAcc      ...  4.340
Radial Grid Type                 RadialGrid  ... Gauss-Chebyshev
Angular Grid (max. acc.)         AngularGrid ... Lebedev-110
Angular grid pruning method      GridPruning ... 3 (G Style)
Weight generation scheme         WeightScheme... Becke
Basis function cutoff            BFCut       ...    1.0000e-11
Integration weight cutoff        WCut        ...    1.0000e-14
Grids for H and He will be reduced by one unit

# of grid points (after initial pruning)     ...   1806 (   0.0 sec)
# of grid points (after weights+screening)   ...   1806 (   0.0 sec)
Grid point division into batches done        ...    0.0 sec
Reduced shell lists constructed in    0.0 sec

Total number of grid points                  ...     1806
Total number of batches                      ...       29
Average number of points per batch           ...       62
Average number of grid points per atom       ...     1806
Average number of shells per batch           ...     7.33 (43.14%)
Average number of basis functions per batch  ...    24.67 (48.37%)
Average number of large shells per batch     ...     6.00 (81.82%)
Average number of large basis fcns per batch ...    19.33 (78.38%)
Maximum spatial batch extension              ...  16.21, 29.83, 29.83 au
Average spatial batch extension              ...   1.12,  2.06,  2.06 au

Time for grid setup =    0.026 sec

------------------------------
INITIAL GUESS: MODEL POTENTIAL
------------------------------
Loading Hartree-Fock densities                     ... done
Calculating cut-offs                               ... done
Setting up the integral package                    ... done
Initializing the effective Hamiltonian             ... done
Starting the Coulomb interaction                   ... done (   0.0 sec)
Reading the grid                                   ... done
Mapping shells                                     ... done
Starting the XC term evaluation                    ... done (   0.0 sec)
Transforming the Hamiltonian                       ... done (   0.0 sec)
Diagonalizing the Hamiltonian                      ... done (   0.0 sec)
Back transforming the eigenvectors                 ... done (   0.0 sec)
Now organizing SCF variables                       ... done
                      ------------------
                      INITIAL GUESS DONE (   0.1 sec)
                      ------------------
--------------
SCF ITERATIONS
--------------
ITER       Energy         Delta-E        Max-DP      RMS-DP      [F,P]     Damp
               ***  Starting incremental Fock matrix formation  ***
  0   -397.4815789338   0.000000000000 0.00993341  0.00039356  0.1377752 0.7000
  1   -397.4867399833  -0.005161049528 0.00899428  0.00033879  0.0969277 0.7000
                               ***Turning on DIIS***
  2   -397.4907322718  -0.003992288522 0.02398396  0.00089370  0.0681653 0.0000
  3   -397.5007767787  -0.010044506880 0.00669301  0.00025312  0.0038783 0.0000
  4   -397.5035282172  -0.002751438472 0.00412608  0.00013987  0.0017310 0.0000
  5   -397.4990860015   0.004442215690 0.00344885  0.00010444  0.0008598 0.0000
  6   -397.5019807152  -0.002894713690 0.00052888  0.00001500  0.0001670 0.0000
  7   -397.5023910200  -0.000410304848 0.00013762  0.00000431  0.0000333 0.0000
  8   -397.5023607263   0.000030293764 0.00002325  0.00000108  0.0000042 0.0000
                            ***DIIS convergence achieved***

               *****************************************************
               *                     SUCCESS                       *
               *           SCF CONVERGED AFTER   9 CYCLES          *
               *****************************************************


----------------
TOTAL SCF ENERGY
----------------

Total Energy       :         -397.50235282 Eh          -10816.58893 eV

Components:
Nuclear Repulsion  :            0.00000000 Eh               0.00000 eV
Electronic Energy  :         -397.50235282 Eh          -10816.58893 eV
One Electron Energy:         -549.36662086 Eh          -14949.02575 eV
Two Electron Energy:          151.86426804 Eh            4132.43682 eV

Virial components:
Potential Energy   :         -794.99920564 Eh          -21633.02819 eV
Kinetic Energy     :          397.49685282 Eh           10816.43926 eV
Virial Ratio       :            2.00001384


---------------
SCF CONVERGENCE
---------------

  Last Energy change         ...    7.9039e-06  Tolerance :   1.0000e-08
  Last MAX-Density change    ...    7.9026e-06  Tolerance :   1.0000e-07
  Last RMS-Density change    ...    4.4959e-07  Tolerance :   5.0000e-09
  Last DIIS Error            ...    7.1016e-07  Tolerance :   5.0000e-07

             **** THE GBW FILE WAS UPDATED (16_S.gbw) ****
             **** DENSITY FILE WAS UPDATED (16_S.scfp) ****
             **** ENERGY FILE WAS UPDATED (16_S.en.tmp) ****
----------------------
UHF SPIN CONTAMINATION
----------------------

Expectation value of <S**2>     :     2.012649
Ideal value S*(S+1) for S=1.0   :     2.000000
Deviation                       :     0.012649

             **** THE GBW FILE WAS UPDATED (16_S.gbw) ****
             **** DENSITY FILE WAS UPDATED (16_S.scfp) ****
----------------
ORBITAL ENERGIES
----------------
                 SPIN UP ORBITALS
  NO   OCC          E(Eh)            E(eV) 
   0   1.0000     -92.011708     -2503.7659 
   1   1.0000      -9.013428      -245.2679 
   2   1.0000      -6.706670      -182.4978 
   3   1.0000      -6.706670      -182.4978 
   4   1.0000      -6.686152      -181.9395 
   5   1.0000      -0.990088       -26.9417 
   6   1.0000      -0.486866       -13.2483 
   7   1.0000      -0.486866       -13.2483 
   8   1.0000      -0.415570       -11.3082 
   9   0.0000       0.079600         2.1660 
  10   0.0000       0.079600         2.1660 
  11   0.0000       0.086843         2.3631 
  12   0.0000       0.105741         2.8774 
  13   0.0000       0.208700         5.6790 
  14   0.0000       0.208700         5.6790 
  15   0.0000       0.223591         6.0842 
  16   0.0000       0.223591         6.0842 
  17   0.0000       0.229211         6.2372 
  18   0.0000       0.476433        12.9644 
  19   0.0000       0.476433        12.9644 
  20   0.0000       0.507465        13.8088 
  21   0.0000       0.590860        16.0781 
  22   0.0000       0.590860        16.0781 
  23   0.0000       0.627824        17.0840 
  24   0.0000       0.627824        17.0840 
  25   0.0000       0.642207        17.4753 
  26   0.0000       0.790880        21.5209 
  27   0.0000       1.803605        49.0786 
  28   0.0000       1.803605        49.0786 
  29   0.0000       1.838300        50.0227 
  30   0.0000       1.838300        50.0227 
  31   0.0000       1.847377        50.2697 
  32   0.0000       1.847377        50.2697 
  33   0.0000       1.851185        50.3733 
  34   0.0000       1.881585        51.2005 
  35   0.0000       1.881585        51.2005 
  36   0.0000       1.902764        51.7768 
  37   0.0000       1.902764        51.7768 
  38   0.0000       1.910028        51.9745 
  39   0.0000       2.098664        57.1075 
  40   0.0000       2.098664        57.1075 
  41   0.0000       2.147617        58.4396 
  42   0.0000       7.228002       196.6839 
  43   0.0000       7.228002       196.6839 
  44   0.0000       7.250763       197.3033 
  45   0.0000       7.250763       197.3033 
  46   0.0000       7.258486       197.5135 
  47   0.0000       9.498062       258.4554 
  48   0.0000       9.498062       258.4554 
  49   0.0000       9.531415       259.3630 
  50   0.0000      18.594221       505.9745 

                 SPIN DOWN ORBITALS
  NO   OCC          E(Eh)            E(eV) 
   0   1.0000     -91.991961     -2503.2285 
   1   1.0000      -8.994636      -244.7565 
   2   1.0000      -6.675745      -181.6563 
   3   1.0000      -6.659322      -181.2094 
   4   1.0000      -6.659322      -181.2094 
   5   1.0000      -0.774102       -21.0644 
   6   1.0000      -0.378982       -10.3126 
   7   0.0000       0.000440         0.0120 
   8   0.0000       0.000440         0.0120 
   9   0.0000       0.088250         2.4014 
  10   0.0000       0.104481         2.8431 
  11   0.0000       0.104481         2.8431 
  12   0.0000       0.117976         3.2103 
  13   0.0000       0.240950         6.5566 
  14   0.0000       0.240950         6.5566 
  15   0.0000       0.241045         6.5592 
  16   0.0000       0.242972         6.6116 
  17   0.0000       0.242972         6.6116 
  18   0.0000       0.518098        14.0982 
  19   0.0000       0.546996        14.8845 
  20   0.0000       0.546996        14.8845 
  21   0.0000       0.688505        18.7352 
  22   0.0000       0.694690        18.9035 
  23   0.0000       0.694690        18.9035 
  24   0.0000       0.717651        19.5283 
  25   0.0000       0.717651        19.5283 
  26   0.0000       0.835544        22.7363 
  27   0.0000       1.863889        50.7190 
  28   0.0000       1.863889        50.7190 
  29   0.0000       1.871029        50.9133 
  30   0.0000       1.871029        50.9133 
  31   0.0000       1.873310        50.9753 
  32   0.0000       1.940570        52.8056 
  33   0.0000       1.940570        52.8056 
  34   0.0000       1.944321        52.9077 
  35   0.0000       1.944321        52.9077 
  36   0.0000       1.946119        52.9566 
  37   0.0000       1.946119        52.9566 
  38   0.0000       1.946649        52.9710 
  39   0.0000       2.162688        58.8497 
  40   0.0000       2.172027        59.1038 
  41   0.0000       2.172027        59.1038 
  42   0.0000       7.248831       197.2507 
  43   0.0000       7.248831       197.2507 
  44   0.0000       7.262401       197.6200 
  45   0.0000       7.262401       197.6200 
  46   0.0000       7.266903       197.7425 
  47   0.0000       9.540617       259.6134 
  48   0.0000       9.541137       259.6275 
  49   0.0000       9.541137       259.6275 
  50   0.0000      18.621163       506.7076 

                    ********************************
                    * MULLIKEN POPULATION ANALYSIS *
                    ********************************

--------------------------------------------
MULLIKEN ATOMIC CHARGES AND SPIN POPULATIONS
--------------------------------------------
   0 S :   -0.000000    2.000000
Sum of atomic charges         :   -0.0000000
Sum of atomic spin populations:    2.0000000

-----------------------------------------------------
MULLIKEN REDUCED ORBITAL CHARGES AND SPIN POPULATIONS
-----------------------------------------------------
CHARGE
  0 S s       :     5.994326  s :     5.994326
      pz      :     3.238875  p :     9.998978
      px      :     3.379605
      py      :     3.380498
      dz2     :     0.000113  d :     0.005674
      dxz     :     0.001547
      dyz     :     0.001551
      dx2y2   :     0.000000
      dxy     :     0.002463
      f0      :     0.000093  f :     0.001022
      f+1     :     0.000117
      f-1     :     0.000118
      f+2     :     0.000127
      f-2     :     0.000251
      f+3     :     0.000158
      f-3     :     0.000158

SPIN
  0 S s       :     0.001942  s :     0.001942
      pz      :     0.760491  p :     1.999031
      px      :     0.619716
      py      :     0.618824
      dz2     :    -0.000039  d :    -0.001942
      dxz     :    -0.000530
      dyz     :    -0.000531
      dx2y2   :    -0.000000
      dxy     :    -0.000843
      f0      :     0.000083  f :     0.000969
      f+1     :     0.000117
      f-1     :     0.000117
      f+2     :     0.000127
      f-2     :     0.000224
      f+3     :     0.000150
      f-3     :     0.000150


                     *******************************
                     * LOEWDIN POPULATION ANALYSIS *
                     *******************************

-------------------------------------------
LOEWDIN ATOMIC CHARGES AND SPIN POPULATIONS
-------------------------------------------
   0 S :    0.000000    2.000000

----------------------------------------------------
LOEWDIN REDUCED ORBITAL CHARGES AND SPIN POPULATIONS
----------------------------------------------------
CHARGE
  0 S s       :     5.994326  s :     5.994326
      pz      :     3.238875  p :     9.998978
      px      :     3.379605
      py      :     3.380498
      dz2     :     0.000113  d :     0.005674
      dxz     :     0.001547
      dyz     :     0.001551
      dx2y2   :     0.000000
      dxy     :     0.002463
      f0      :     0.000093  f :     0.001022
      f+1     :     0.000117
      f-1     :     0.000118
      f+2     :     0.000127
      f-2     :     0.000251
      f+3     :     0.000158
      f-3     :     0.000158

SPIN
  0 S s       :     0.001942  s :     0.001942
      pz      :     0.760491  p :     1.999031
      px      :     0.619716
      py      :     0.618824
      dz2     :    -0.000039  d :    -0.001942
      dxz     :    -0.000530
      dyz     :    -0.000531
      dx2y2   :    -0.000000
      dxy     :    -0.000843
      f0      :     0.000083  f :     0.000969
      f+1     :     0.000117
      f-1     :     0.000117
      f+2     :     0.000127
      f-2     :     0.000224
      f+3     :     0.000150
      f-3     :     0.000150


                      *****************************
                      * MAYER POPULATION ANALYSIS *
                      *****************************

  NA   - Mulliken gross atomic population
  ZA   - Total nuclear charge
  QA   - Mulliken gross atomic charge
  VA   - Mayer's total valence
  BVA  - Mayer's bonded valence
  FA   - Mayer's free valence

  ATOM       NA         ZA         QA         VA         BVA        FA
  0 S     16.0000    16.0000    -0.0000     2.0253     0.0000     2.0253

  Mayer bond orders larger than 0.100000


-------
TIMINGS
-------

Total SCF time: 0 days 0 hours 0 min 2 sec 

Total time                  ....       2.206 sec
Sum of individual times     ....       1.682 sec  ( 76.2%)

Fock matrix formation       ....       1.359 sec  ( 61.6%)
Diagonalization             ....       0.035 sec  (  1.6%)
Density matrix formation    ....       0.003 sec  (  0.1%)
Population analysis         ....       0.060 sec  (  2.7%)
Initial guess               ....       0.097 sec  (  4.4%)
Orbital Transformation      ....       0.000 sec  (  0.0%)
Orbital Orthonormalization  ....       0.000 sec  (  0.0%)
DIIS solution               ....       0.101 sec  (  4.6%)


           ************************************************************
           *        Program running with 15 parallel MPI-processes    *
           *              working on a common directory               *
           ************************************************************


------------------------------------------------------------------------------- 
                              ORCA-MATRIX DRIVEN CI                            
------------------------------------------------------------------------------- 

--------------------------------
AUTOMATIC CHOICE OF INCORE LEVEL
--------------------------------

Memory available                           ...   2500.00 MB
Memory needed for S+T                      ...      0.40 MB
Memory needed for J+K                      ...      0.81 MB
Memory needed for DIIS                     ...      5.65 MB
Memory needed for 3-ext                    ...      2.26 MB
Memory needed for 4-ext                    ...     12.15 MB
Memory needed for triples                  ...      2.83 MB
 -> Final InCoreLevel    ... 5
 -> check shows that triples correction can be computed


Wavefunction type
-----------------
Correlation treatment                      ...      CCSD     
Single excitations                         ... ON
Orbital optimization                       ... OFF
Calculation of Z vector                    ... OFF
Calculation of Brueckner orbitals          ... OFF
Perturbative triple excitations            ... ON
Calculation of F12 correction              ... OFF
Frozen core treatment                      ... chemical core (10 el)
Reference Wavefunction                     ... UHF
  Alpha-MOs occ    :     5 ...    8 (  4 MO's/  4 electrons)
  Beta-MOs occ     :     5 ...    6 (  2 MO's/  2 electrons)
  Alpha-MOs virt   :     9 ...   50 ( 42 MO's              )
  Beta-MOs virt    :     7 ...   50 ( 44 MO's              )
Number of AO's                             ...     51
Number of electrons                        ...     16
Number of correlated electrons             ...      6

Algorithmic settings
--------------------
Integral transformation                    ... AO direct full transformation
K(C) Formation                             ... FULL-MO TRAFO
Maximum number of iterations               ...        50
Convergence tolerance (max. residuum)      ... 1.000e-05
Level shift for amplitude update           ... 2.000e-01
Maximum number of DIIS vectors             ...         7
DIIS turned on at iteration                ...         0
Damping before turning on DIIS             ...     0.500
Damping after turning on DIIS              ...     0.000
Pair specific amplitude update             ... OFF
Natural orbital iterations                 ... OFF
Perturbative natural orbital generation    ... OFF
Printlevel                                 ... 2

Memory handling:
----------------
Maximum memory for working arrays          ...   2500 MB
Data storage in matrix containers          ... UNCOMPRESSED
Data type for integral storage             ... DOUBLE
In-Core Storage of quantities:
   Amplitudes+Sigma Vector      ... YES
   J+K operators                ... YES
   DIIS vectors                 ... YES
   3-external integrals         ... YES
   4-external integrals         ... YES


Initializing the integral package          ... done
Warning: reference  - re-canonicalizations have been set to INT 1 VIRT 1

--------------------------
UNRESTRICTED FOCK OPERATOR
--------------------------

<ss|ss>:          231 b            0 skpd (  0.0%)    0.000 s ( 0.001 ms/b)
<ss|sp>:          756 b            0 skpd (  0.0%)    0.000 s ( 0.001 ms/b)
<ss|sd>:          504 b            0 skpd (  0.0%)    0.000 s ( 0.000 ms/b)
<ss|sf>:          126 b            0 skpd (  0.0%)    0.000 s ( 0.001 ms/b)
<ss|pp>:          441 b            0 skpd (  0.0%)    0.000 s ( 0.001 ms/b)
<ss|pd>:          504 b            0 skpd (  0.0%)    0.000 s ( 0.000 ms/b)
<ss|pf>:          126 b            0 skpd (  0.0%)    0.000 s ( 0.001 ms/b)
<ss|dd>:          210 b            0 skpd (  0.0%)    0.000 s ( 0.000 ms/b)
<ss|df>:           84 b            0 skpd (  0.0%)    0.000 s ( 0.001 ms/b)
<ss|ff>:           21 b            0 skpd (  0.0%)    0.000 s ( 0.005 ms/b)
<sp|sp>:          666 b            0 skpd (  0.0%)    0.000 s ( 0.001 ms/b)
<sp|sd>:          864 b            0 skpd (  0.0%)    0.000 s ( 0.000 ms/b)
<sp|sf>:          216 b            0 skpd (  0.0%)    0.000 s ( 0.001 ms/b)
<sp|pp>:          756 b            0 skpd (  0.0%)    0.001 s ( 0.001 ms/b)
<sp|pd>:          864 b            0 skpd (  0.0%)    0.000 s ( 0.000 ms/b)
<sp|pf>:          216 b            0 skpd (  0.0%)    0.000 s ( 0.002 ms/b)
<sp|dd>:          360 b            0 skpd (  0.0%)    0.000 s ( 0.000 ms/b)
<sp|df>:          144 b            0 skpd (  0.0%)    0.000 s ( 0.002 ms/b)
<sp|ff>:           36 b            0 skpd (  0.0%)    0.000 s ( 0.009 ms/b)
<sd|sd>:          300 b            0 skpd (  0.0%)    0.000 s ( 0.000 ms/b)
<sd|sf>:          144 b            0 skpd (  0.0%)    0.000 s ( 0.001 ms/b)
<sd|pp>:          504 b            0 skpd (  0.0%)    0.001 s ( 0.001 ms/b)
<sd|pd>:          576 b            0 skpd (  0.0%)    0.000 s ( 0.001 ms/b)
<sd|pf>:          144 b            0 skpd (  0.0%)    0.000 s ( 0.002 ms/b)
<sd|dd>:          240 b            0 skpd (  0.0%)    0.000 s ( 0.001 ms/b)
<sd|df>:           96 b            0 skpd (  0.0%)    0.000 s ( 0.003 ms/b)
<sd|ff>:           24 b            0 skpd (  0.0%)    0.000 s ( 0.017 ms/b)
<sf|sf>:           21 b            0 skpd (  0.0%)    0.000 s ( 0.002 ms/b)
<sf|pp>:          126 b            0 skpd (  0.0%)    0.000 s ( 0.002 ms/b)
<sf|pd>:          144 b            0 skpd (  0.0%)    0.000 s ( 0.001 ms/b)
<sf|pf>:           36 b            0 skpd (  0.0%)    0.000 s ( 0.005 ms/b)
<sf|dd>:           60 b            0 skpd (  0.0%)    0.000 s ( 0.001 ms/b)
<sf|df>:           24 b            0 skpd (  0.0%)    0.000 s ( 0.006 ms/b)
<sf|ff>:            6 b            0 skpd (  0.0%)    0.000 s ( 0.034 ms/b)
<pp|pp>:          231 b            0 skpd (  0.0%)    0.001 s ( 0.002 ms/b)
<pp|pd>:          504 b            0 skpd (  0.0%)    0.000 s ( 0.001 ms/b)
<pp|pf>:          126 b            0 skpd (  0.0%)    0.000 s ( 0.003 ms/b)
<pp|dd>:          210 b            0 skpd (  0.0%)    0.000 s ( 0.001 ms/b)
<pp|df>:           84 b            0 skpd (  0.0%)    0.000 s ( 0.004 ms/b)
<pp|ff>:           21 b            0 skpd (  0.0%)    0.001 s ( 0.024 ms/b)
<pd|pd>:          300 b            0 skpd (  0.0%)    0.001 s ( 0.002 ms/b)
<pd|pf>:          144 b            0 skpd (  0.0%)    0.001 s ( 0.005 ms/b)
<pd|dd>:          240 b            0 skpd (  0.0%)    0.001 s ( 0.002 ms/b)
<pd|df>:           96 b            0 skpd (  0.0%)    0.001 s ( 0.008 ms/b)
<pd|ff>:           24 b            0 skpd (  0.0%)    0.001 s ( 0.042 ms/b)
<pf|pf>:           21 b            0 skpd (  0.0%)    0.000 s ( 0.010 ms/b)
<pf|dd>:           60 b            0 skpd (  0.0%)    0.000 s ( 0.003 ms/b)
<pf|df>:           24 b            0 skpd (  0.0%)    0.000 s ( 0.016 ms/b)
<pf|ff>:            6 b            0 skpd (  0.0%)    0.000 s ( 0.074 ms/b)
<dd|dd>:           55 b            0 skpd (  0.0%)    0.000 s ( 0.005 ms/b)
<dd|df>:           40 b            0 skpd (  0.0%)    0.001 s ( 0.013 ms/b)
<dd|ff>:           10 b            0 skpd (  0.0%)    0.001 s ( 0.067 ms/b)
<df|df>:           10 b            0 skpd (  0.0%)    0.000 s ( 0.036 ms/b)
<df|ff>:            4 b            0 skpd (  0.0%)    0.001 s ( 0.126 ms/b)
<ff|ff>:            1 b            0 skpd (  0.0%)    0.000 s ( 0.249 ms/b)
Recanonicalizing the internal orbitals
Recanonicalizing the virtual orbitals
Time needed for Fock operator              ...            0.044 sec
Reference energy                           ...   -397.502352613
Warning: for UHF the TrafoType has to be JK
Warning: for UHF the K(C)-option cannot be MO but must be AOX

-------------------------------
PARTIAL EXCHANGE TRANSFORMATION
-------------------------------

Transformation type                        ... two-operators
Generation of integrals (i,mue|j,nue)      ... ON
Generation of integrals (mue,kappa|nue,tau)... ON
Generation of integrals (i,mue|a,nue)      ... ON
Dimension of the basis                     ...   51
Number of internal alpha-MOs               ...    4 (   5-   8)
Number of internal beta-MOs                ...    2 (   5-   6)
Number of external alpha-MOs               ...   42 (   9-  50)
Number of external beta-MOs                ...   44 (   7-  50)
Pair cutoff                                ... 0.000e+00 Eh
Number of AO pairs in the trafo            ... 1326
Total Number of distinct AO pairs          ... 1326
Memory devoted for trafo                   ... 2500.0 MB 
Max. Number of MO pairs treated together   ... 125982      
Number Format for Storage                  ... Double (8 Byte)
Integral package used                      ... LIBINT

Starting integral evaluation:
    ... done with AO integral generation
Closing buffer AOK[aa] ( 0.00 GB; CompressionRatio= 0.91)
Closing buffer AOK[bb] ( 0.00 GB; CompressionRatio= 0.73)
Closing buffer AOK[ab] ( 0.00 GB; CompressionRatio= 0.84)
Closing buffer AOK[ba] ( 0.00 GB; CompressionRatio= 0.84)
Collecting buffer AOK 
Closing buffer IAAO1[aa] ( 0.00 GB; CompressionRatio= 0.99)
Closing buffer IAAO1[bb] ( 0.00 GB; CompressionRatio= 0.98)
Closing buffer IAAO1[ab] ( 0.00 GB; CompressionRatio= 0.99)
Closing buffer IAAO1[ba] ( 0.00 GB; CompressionRatio= 0.98)
Closing buffer IAAO2[aa] ( 0.00 GB; CompressionRatio= 0.99)
Closing buffer IAAO2[bb] ( 0.00 GB; CompressionRatio= 0.98)
Closing buffer IAAO2[ab] ( 0.00 GB; CompressionRatio= 0.99)
Closing buffer IAAO2[ba] ( 0.00 GB; CompressionRatio= 0.98)
Collecting buffer IAAO 
Closing buffer PRQS    ( 0.00 GB; CompressionRatio= 1.00)
Collecting buffer PRQS 
Number of alpha/alpha MO pairs in trafo    ...   10
Number of beta /beta  MO pairs in trafo    ...    3
Number of alpha/ beta MO pairs in trafo    ...    8
------------------------
SORTING OF (i,mue|j,nue)
------------------------

SORTING OF ALPHA/ALPHA PAIRS
IBATCH = 1 of  1
Closing buffer KAO[aa] ( 0.00 GB; CompressionRatio= 1.00)
Collecting buffer KAO 
SORTING OF BETA /BETA  PAIRS
IBATCH = 1 of  1
Closing buffer KAO[bb] ( 0.00 GB; CompressionRatio= 1.00)
Collecting buffer KAO 
SORTING OF ALPHA/BETA  PAIRS
IBATCH = 1 of  1
Closing buffer KAO[ab] ( 0.00 GB; CompressionRatio= 0.999423631124)
Collecting buffer KAO[ab] 
------------------------
SORTING OF (i,mue|a,nue)
------------------------

Number of alpha/alpha (i,a) pairs in trafo  ...  168
Number of beta /beta  (i,a) pairs in trafo  ...   88
Number of alpha/ beta (i,a) pairs in trafo  ...  176
Number of beta /alpha (i,a) pairs in trafo  ...   84
Setting up the alpha/alpha list             ... done
Setting up the beta /beta  list             ... done
Setting up the alpha/beta  list             ... done
Setting up the beta /alpha list             ... done
    ... Now sorting (i,mue|a,nue)integrals
    ... Integrals (i,b|a,c) will be made on the fly
SORTING OF ALPHA/ALPHA PAIRS
IBATCH = 1 of  1
Closing buffer IPAQ[aa]  0.00 GB; CompressionRatio= 1.00)
SORTING OF BETA /BETA  PAIRS
IBATCH = 1 of  1
Closing buffer IPAQ[bb]( 0.00 GB; CompressionRatio= 1.00)
SORTING OF ALPHA/BETA  PAIRS (NMatSort_ab=12)
IBATCH = 1 of  1
Closing buffer IPAQ[ab]( 0.00 GB; CompressionRatio= 1.00)
SORTING OF BETA/ALPHA  PAIRS
IBATCH = 1 of  1
Closing buffer IPAQ[ba]( 0.00 GB; CompressionRatio= 1.00)
N(AO-Batches) Done                         ...       867 
N(AO-Batches) Skipped                      ...         0 
N(IJ)-pairs Skipped                        ...         0 
TOTAL TIME for half transformation         ...     2.625 sec
AO-integral generation                     ...     0.004 sec
Half transformation                        ...     0.181 sec
K-integral sorting                         ...     0.532 sec
<ss|**>: 
------------------------------
PARTIAL COULOMB TRANSFORMATION
------------------------------

Transformation type                        ... two-operators
Dimension of the basis                     ...   51
Number of internal alpha-MOs               ...    4 (5-8)
Number of internal beta-MOs                ...    2 (5-6)
Pair cutoff                                ... 0.000e+00 Eh
Number of AO pairs included in the trafo   ... 1326
Total Number of distinct AO pairs          ... 1326
Memory devoted for trafo                   ... 2500.0 MB 
Max. Number of MO pairs treated together   ... 247119      
Max. Number of MOs treated per batch       ... 4845      
Number Format for Storage                  ... Double (8 Byte)
AO-integral source                         ... DIRECT
Integral package used                      ... LIBINT

Starting integral evaluation:
<sp|**>:         3213 b        0 skpd     0.004 s (  0.001 ms/b)
        5508 b        0 skpd     0.018 s (  0.003 ms/b)
<sd|**>:         3672 b        0 skpd     0.022 s (  0.006 ms/b)
<sf|**>:          918 b        0 skpd     0.011 s (  0.013 ms/b)
<pp|**>:         3213 b        0 skpd     0.036 s (  0.011 ms/b)
<pd|**>:         3672 b        0 skpd     0.078 s (  0.021 ms/b)
<pf|**>:          918 b        0 skpd     0.029 s (  0.032 ms/b)
<dd|**>:         1530 b        0 skpd     0.040 s (  0.026 ms/b)
<df|**>:          612 b        0 skpd     0.033 s (  0.054 ms/b)
<ff|**>:          153 b        0 skpd     0.018 s (  0.116 ms/b)
Closing buffer AOJ[aa] ( 0.00 GB; CompressionRatio= 0.87)
Closing buffer AOJ[bb] ( 0.00 GB; CompressionRatio= 0.00)
Collecting buffer AOJ 
    ... done with AO integral generation
Number of Alpha-MO pairs included          ...   10
Number of Beta-MO pairs included           ...    3
    ... Now sorting integrals
SORTING ALPHA/ALPHA PAIRS
IBATCH = 1 of  1
Closing buffer JAO[aa] ( 0.00 GB; CompressionRatio= 1.00)
SORTING BETA/BETA PAIRS
IBATCH = 1 of  1
Closing buffer JAO[bb] ( 0.00 GB; CompressionRatio= 1.00)
Collecting buffer JAO 
TOTAL TIME for half transformation         ...     0.470 sec
AO-integral generation                     ...     0.107 sec
Half transformation                        ...     0.184 sec
J-integral sorting                         ...     0.051 sec

-------------------------- SECOND HALF TRANSFORMATION -------------------------
Formation of (ij|kl),(ij|ka), (ij|ab)      ... ok (     0.066 sec)
Formation of (ik|jl),(ik|ja), (ia|jb)      ... ok (     0.112 sec)


-----------------------
SPIN UNRESTRICTED GUESS
-----------------------

Entering MDCI_UHF_Guess, Tailored=0
Spin-components of the MP2 energy:
EMP2(aa)=     -0.024151840
EMP2(bb)=     -0.003131122
EMP2(ab)=     -0.089914394

Initial guess performed in     0.002 sec
E(0)                                       ...   -397.502352613
E(MP2)                                     ...     -0.117197356
Initial E(tot)                             ...   -397.619549969
<T|T>                                      ...      0.049321029
Number of pairs included                   ... 15

------------------------------------------------
                  UHF COUPLED CLUSTER ITERATIONS
------------------------------------------------

Number of amplitudes to be optimized       ...        21172

Iter       E(tot)           E(Corr)          Delta-E          Residual     Time      <S|S>**1/2
  0   -397.619549969     -0.117197356     -0.000000000      0.020085206    0.09      0.000008349
                           *** Turning on DIIS ***
  1   -397.635659970     -0.133307357     -0.016110001      0.010109837    0.06      0.010197763
  2   -397.642298485     -0.139945873     -0.006638515      0.002911966    0.05      0.016951667
  3   -397.642871391     -0.140518778     -0.000572906      0.000464238    0.05      0.019205759
  4   -397.642976501     -0.140623888     -0.000105110      0.000134186    0.05      0.019706467
  5   -397.642982990     -0.140630377     -0.000006489      0.000068545    0.05      0.019755617
  6   -397.642983551     -0.140630938     -0.000000560      0.000024850    0.05      0.019750948
  7   -397.642983969     -0.140631356     -0.000000418      0.000006772    0.05      0.019740914
               --- The Coupled-Cluster iterations have converged ---

----------------------
COUPLED CLUSTER ENERGY
----------------------

E(0)                                       ...   -397.502352613
E(CORR)                                    ...     -0.140631356
E(TOT)                                     ...   -397.642983969
Singles norm <S|S>**1/2                    ...      0.019740914 ( 0.008788554, 0.010952360)  
T1 diagnostic                              ...      0.008059195                              

------------------
LARGEST AMPLITUDES
------------------
   8a-> 25a   6b-> 21b       0.043997
   7a-> 21a   5b->  8b       0.037578
   6a-> 22a   5b->  8b       0.037578
   7a-> 22a   5b->  7b       0.037578
   6a-> 21a   5b->  7b       0.037578
   8a-> 23a   5b->  7b       0.036184
   8a-> 24a   5b->  8b       0.036184
   8a-> 23a   6b-> 23b       0.034323
   8a-> 24a   6b-> 22b       0.034323
   8a-> 20a   6b-> 18b       0.030307
   8a-> 17a   6b-> 21b       0.028472
   7a-> 21a   6a-> 22a       0.028336
   7a-> 22a   6a-> 21a       0.028336
   7a-> 13a   5b->  8b       0.027401
   7a-> 14a   5b->  7b       0.027401
   6a-> 14a   5b->  8b       0.027401

----------------------
UHF TRIPLES CORRECTION (Algorithm 1)
----------------------

Multiplier for the singles contribution    ...      1.000000000

SPIN-CASE Alpha-Alpha-Alpha:
10% done
20% done
30% done
40% done
50% done
60% done
70% done
80% done
90% done


SPIN-CASE Beta-Beta-Beta:

SPIN-CASE Alpha-Alpha-Beta:
10% done
20% done
30% done
40% done
50% done
60% done
70% done
80% done
90% done


SPIN-CASE Beta-Beta-Alpha:
10% done
20% done
30% done
40% done
50% done
60% done
70% done
80% done
90% done


Triples Correction (T)                     ...     -0.004904150
    alpha-alpha-alpha ... -0.000250714 (  5.1%)
    alpha-alpha-beta  ... -0.003541565 ( 72.2%)
    alpha-beta -beta  ... -0.001111871 ( 22.7%)
    beta -beta -beta  ...  0.000000000 ( -0.0%)
Scaling of triples based on CCSD energies (Peterson et al. Molecular Physics 113, 1551 (2015))
E(T*) = f*E(T) where f = E(F12-CCSD)/E(CCSD) 
f = CCSD (with F12)/ CCSD (without F12)    ...      1.000000000
Scaled triples correction (T)              ...     -0.004904150

Final correlation energy                   ...     -0.145535506
E(CCSD)                                    ...   -397.642983969
E(CCSD(T))                                 ...   -397.647888119



        !!!!!!!!!!!!!!!!!!!!!!!!!!!!!!!!!!!!!!!!!!!!!!!!!!!!!!!!!!!!!!!!!!!!!!!!!! 
        !  Warning: Densities are linearized densities                           !
        !!!!!!!!!!!!!!!!!!!!!!!!!!!!!!!!!!!!!!!!!!!!!!!!!!!!!!!!!!!!!!!!!!!!!!!!!! 

NORM  =      1.076057783 sqrt=     1.037332050
W(HF) =      0.929318124
------------------------------------------------------------------------------
                           ORCA POPULATION ANALYSIS
------------------------------------------------------------------------------
Input electron density              ... 16_S.mdcip
Input spin density                  ... 16_S.mdcir
BaseName (.gbw .S,...)              ... 16_S

                    ********************************
                    * MULLIKEN POPULATION ANALYSIS *
                    ********************************

------------------------------------------
MULLIKEN ATOMIC CHARGES AND SPIN DENSITIES
------------------------------------------
   0 S :   -0.000000    2.000000
Sum of atomic charges       :   -0.0000000
Sum of atomic spin densities:    2.0000000

---------------------------------------------------
MULLIKEN REDUCED ORBITAL CHARGES AND SPIN DENSITIES
---------------------------------------------------
CHARGE
  0 S s       :     5.958748  s :     5.958748
      pz      :     3.224298  p :     9.943172
      px      :     3.359010
      py      :     3.359864
      dz2     :     0.017425  d :     0.089314
      dxz     :     0.017631
      dyz     :     0.017635
      dx2y2   :     0.018326
      dxy     :     0.018297
      f0      :     0.001176  f :     0.008766
      f+1     :     0.001197
      f-1     :     0.001198
      f+2     :     0.001254
      f-2     :     0.001247
      f+3     :     0.001347
      f-3     :     0.001347

SPIN
  0 S s       :     0.023576  s :     0.023576
      pz      :     0.735617  p :     1.933642
      px      :     0.599444
      py      :     0.598580
      dz2     :     0.008427  d :     0.039457
      dxz     :     0.008228
      dyz     :     0.008223
      dx2y2   :     0.007201
      dxy     :     0.007378
      f0      :     0.000450  f :     0.003325
      f+1     :     0.000455
      f-1     :     0.000455
      f+2     :     0.000476
      f-2     :     0.000468
      f+3     :     0.000511
      f-3     :     0.000511


                     *******************************
                     * LOEWDIN POPULATION ANALYSIS *
                     *******************************

-----------------------------------------
LOEWDIN ATOMIC CHARGES AND SPIN DENSITIES
-----------------------------------------
   0 S :    0.000000    2.000000

--------------------------------------------------
LOEWDIN REDUCED ORBITAL CHARGES AND SPIN DENSITIES
--------------------------------------------------
CHARGE
  0 S s       :     5.958748  s :     5.958748
      pz      :     3.224298  p :     9.943172
      px      :     3.359010
      py      :     3.359864
      dz2     :     0.017425  d :     0.089314
      dxz     :     0.017631
      dyz     :     0.017635
      dx2y2   :     0.018326
      dxy     :     0.018297
      f0      :     0.001176  f :     0.008766
      f+1     :     0.001197
      f-1     :     0.001198
      f+2     :     0.001254
      f-2     :     0.001247
      f+3     :     0.001347
      f-3     :     0.001347

SPIN
  0 S s       :     0.023576  s :     0.023576
      pz      :     0.735617  p :     1.933642
      px      :     0.599444
      py      :     0.598580
      dz2     :     0.008427  d :     0.039457
      dxz     :     0.008228
      dyz     :     0.008223
      dx2y2   :     0.007201
      dxy     :     0.007378
      f0      :     0.000450  f :     0.003325
      f+1     :     0.000455
      f-1     :     0.000455
      f+2     :     0.000476
      f-2     :     0.000468
      f+3     :     0.000511
      f-3     :     0.000511


                      *****************************
                      * MAYER POPULATION ANALYSIS *
                      *****************************

  NA   - Mulliken gross atomic population
  ZA   - Total nuclear charge
  QA   - Mulliken gross atomic charge
  VA   - Mayer's total valence
  BVA  - Mayer's bonded valence
  FA   - Mayer's free valence

  ATOM       NA         ZA         QA         VA         BVA        FA
  0 S     16.0000    16.0000    -0.0000     2.4577     0.0000     2.4577





------------------------------------------------------------------------------- 
                                     TIMINGS                                   
------------------------------------------------------------------------------- 


Total execution time                   ...        9.098 sec

Fock Matrix Formation                  ...        0.044 sec (  0.5%)
Initial Guess                          ...        0.002 sec (  0.0%)
DIIS Solver                            ...        0.010 sec (  0.1%)
State Vector Update                    ...        0.001 sec (  0.0%)
Sigma-vector construction              ...        0.454 sec (  5.0%)
  <D|H|D>(2-ext)                       ...        0.002 sec (  0.3% of sigma)
  <D|H|D>(4-ext)                       ...        0.262 sec ( 57.8% of sigma)
  <S|H|0>                              ...        0.003 sec (  0.6% of sigma)
  <D|H|S>(1-ext)                       ...        0.002 sec (  0.5% of sigma)
  Fock-dressing                        ...        0.108 sec ( 23.8% of sigma)
  (ij|ab),(ia|jb)-dressing             ...        0.051 sec ( 11.2% of sigma)
Total Time for computing (T)           ...        0.020 sec (  0.2% of ALL)
  I/O of integral and amplitudes       ...        0.005 sec ( 27.0% of (T))
  External N**7 contributions          ...        0.004 sec ( 21.3% of (T))
  N**6 triples energy contributions    ...        0.008 sec ( 39.0% of (T))


-------------------------   --------------------
FINAL SINGLE POINT ENERGY      -397.647888118692
-------------------------   --------------------


                            ***************************************
                            *     ORCA property calculations      *
                            ***************************************

                                    ---------------------
                                    Active property flags
                                    ---------------------
   (+) Dipole Moment


------------------------------------------------------------------------------
                       ORCA ELECTRIC PROPERTIES CALCULATION
------------------------------------------------------------------------------

Dipole Moment Calculation                       ... on
Quadrupole Moment Calculation                   ... off
Polarizability Calculation                      ... off
GBWName                                         ... 16_S.gbw
Electron density file                           ... 16_S.scfp
The origin for moment calculation is the CENTER OF MASS  = ( 0.000000,  0.000000  0.000000)

-------------
DIPOLE MOMENT
-------------
                                X             Y             Z
Electronic contribution:      0.00000       0.00000      -0.00000
Nuclear contribution   :      0.00000       0.00000       0.00000
                        -----------------------------------------
Total Dipole Moment    :      0.00000       0.00000      -0.00000
                        -----------------------------------------
Magnitude (a.u.)       :      0.00000
Magnitude (Debye)      :      0.00000



--------------------
Rotational spectrum 
--------------------
 
Rotational constants in cm-1:     0.000000     0.000000     0.000000 
Rotational constants in MHz :     0.000000     0.000000     0.000000 

 Dipole components along the rotational axes: 
x,y,z [a.u.] :     0.000000     0.000000    -0.000000 
x,y,z [Debye]:     0.000000     0.000000    -0.000000 

 

                           *** MDCI DENSITY ***

------------------------------------------------------------------------------
                       ORCA ELECTRIC PROPERTIES CALCULATION
------------------------------------------------------------------------------

Dipole Moment Calculation                       ... on
Quadrupole Moment Calculation                   ... off
Polarizability Calculation                      ... off
GBWName                                         ... 16_S.gbw
Electron density file                           ... 16_S.mdcip
The origin for moment calculation is the CENTER OF MASS  = ( 0.000000,  0.000000  0.000000)

-------------
DIPOLE MOMENT
-------------
                                X             Y             Z
Electronic contribution:      0.00000       0.00000      -0.00000
Nuclear contribution   :      0.00000       0.00000       0.00000
                        -----------------------------------------
Total Dipole Moment    :      0.00000       0.00000      -0.00000
                        -----------------------------------------
Magnitude (a.u.)       :      0.00000
Magnitude (Debye)      :      0.00000



--------------------
Rotational spectrum 
--------------------
 
Rotational constants in cm-1:     0.000000     0.000000     0.000000 
Rotational constants in MHz :     0.000000     0.000000     0.000000 

 Dipole components along the rotational axes: 
x,y,z [a.u.] :     0.000000     0.000000    -0.000000 
x,y,z [Debye]:     0.000000     0.000000    -0.000000 

 

Timings for individual modules:

Sum of individual times         ...       12.724 sec (=   0.212 min)
GTO integral calculation        ...        0.686 sec (=   0.011 min)   5.4 %
SCF iterations                  ...        2.549 sec (=   0.042 min)  20.0 %
MDCI module                     ...        9.490 sec (=   0.158 min)  74.6 %
                             ****ORCA TERMINATED NORMALLY****
TOTAL RUN TIME: 0 days 0 hours 0 minutes 13 seconds 409 msec
