
                                 *****************
                                 * O   R   C   A *
                                 *****************

           --- An Ab Initio, DFT and Semiempirical electronic structure package ---

                  #######################################################
                  #                        -***-                        #
                  #          Department of theory and spectroscopy      #
                  #               Directorship: Frank Neese             #
                  #        Max Planck Institute fuer Kohlenforschung    #
                  #                Kaiser Wilhelm Platz 1               #
                  #                 D-45470 Muelheim/Ruhr               #
                  #                      Germany                        #
                  #                                                     #
                  #                  All rights reserved                #
                  #                        -***-                        #
                  #######################################################


                         Program Version 4.2.0 -  RELEASE  -


 With contributions from (in alphabetic order):
   Daniel Aravena         : Magnetic Suceptibility
   Michael Atanasov       : Ab Initio Ligand Field Theory (pilot matlab implementation)
   Alexander A. Auer      : GIAO ZORA, VPT2
   Ute Becker             : Parallelization
   Giovanni Bistoni       : ED, misc. LED, open-shell LED, HFLED
   Martin Brehm           : Molecular dynamics
   Dmytro Bykov           : SCF Hessian
   Vijay G. Chilkuri      : MRCI spin determinant printing, contributions to CSF-ICE
   Dipayan Datta          : RHF DLPNO-CCSD density
   Achintya Kumar Dutta   : EOM-CC, STEOM-CC
   Dmitry Ganyushin       : Spin-Orbit,Spin-Spin,Magnetic field MRCI
   Miquel Garcia          : C-PCM Hessian, Gaussian charge scheme
   Yang Guo               : DLPNO-NEVPT2, CIM, IAO-localization
   Andreas Hansen         : Spin unrestricted coupled pair/coupled cluster methods
   Benjamin Helmich-Paris : CASSCF linear response (MC-RPA)
   Lee Huntington         : MR-EOM, pCC
   Robert Izsak           : Overlap fitted RIJCOSX, COSX-SCS-MP3, EOM
   Christian Kollmar      : KDIIS, OOCD, Brueckner-CCSD(T), CCSD density
   Simone Kossmann        : Meta GGA functionals, TD-DFT gradient, OOMP2, MP2 Hessian
   Martin Krupicka        : AUTO-CI
   Lucas Lang             : DCDCAS
   Dagmar Lenk            : GEPOL surface, SMD
   Dimitrios Liakos       : Extrapolation schemes; Compound Job, initial MDCI parallelization
   Dimitrios Manganas     : Further ROCIS development; embedding schemes
   Dimitrios Pantazis     : SARC Basis sets
   Taras Petrenko         : DFT Hessian,TD-DFT gradient, ASA, ECA, R-Raman, ABS, FL, XAS/XES, NRVS
   Peter Pinski           : DLPNO-MP2, DLPNO-MP2 Gradient
   Christoph Reimann      : Effective Core Potentials
   Marius Retegan         : Local ZFS, SOC
   Christoph Riplinger    : Optimizer, TS searches, QM/MM, DLPNO-CCSD(T), (RO)-DLPNO pert. Triples
   Tobias Risthaus        : Range-separated hybrids, TD-DFT gradient, RPA, STAB
   Michael Roemelt        : Original ROCIS implementation
   Masaaki Saitow         : Open-shell DLPNO-CCSD energy and density
   Barbara Sandhoefer     : DKH picture change effects
   Avijit Sen             : IP-ROCIS
   Kantharuban Sivalingam : CASSCF convergence, NEVPT2, FIC-MRCI
   Bernardo de Souza      : ESD, SOC TD-DFT
   Georgi Stoychev        : AutoAux, RI-MP2 NMR
   Willem Van den Heuvel  : Paramagnetic NMR
   Boris Wezisla          : Elementary symmetry handling
   Frank Wennmohs         : Technical directorship


 We gratefully acknowledge several colleagues who have allowed us to
 interface, adapt or use parts of their codes:
   Stefan Grimme, W. Hujo, H. Kruse,             : VdW corrections, initial TS optimization,
                  C. Bannwarth                     DFT functionals, gCP, sTDA/sTD-DF
   Ed Valeev, F. Pavosevic, A. Kumar             : LibInt (2-el integral package), F12 methods
   Garnet Chan, S. Sharma, J. Yang, R. Olivares  : DMRG
   Ulf Ekstrom                                   : XCFun DFT Library
   Mihaly Kallay                                 : mrcc  (arbitrary order and MRCC methods)
   Andreas Klamt, Michael Diedenhofen            : otool_cosmo (COSMO solvation model)
   Jiri Pittner, Ondrej Demel                    : Mk-CCSD
   Frank Weinhold                                : gennbo (NPA and NBO analysis)
   Christopher J. Cramer and Donald G. Truhlar   : smd solvation model
   Lars Goerigk                                  : TD-DFT with DH, B97 family of functionals
   V. Asgeirsson, H. Jonsson                     : NEB implementation
   FAccTs GmbH                                   : IRC, NEB, NEB-TS, Multilevel, MM, QM/MM, CI optimization
   S Lehtola, MJT Oliveira, MAL Marques          : LibXC Library


 Your calculation uses the libint2 library for the computation of 2-el integrals
 For citations please refer to: http://libint.valeyev.net

 Your ORCA version has been built with support for libXC version: 4.2.3
 For citations please refer to: https://tddft.org/programs/libxc/

 This ORCA versions uses:
   CBLAS   interface :  Fast vector & matrix operations
   LAPACKE interface :  Fast linear algebra routines
   SCALAPACK package :  Parallel linear algebra routines


----- Orbital basis set information -----
Your calculation utilizes the basis: def2-TZVPPD
   F. Weigend and R. Ahlrichs, Phys. Chem. Chem. Phys. 7, 3297 (2005).
   D. Rappoport and F. Furche, J. Chem. Phys. 133 134105 (2010).

================================================================================
                                        WARNINGS
                       Please study these warnings very carefully!
================================================================================


WARNING: your system is open-shell and RHF/RKS was chosen
  ===> : WILL SWITCH to UHF/UKS


WARNING: MDCI localization with Augmented Hessian Foster-Boys
  ===> : Switching off randomization!

WARNING: Post HF methods need fully converged wavefunctions
  ===> : Setting SCFConvForced true
         You can overwrite this default with %scf ConvForced false 


INFO   : the flag for use of LIBINT has been found!

================================================================================
                                       INPUT FILE
================================================================================
NAME = 17_Cl.in
|  1> #
|  2> # 17_Cl CCSD(T)/Def2-TZVPPD
|  3> #
|  4> ! CCSD(T) Def2-TZVPPD tightscf
|  5> 
|  6> *xyz 0 2
|  7>  Cl 0.0 0.0 0.0
|  8> *
|  9> 
| 10> %maxcore 5000 
| 11> 
| 12> %pal
| 13> nprocs 21
| 14> end
| 15> 
| 16> 
| 17>                          ****END OF INPUT****
================================================================================

                       ****************************
                       * Single Point Calculation *
                       ****************************

---------------------------------
CARTESIAN COORDINATES (ANGSTROEM)
---------------------------------
  Cl     0.000000    0.000000    0.000000

----------------------------
CARTESIAN COORDINATES (A.U.)
----------------------------
  NO LB      ZA    FRAG     MASS         X           Y           Z
   0 Cl   17.0000    0    35.453    0.000000    0.000000    0.000000

--------------------------------
INTERNAL COORDINATES (ANGSTROEM)
--------------------------------
 Cl     0   0   0     0.000000000000     0.00000000     0.00000000

---------------------------
INTERNAL COORDINATES (A.U.)
---------------------------
 Cl     0   0   0     0.000000000000     0.00000000     0.00000000

---------------------
BASIS SET INFORMATION
---------------------
There are 1 groups of distinct atoms

 Group   1 Type Cl  : 15s10p4d1f contracted to 6s6p4d1f pattern {732111/511111/1111/1}

Atom   0Cl   basis set group =>   1


           ************************************************************
           *        Program running with 21 parallel MPI-processes    *
           *              working on a common directory               *
           ************************************************************
------------------------------------------------------------------------------
                           ORCA GTO INTEGRAL CALCULATION
------------------------------------------------------------------------------

                         BASIS SET STATISTICS AND STARTUP INFO

 # of primitive gaussian shells          ...   30
 # of primitive gaussian functions       ...   72
 # of contracted shells                  ...   17
 # of contracted basis functions         ...   51
 Highest angular momentum                ...    3
 Maximum contraction depth               ...    7
 Integral package used                   ... LIBINT
 Integral threshhold            Thresh   ...  2.500e-11
 Primitive cut-off              TCut     ...  2.500e-12


------------------------------ INTEGRAL EVALUATION ----------------------------


 * One electron integrals 
 Pre-screening matrix                    ... done
 Shell pair data                         ... done (   0.000 sec)



           ************************************************************
           *        Program running with 21 parallel MPI-processes    *
           *              working on a common directory               *
           ************************************************************
-------------------------------------------------------------------------------
                                 ORCA SCF
-------------------------------------------------------------------------------

------------
SCF SETTINGS
------------
Hamiltonian:
 Ab initio Hamiltonian  Method          .... Hartree-Fock(GTOs)


General Settings:
 Integral files         IntName         .... 17_Cl
 Hartree-Fock type      HFTyp           .... UHF
 Total Charge           Charge          ....    0
 Multiplicity           Mult            ....    2
 Number of Electrons    NEL             ....   17
 Basis Dimension        Dim             ....   51
 Nuclear Repulsion      ENuc            ....      0.0000000000 Eh

Convergence Acceleration:
 DIIS                   CNVDIIS         .... on
   Start iteration      DIISMaxIt       ....    12
   Startup error        DIISStart       ....  0.200000
   # of expansion vecs  DIISMaxEq       ....     5
   Bias factor          DIISBfac        ....   1.050
   Max. coefficient     DIISMaxC        ....  10.000
 Newton-Raphson         CNVNR           .... off
 SOSCF                  CNVSOSCF        .... off
 Level Shifting         CNVShift        .... on
   Level shift para.    LevelShift      ....    0.2500
   Turn off err/grad.   ShiftErr        ....    0.0010
 Zerner damping         CNVZerner       .... off
 Static damping         CNVDamp         .... on
   Fraction old density DampFac         ....    0.7000
   Max. Damping (<1)    DampMax         ....    0.9800
   Min. Damping (>=0)   DampMin         ....    0.0000
   Turn off err/grad.   DampErr         ....    0.1000
 Fernandez-Rico         CNVRico         .... off

SCF Procedure:
 Maximum # iterations   MaxIter         ....   125
 SCF integral mode      SCFMode         .... Direct
   Integral package                     .... LIBINT
 Reset frequency        DirectResetFreq ....    20
 Integral Threshold     Thresh          ....  2.500e-11 Eh
 Primitive CutOff       TCut            ....  2.500e-12 Eh

Convergence Tolerance:
 Convergence Check Mode ConvCheckMode   .... Total+1el-Energy
 Convergence forced     ConvForced      .... 1
 Energy Change          TolE            ....  1.000e-08 Eh
 1-El. energy change                    ....  1.000e-05 Eh
 DIIS Error             TolErr          ....  5.000e-07


Diagonalization of the overlap matrix:
Smallest eigenvalue                        ... 3.142e-02
Time for diagonalization                   ...    0.002 sec
Threshold for overlap eigenvalues          ... 1.000e-08
Number of eigenvalues below threshold      ... 0
Time for construction of square roots      ...    0.108 sec
Total time needed                          ...    0.110 sec

-------------------
DFT GRID GENERATION
-------------------

General Integration Accuracy     IntAcc      ...  4.340
Radial Grid Type                 RadialGrid  ... Gauss-Chebyshev
Angular Grid (max. acc.)         AngularGrid ... Lebedev-110
Angular grid pruning method      GridPruning ... 3 (G Style)
Weight generation scheme         WeightScheme... Becke
Basis function cutoff            BFCut       ...    1.0000e-11
Integration weight cutoff        WCut        ...    1.0000e-14
Grids for H and He will be reduced by one unit

# of grid points (after initial pruning)     ...   1844 (   0.0 sec)
# of grid points (after weights+screening)   ...   1844 (   0.0 sec)
Grid point division into batches done        ...    0.0 sec
Reduced shell lists constructed in    0.0 sec

Total number of grid points                  ...     1844
Total number of batches                      ...       29
Average number of points per batch           ...       63
Average number of grid points per atom       ...     1844
Average number of shells per batch           ...     7.33 (43.14%)
Average number of basis functions per batch  ...    24.67 (48.37%)
Average number of large shells per batch     ...     6.00 (81.82%)
Average number of large basis fcns per batch ...    19.33 (78.38%)
Maximum spatial batch extension              ...  16.21, 29.83, 29.83 au
Average spatial batch extension              ...   1.12,  2.06,  2.06 au

Time for grid setup =    0.038 sec

------------------------------
INITIAL GUESS: MODEL POTENTIAL
------------------------------
Loading Hartree-Fock densities                     ... done
Calculating cut-offs                               ... done
Setting up the integral package                    ... done
Initializing the effective Hamiltonian             ... done
Starting the Coulomb interaction                   ... done (   0.0 sec)
Reading the grid                                   ... done
Mapping shells                                     ... done
Starting the XC term evaluation                    ... done (   0.0 sec)
Transforming the Hamiltonian                       ... done (   0.0 sec)
Diagonalizing the Hamiltonian                      ... done (   0.0 sec)
Back transforming the eigenvectors                 ... done (   0.0 sec)
Now organizing SCF variables                       ... done
                      ------------------
                      INITIAL GUESS DONE (   0.1 sec)
                      ------------------
--------------
SCF ITERATIONS
--------------
ITER       Energy         Delta-E        Max-DP      RMS-DP      [F,P]     Damp
               ***  Starting incremental Fock matrix formation  ***
  0   -459.4564334991   0.000000000000 0.00916186  0.00035868  0.1381038 0.7000
  1   -459.4617424765  -0.005308977401 0.00776732  0.00029608  0.0972419 0.7000
                               ***Turning on DIIS***
  2   -459.4657910837  -0.004048607225 0.02079401  0.00075898  0.0684470 0.0000
  3   -459.4776777737  -0.011886689999 0.00712121  0.00019155  0.0050945 0.0000
  4   -459.4743310206   0.003346753154 0.00378335  0.00010683  0.0028096 0.0000
  5   -459.4746675974  -0.000336576859 0.00184332  0.00005303  0.0013374 0.0000
  6   -459.4767873848  -0.002119787352 0.00073307  0.00001904  0.0004810 0.0000
  7   -459.4770954596  -0.000308074827 0.00005540  0.00000261  0.0000475 0.0000
  8   -459.4771628368  -0.000067377172 0.00001560  0.00000081  0.0000101 0.0000
  9   -459.4771784739  -0.000015637060 0.00000764  0.00000038  0.0000025 0.0000
                            ***DIIS convergence achieved***

               *****************************************************
               *                     SUCCESS                       *
               *           SCF CONVERGED AFTER  10 CYCLES          *
               *****************************************************


----------------
TOTAL SCF ENERGY
----------------

Total Energy       :         -459.47716784 Eh          -12503.00938 eV

Components:
Nuclear Repulsion  :            0.00000000 Eh               0.00000 eV
Electronic Energy  :         -459.47716784 Eh          -12503.00938 eV
One Electron Energy:         -634.83811780 Eh          -17274.82342 eV
Two Electron Energy:          175.36094996 Eh            4771.81404 eV

Virial components:
Potential Energy   :         -918.94564871 Eh          -25005.78237 eV
Kinetic Energy     :          459.46848087 Eh           12502.77299 eV
Virial Ratio       :            2.00001891


---------------
SCF CONVERGENCE
---------------

  Last Energy change         ...    1.0639e-05  Tolerance :   1.0000e-08
  Last MAX-Density change    ...    5.0035e-06  Tolerance :   1.0000e-07
  Last RMS-Density change    ...    2.2075e-07  Tolerance :   5.0000e-09
  Last DIIS Error            ...    5.1345e-07  Tolerance :   5.0000e-07

             **** THE GBW FILE WAS UPDATED (17_Cl.gbw) ****
             **** DENSITY FILE WAS UPDATED (17_Cl.scfp) ****
             **** ENERGY FILE WAS UPDATED (17_Cl.en.tmp) ****
----------------------
UHF SPIN CONTAMINATION
----------------------

Expectation value of <S**2>     :     0.760026
Ideal value S*(S+1) for S=0.5   :     0.750000
Deviation                       :     0.010026

             **** THE GBW FILE WAS UPDATED (17_Cl.gbw) ****
             **** DENSITY FILE WAS UPDATED (17_Cl.scfp) ****
----------------
ORBITAL ENERGIES
----------------
                 SPIN UP ORBITALS
  NO   OCC          E(Eh)            E(eV) 
   0   1.0000    -104.888374     -2854.1578 
   1   1.0000     -10.613470      -288.8072 
   2   1.0000      -8.099332      -220.3940 
   3   1.0000      -8.074997      -219.7318 
   4   1.0000      -8.074997      -219.7318 
   5   1.0000      -1.136620       -30.9290 
   6   1.0000      -0.581761       -15.8305 
   7   1.0000      -0.502686       -13.6788 
   8   1.0000      -0.502686       -13.6788 
   9   0.0000       0.090720         2.4686 
  10   0.0000       0.097936         2.6650 
  11   0.0000       0.097936         2.6650 
  12   0.0000       0.131981         3.5914 
  13   0.0000       0.259234         7.0541 
  14   0.0000       0.263808         7.1786 
  15   0.0000       0.263808         7.1786 
  16   0.0000       0.279615         7.6087 
  17   0.0000       0.279615         7.6087 
  18   0.0000       0.558150        15.1880 
  19   0.0000       0.591020        16.0825 
  20   0.0000       0.591020        16.0825 
  21   0.0000       0.715149        19.4602 
  22   0.0000       0.726733        19.7754 
  23   0.0000       0.726733        19.7754 
  24   0.0000       0.768117        20.9015 
  25   0.0000       0.768117        20.9015 
  26   0.0000       0.983999        26.7760 
  27   0.0000       2.151377        58.5419 
  28   0.0000       2.162708        58.8503 
  29   0.0000       2.162708        58.8503 
  30   0.0000       2.200788        59.8865 
  31   0.0000       2.200788        59.8865 
  32   0.0000       2.321709        63.1769 
  33   0.0000       2.329169        63.3799 
  34   0.0000       2.329169        63.3799 
  35   0.0000       2.351610        63.9906 
  36   0.0000       2.351610        63.9906 
  37   0.0000       2.390154        65.0394 
  38   0.0000       2.390154        65.0394 
  39   0.0000       2.522993        68.6541 
  40   0.0000       2.576920        70.1216 
  41   0.0000       2.576920        70.1216 
  42   0.0000       8.661895       235.7021 
  43   0.0000       8.670556       235.9378 
  44   0.0000       8.670556       235.9378 
  45   0.0000       8.696957       236.6562 
  46   0.0000       8.696957       236.6562 
  47   0.0000      11.430929       311.0514 
  48   0.0000      11.469252       312.0942 
  49   0.0000      11.469252       312.0942 
  50   0.0000      25.044751       681.5023 

                 SPIN DOWN ORBITALS
  NO   OCC          E(Eh)            E(eV) 
   0   1.0000    -104.876111     -2853.8241 
   1   1.0000     -10.602252      -288.5019 
   2   1.0000      -8.068754      -219.5620 
   3   1.0000      -8.068754      -219.5620 
   4   1.0000      -8.049036      -219.0254 
   5   1.0000      -1.014861       -27.6158 
   6   1.0000      -0.480764       -13.0823 
   7   1.0000      -0.480764       -13.0823 
   8   0.0000      -0.041970        -1.1421 
   9   0.0000       0.098631         2.6839 
  10   0.0000       0.098631         2.6839 
  11   0.0000       0.109185         2.9711 
  12   0.0000       0.138523         3.7694 
  13   0.0000       0.279718         7.6115 
  14   0.0000       0.279718         7.6115 
  15   0.0000       0.283778         7.7220 
  16   0.0000       0.283778         7.7220 
  17   0.0000       0.285768         7.7762 
  18   0.0000       0.596855        16.2413 
  19   0.0000       0.596855        16.2413 
  20   0.0000       0.626664        17.0524 
  21   0.0000       0.772119        21.0104 
  22   0.0000       0.772119        21.0104 
  23   0.0000       0.797859        21.7108 
  24   0.0000       0.797859        21.7108 
  25   0.0000       0.807991        21.9866 
  26   0.0000       1.009487        27.4695 
  27   0.0000       2.191716        59.6396 
  28   0.0000       2.194803        59.7236 
  29   0.0000       2.194803        59.7236 
  30   0.0000       2.203848        59.9698 
  31   0.0000       2.203848        59.9698 
  32   0.0000       2.383640        64.8622 
  33   0.0000       2.384604        64.8884 
  34   0.0000       2.384604        64.8884 
  35   0.0000       2.387282        64.9613 
  36   0.0000       2.387282        64.9613 
  37   0.0000       2.391056        65.0639 
  38   0.0000       2.391056        65.0639 
  39   0.0000       2.585763        70.3622 
  40   0.0000       2.585763        70.3622 
  41   0.0000       2.597754        70.6885 
  42   0.0000       8.678485       236.1536 
  43   0.0000       8.683517       236.2905 
  44   0.0000       8.683517       236.2905 
  45   0.0000       8.698582       236.7005 
  46   0.0000       8.698582       236.7005 
  47   0.0000      11.474814       312.2456 
  48   0.0000      11.474814       312.2456 
  49   0.0000      11.476441       312.2898 
  50   0.0000      25.060698       681.9363 

                    ********************************
                    * MULLIKEN POPULATION ANALYSIS *
                    ********************************

--------------------------------------------
MULLIKEN ATOMIC CHARGES AND SPIN POPULATIONS
--------------------------------------------
   0 Cl:   -0.000000    1.000000
Sum of atomic charges         :   -0.0000000
Sum of atomic spin populations:    1.0000000

-----------------------------------------------------
MULLIKEN REDUCED ORBITAL CHARGES AND SPIN POPULATIONS
-----------------------------------------------------
CHARGE
  0 Cls       :     5.995465  s :     5.995465
      pz      :     3.999749  p :    10.999164
      px      :     3.020625
      py      :     3.978790
      dz2     :     0.001134  d :     0.004535
      dxz     :     0.000000
      dyz     :     0.000000
      dx2y2   :     0.003122
      dxy     :     0.000279
      f0      :     0.000093  f :     0.000836
      f+1     :     0.000125
      f-1     :     0.000018
      f+2     :     0.000142
      f-2     :     0.000013
      f+3     :     0.000216
      f-3     :     0.000229

SPIN
  0 Cls       :     0.000953  s :     0.000953
      pz      :    -0.000220  p :     0.999213
      px      :     0.978699
      py      :     0.020735
      dz2     :    -0.000238  d :    -0.000953
      dxz     :    -0.000000
      dyz     :    -0.000000
      dx2y2   :    -0.000656
      dxy     :    -0.000059
      f0      :     0.000084  f :     0.000787
      f+1     :     0.000125
      f-1     :     0.000016
      f+2     :     0.000128
      f-2     :     0.000011
      f+3     :     0.000212
      f-3     :     0.000210


                     *******************************
                     * LOEWDIN POPULATION ANALYSIS *
                     *******************************

-------------------------------------------
LOEWDIN ATOMIC CHARGES AND SPIN POPULATIONS
-------------------------------------------
   0 Cl:   -0.000000    1.000000

----------------------------------------------------
LOEWDIN REDUCED ORBITAL CHARGES AND SPIN POPULATIONS
----------------------------------------------------
CHARGE
  0 Cls       :     5.995465  s :     5.995465
      pz      :     3.999749  p :    10.999164
      px      :     3.020625
      py      :     3.978790
      dz2     :     0.001134  d :     0.004535
      dxz     :     0.000000
      dyz     :     0.000000
      dx2y2   :     0.003122
      dxy     :     0.000279
      f0      :     0.000093  f :     0.000836
      f+1     :     0.000125
      f-1     :     0.000018
      f+2     :     0.000142
      f-2     :     0.000013
      f+3     :     0.000216
      f-3     :     0.000229

SPIN
  0 Cls       :     0.000953  s :     0.000953
      pz      :    -0.000220  p :     0.999213
      px      :     0.978699
      py      :     0.020735
      dz2     :    -0.000238  d :    -0.000953
      dxz     :    -0.000000
      dyz     :    -0.000000
      dx2y2   :    -0.000656
      dxy     :    -0.000059
      f0      :     0.000084  f :     0.000787
      f+1     :     0.000125
      f-1     :     0.000016
      f+2     :     0.000128
      f-2     :     0.000011
      f+3     :     0.000212
      f-3     :     0.000210


                      *****************************
                      * MAYER POPULATION ANALYSIS *
                      *****************************

  NA   - Mulliken gross atomic population
  ZA   - Total nuclear charge
  QA   - Mulliken gross atomic charge
  VA   - Mayer's total valence
  BVA  - Mayer's bonded valence
  FA   - Mayer's free valence

  ATOM       NA         ZA         QA         VA         BVA        FA
  0 Cl    17.0000    17.0000    -0.0000     1.0201     0.0000     1.0201

  Mayer bond orders larger than 0.100000


-------
TIMINGS
-------

Total SCF time: 0 days 0 hours 0 min 12 sec 

Total time                  ....      12.721 sec
Sum of individual times     ....      12.273 sec  ( 96.5%)

Fock matrix formation       ....       1.493 sec  ( 11.7%)
Diagonalization             ....       0.056 sec  (  0.4%)
Density matrix formation    ....       0.004 sec  (  0.0%)
Population analysis         ....       0.257 sec  (  2.0%)
Initial guess               ....       0.099 sec  (  0.8%)
Orbital Transformation      ....       0.000 sec  (  0.0%)
Orbital Orthonormalization  ....       0.000 sec  (  0.0%)
DIIS solution               ....      10.326 sec  ( 81.2%)


           ************************************************************
           *        Program running with 21 parallel MPI-processes    *
           *              working on a common directory               *
           ************************************************************


------------------------------------------------------------------------------- 
                              ORCA-MATRIX DRIVEN CI                            
------------------------------------------------------------------------------- 

--------------------------------
AUTOMATIC CHOICE OF INCORE LEVEL
--------------------------------

Memory available                           ...   2500.00 MB
Memory needed for S+T                      ...      0.40 MB
Memory needed for J+K                      ...      0.81 MB
Memory needed for DIIS                     ...      5.65 MB
Memory needed for 3-ext                    ...      2.26 MB
Memory needed for 4-ext                    ...     12.15 MB
Memory needed for triples                  ...      2.83 MB
 -> Final InCoreLevel    ... 5
 -> check shows that triples correction can be computed


Wavefunction type
-----------------
Correlation treatment                      ...      CCSD     
Single excitations                         ... ON
Orbital optimization                       ... OFF
Calculation of Z vector                    ... OFF
Calculation of Brueckner orbitals          ... OFF
Perturbative triple excitations            ... ON
Calculation of F12 correction              ... OFF
Frozen core treatment                      ... chemical core (10 el)
Reference Wavefunction                     ... UHF
  Alpha-MOs occ    :     5 ...    8 (  4 MO's/  4 electrons)
  Beta-MOs occ     :     5 ...    7 (  3 MO's/  3 electrons)
  Alpha-MOs virt   :     9 ...   50 ( 42 MO's              )
  Beta-MOs virt    :     8 ...   50 ( 43 MO's              )
Number of AO's                             ...     51
Number of electrons                        ...     17
Number of correlated electrons             ...      7

Algorithmic settings
--------------------
Integral transformation                    ... AO direct full transformation
K(C) Formation                             ... FULL-MO TRAFO
Maximum number of iterations               ...        50
Convergence tolerance (max. residuum)      ... 1.000e-05
Level shift for amplitude update           ... 2.000e-01
Maximum number of DIIS vectors             ...         7
DIIS turned on at iteration                ...         0
Damping before turning on DIIS             ...     0.500
Damping after turning on DIIS              ...     0.000
Pair specific amplitude update             ... OFF
Natural orbital iterations                 ... OFF
Perturbative natural orbital generation    ... OFF
Printlevel                                 ... 2

Memory handling:
----------------
Maximum memory for working arrays          ...   2500 MB
Data storage in matrix containers          ... UNCOMPRESSED
Data type for integral storage             ... DOUBLE
In-Core Storage of quantities:
   Amplitudes+Sigma Vector      ... YES
   J+K operators                ... YES
   DIIS vectors                 ... YES
   3-external integrals         ... YES
   4-external integrals         ... YES


Initializing the integral package          ... done
Warning: reference  - re-canonicalizations have been set to INT 1 VIRT 1

--------------------------
UNRESTRICTED FOCK OPERATOR
--------------------------

<ss|ss>:          231 b            0 skpd (  0.0%)    0.000 s ( 0.001 ms/b)
<ss|sp>:          756 b            0 skpd (  0.0%)    0.001 s ( 0.001 ms/b)
<ss|sd>:          504 b            0 skpd (  0.0%)    0.000 s ( 0.000 ms/b)
<ss|sf>:          126 b            0 skpd (  0.0%)    0.000 s ( 0.001 ms/b)
<ss|pp>:          441 b            0 skpd (  0.0%)    0.000 s ( 0.001 ms/b)
<ss|pd>:          504 b            0 skpd (  0.0%)    0.000 s ( 0.000 ms/b)
<ss|pf>:          126 b            0 skpd (  0.0%)    0.000 s ( 0.001 ms/b)
<ss|dd>:          210 b            0 skpd (  0.0%)    0.000 s ( 0.001 ms/b)
<ss|df>:           84 b            0 skpd (  0.0%)    0.000 s ( 0.003 ms/b)
<ss|ff>:           21 b            0 skpd (  0.0%)    0.000 s ( 0.005 ms/b)
<sp|sp>:          666 b            0 skpd (  0.0%)    0.001 s ( 0.002 ms/b)
<sp|sd>:          864 b            0 skpd (  0.0%)    0.000 s ( 0.000 ms/b)
<sp|sf>:          216 b            0 skpd (  0.0%)    0.000 s ( 0.001 ms/b)
<sp|pp>:          756 b            0 skpd (  0.0%)    0.001 s ( 0.001 ms/b)
<sp|pd>:          864 b            0 skpd (  0.0%)    0.000 s ( 0.000 ms/b)
<sp|pf>:          216 b            0 skpd (  0.0%)    0.000 s ( 0.002 ms/b)
<sp|dd>:          360 b            0 skpd (  0.0%)    0.000 s ( 0.001 ms/b)
<sp|df>:          144 b            0 skpd (  0.0%)    0.001 s ( 0.005 ms/b)
<sp|ff>:           36 b            0 skpd (  0.0%)    0.000 s ( 0.009 ms/b)
<sd|sd>:          300 b            0 skpd (  0.0%)    0.000 s ( 0.001 ms/b)
<sd|sf>:          144 b            0 skpd (  0.0%)    0.000 s ( 0.002 ms/b)
<sd|pp>:          504 b            0 skpd (  0.0%)    0.000 s ( 0.001 ms/b)
<sd|pd>:          576 b            0 skpd (  0.0%)    0.000 s ( 0.001 ms/b)
<sd|pf>:          144 b            0 skpd (  0.0%)    0.000 s ( 0.003 ms/b)
<sd|dd>:          240 b            0 skpd (  0.0%)    0.001 s ( 0.002 ms/b)
<sd|df>:           96 b            0 skpd (  0.0%)    0.001 s ( 0.009 ms/b)
<sd|ff>:           24 b            0 skpd (  0.0%)    0.000 s ( 0.017 ms/b)
<sf|sf>:           21 b            0 skpd (  0.0%)    0.000 s ( 0.004 ms/b)
<sf|pp>:          126 b            0 skpd (  0.0%)    0.000 s ( 0.002 ms/b)
<sf|pd>:          144 b            0 skpd (  0.0%)    0.000 s ( 0.001 ms/b)
<sf|pf>:           36 b            0 skpd (  0.0%)    0.000 s ( 0.007 ms/b)
<sf|dd>:           60 b            0 skpd (  0.0%)    0.000 s ( 0.004 ms/b)
<sf|df>:           24 b            0 skpd (  0.0%)    0.000 s ( 0.018 ms/b)
<sf|ff>:            6 b            0 skpd (  0.0%)    0.000 s ( 0.034 ms/b)
<pp|pp>:          231 b            0 skpd (  0.0%)    0.001 s ( 0.002 ms/b)
<pp|pd>:          504 b            0 skpd (  0.0%)    0.000 s ( 0.001 ms/b)
<pp|pf>:          126 b            0 skpd (  0.0%)    0.001 s ( 0.005 ms/b)
<pp|dd>:          210 b            0 skpd (  0.0%)    0.001 s ( 0.003 ms/b)
<pp|df>:           84 b            0 skpd (  0.0%)    0.001 s ( 0.013 ms/b)
<pp|ff>:           21 b            0 skpd (  0.0%)    0.001 s ( 0.025 ms/b)
<pd|pd>:          300 b            0 skpd (  0.0%)    0.001 s ( 0.002 ms/b)
<pd|pf>:          144 b            0 skpd (  0.0%)    0.001 s ( 0.005 ms/b)
<pd|dd>:          240 b            0 skpd (  0.0%)    0.001 s ( 0.004 ms/b)
<pd|df>:           96 b            0 skpd (  0.0%)    0.001 s ( 0.014 ms/b)
<pd|ff>:           24 b            0 skpd (  0.0%)    0.001 s ( 0.041 ms/b)
<pf|pf>:           21 b            0 skpd (  0.0%)    0.000 s ( 0.010 ms/b)
<pf|dd>:           60 b            0 skpd (  0.0%)    0.000 s ( 0.006 ms/b)
<pf|df>:           24 b            0 skpd (  0.0%)    0.001 s ( 0.028 ms/b)
<pf|ff>:            6 b            0 skpd (  0.0%)    0.000 s ( 0.073 ms/b)
<dd|dd>:           55 b            0 skpd (  0.0%)    0.000 s ( 0.007 ms/b)
<dd|df>:           40 b            0 skpd (  0.0%)    0.001 s ( 0.023 ms/b)
<dd|ff>:           10 b            0 skpd (  0.0%)    0.001 s ( 0.067 ms/b)
<df|df>:           10 b            0 skpd (  0.0%)    0.000 s ( 0.036 ms/b)
<df|ff>:            4 b            0 skpd (  0.0%)    0.001 s ( 0.126 ms/b)
<ff|ff>:            1 b            0 skpd (  0.0%)    0.000 s ( 0.250 ms/b)
Recanonicalizing the internal orbitals
Recanonicalizing the virtual orbitals
Time needed for Fock operator              ...            0.063 sec
Reference energy                           ...   -459.477169015
Warning: for UHF the TrafoType has to be JK
Warning: for UHF the K(C)-option cannot be MO but must be AOX

-------------------------------
PARTIAL EXCHANGE TRANSFORMATION
-------------------------------

Transformation type                        ... two-operators
Generation of integrals (i,mue|j,nue)      ... ON
Generation of integrals (mue,kappa|nue,tau)... ON
Generation of integrals (i,mue|a,nue)      ... ON
Dimension of the basis                     ...   51
Number of internal alpha-MOs               ...    4 (   5-   8)
Number of internal beta-MOs                ...    3 (   5-   7)
Number of external alpha-MOs               ...   42 (   9-  50)
Number of external beta-MOs                ...   43 (   8-  50)
Pair cutoff                                ... 0.000e+00 Eh
Number of AO pairs in the trafo            ... 1326
Total Number of distinct AO pairs          ... 1326
Memory devoted for trafo                   ... 2500.0 MB 
Max. Number of MO pairs treated together   ... 125982      
Number Format for Storage                  ... Double (8 Byte)
Integral package used                      ... LIBINT

Starting integral evaluation:
    ... done with AO integral generation
Closing buffer AOK[aa] ( 0.00 GB; CompressionRatio= 0.00)
Closing buffer AOK[bb] ( 0.00 GB; CompressionRatio= 0.00)
Closing buffer AOK[ab] ( 0.00 GB; CompressionRatio= 0.00)
Closing buffer AOK[ba] ( 0.00 GB; CompressionRatio= 0.00)
Collecting buffer AOK 
Closing buffer IAAO1[aa] ( 0.00 GB; CompressionRatio= 0.00)
Closing buffer IAAO1[bb] ( 0.00 GB; CompressionRatio= 0.00)
Closing buffer IAAO1[ab] ( 0.00 GB; CompressionRatio= 0.00)
Closing buffer IAAO1[ba] ( 0.00 GB; CompressionRatio= 0.00)
Closing buffer IAAO2[aa] ( 0.00 GB; CompressionRatio= 0.00)
Closing buffer IAAO2[bb] ( 0.00 GB; CompressionRatio= 0.00)
Closing buffer IAAO2[ab] ( 0.00 GB; CompressionRatio= 0.00)
Closing buffer IAAO2[ba] ( 0.00 GB; CompressionRatio= 0.00)
Collecting buffer IAAO 
Closing buffer PRQS    ( 0.00 GB; CompressionRatio= 0.00)
Collecting buffer PRQS 
Number of alpha/alpha MO pairs in trafo    ...   10
Number of beta /beta  MO pairs in trafo    ...    6
Number of alpha/ beta MO pairs in trafo    ...   12
------------------------
SORTING OF (i,mue|j,nue)
------------------------

SORTING OF ALPHA/ALPHA PAIRS
IBATCH = 1 of  1
Closing buffer KAO[aa] ( 0.00 GB; CompressionRatio= 1.00)
Collecting buffer KAO 
SORTING OF BETA /BETA  PAIRS
IBATCH = 1 of  1
Closing buffer KAO[bb] ( 0.00 GB; CompressionRatio= 1.00)
Collecting buffer KAO 
SORTING OF ALPHA/BETA  PAIRS
IBATCH = 1 of  1
Closing buffer KAO[ab] ( 0.00 GB; CompressionRatio= 0.999423631124)
Collecting buffer KAO[ab] 
------------------------
SORTING OF (i,mue|a,nue)
------------------------

Number of alpha/alpha (i,a) pairs in trafo  ...  168
Number of beta /beta  (i,a) pairs in trafo  ...  129
Number of alpha/ beta (i,a) pairs in trafo  ...  172
Number of beta /alpha (i,a) pairs in trafo  ...  126
Setting up the alpha/alpha list             ... done
Setting up the beta /beta  list             ... done
Setting up the alpha/beta  list             ... done
Setting up the beta /alpha list             ... done
    ... Now sorting (i,mue|a,nue)integrals
    ... Integrals (i,b|a,c) will be made on the fly
SORTING OF ALPHA/ALPHA PAIRS
IBATCH = 1 of  1
Closing buffer IPAQ[aa]  0.00 GB; CompressionRatio= 1.00)
SORTING OF BETA /BETA  PAIRS
IBATCH = 1 of  1
Closing buffer IPAQ[bb]( 0.00 GB; CompressionRatio= 1.00)
SORTING OF ALPHA/BETA  PAIRS (NMatSort_ab=9)
IBATCH = 1 of  1
Closing buffer IPAQ[ab]( 0.00 GB; CompressionRatio= 1.00)
SORTING OF BETA/ALPHA  PAIRS
IBATCH = 1 of  1
Closing buffer IPAQ[ba]( 0.00 GB; CompressionRatio= 1.00)
N(AO-Batches) Done                         ...         0 
N(AO-Batches) Skipped                      ...         0 
N(IJ)-pairs Skipped                        ...         0 
TOTAL TIME for half transformation         ...     2.747 sec
AO-integral generation                     ...     0.000 sec
Half transformation                        ...     0.000 sec
K-integral sorting                         ...     0.685 sec
<ss|**>: 
------------------------------
PARTIAL COULOMB TRANSFORMATION
------------------------------

Transformation type                        ... two-operators
Dimension of the basis                     ...   51
Number of internal alpha-MOs               ...    4 (5-8)
Number of internal beta-MOs                ...    3 (5-7)
Pair cutoff                                ... 0.000e+00 Eh
Number of AO pairs included in the trafo   ... 1326
Total Number of distinct AO pairs          ... 1326
Memory devoted for trafo                   ... 2500.0 MB 
Max. Number of MO pairs treated together   ... 247119      
Max. Number of MOs treated per batch       ... 4845      
Number Format for Storage                  ... Double (8 Byte)
AO-integral source                         ... DIRECT
Integral package used                      ... LIBINT

Starting integral evaluation:
<sp|**>:         3213 b        0 skpd     0.002 s (  0.001 ms/b)
        5508 b        0 skpd     0.018 s (  0.003 ms/b)
<sd|**>: <sf|**>:         3672 b        0 skpd     0.029 s (  0.008 ms/b)
<pp|**>:          918 b        0 skpd     0.013 s (  0.014 ms/b)
        3213 b        0 skpd     0.035 s (  0.011 ms/b)
<pd|**>:         3672 b        0 skpd     0.077 s (  0.021 ms/b)
<pf|**>:          918 b        0 skpd     0.031 s (  0.034 ms/b)
<dd|**>:         1530 b        0 skpd     0.049 s (  0.032 ms/b)
<df|**>:          612 b        0 skpd     0.038 s (  0.062 ms/b)
<ff|**>:          153 b        0 skpd     0.020 s (  0.134 ms/b)
Closing buffer AOJ[aa] ( 0.00 GB; CompressionRatio= 0.87)
Closing buffer AOJ[bb] ( 0.00 GB; CompressionRatio= 0.00)
Collecting buffer AOJ 
    ... done with AO integral generation
Number of Alpha-MO pairs included          ...   10
Number of Beta-MO pairs included           ...    6
    ... Now sorting integrals
SORTING ALPHA/ALPHA PAIRS
IBATCH = 1 of  1
Closing buffer JAO[aa] ( 0.00 GB; CompressionRatio= 1.00)
SORTING BETA/BETA PAIRS
IBATCH = 1 of  1
Closing buffer JAO[bb] ( 0.00 GB; CompressionRatio= 1.00)
Collecting buffer JAO 
TOTAL TIME for half transformation         ...     0.462 sec
AO-integral generation                     ...     0.142 sec
Half transformation                        ...     0.173 sec
J-integral sorting                         ...     0.102 sec

-------------------------- SECOND HALF TRANSFORMATION -------------------------
Formation of (ij|kl),(ij|ka), (ij|ab)      ... ok (     0.124 sec)
Formation of (ik|jl),(ik|ja), (ia|jb)      ... ok (     0.169 sec)


-----------------------
SPIN UNRESTRICTED GUESS
-----------------------

Entering MDCI_UHF_Guess, Tailored=0
Spin-components of the MP2 energy:
EMP2(aa)=     -0.025306625
EMP2(bb)=     -0.011641256
EMP2(ab)=     -0.122582747

Initial guess performed in     0.002 sec
E(0)                                       ...   -459.477169015
E(MP2)                                     ...     -0.159530628
Initial E(tot)                             ...   -459.636699643
<T|T>                                      ...      0.055993049
Number of pairs included                   ... 21

------------------------------------------------
                  UHF COUPLED CLUSTER ITERATIONS
------------------------------------------------

Number of amplitudes to be optimized       ...        29884

Iter       E(tot)           E(Corr)          Delta-E          Residual     Time      <S|S>**1/2
  0   -459.636699643     -0.159530628     -0.000000000      0.020209659    0.11      0.000002412
                           *** Turning on DIIS ***
  1   -459.653519369     -0.176350354     -0.016819726      0.009368973    0.06      0.009425895
  2   -459.659549567     -0.182380551     -0.006030198      0.002945266    0.06      0.014602511
  3   -459.660127595     -0.182958580     -0.000578029      0.000611996    0.07      0.016482197
  4   -459.660208058     -0.183039042     -0.000080462      0.000124181    0.06      0.017010210
  5   -459.660219705     -0.183050690     -0.000011648      0.000055212    0.06      0.017113925
  6   -459.660219348     -0.183050332      0.000000358      0.000018658    0.06      0.017134064
  7   -459.660219610     -0.183050595     -0.000000263      0.000005345    0.06      0.017133972
               --- The Coupled-Cluster iterations have converged ---

----------------------
COUPLED CLUSTER ENERGY
----------------------

E(0)                                       ...   -459.477169015
E(CORR)                                    ...     -0.183050595
E(TOT)                                     ...   -459.660219610
Singles norm <S|S>**1/2                    ...      0.017133972 ( 0.006243327, 0.010890644)  
T1 diagnostic                              ...      0.006476033                              

------------------
LARGEST AMPLITUDES
------------------
   6a-> 21a   5b->  8b       0.041901
   8a-> 23a   5b->  8b       0.036467
   7a-> 22a   5b->  8b       0.036467
   8a-> 23a   6b-> 23b       0.031817
   7a-> 22a   7b-> 24b       0.031817
   8a-> 25a   6b-> 22b       0.030246
   7a-> 24a   7b-> 21b       0.030246
   8a-> 24a   6b-> 21b       0.030246
   7a-> 25a   7b-> 22b       0.030246
   6a-> 13a   5b->  8b       0.030086
   8a-> 25a   7a-> 24a       0.028784
   8a-> 24a   7a-> 25a       0.028784
   7b-> 22b   6b-> 21b       0.027640
   7b-> 21b   6b-> 22b       0.027640
   8a-> 14a   5b->  8b       0.025542
   7a-> 15a   5b->  8b       0.025542

----------------------
UHF TRIPLES CORRECTION (Algorithm 1)
----------------------

Multiplier for the singles contribution    ...      1.000000000

SPIN-CASE Alpha-Alpha-Alpha:
10% done
20% done
30% done
40% done
50% done
60% done
70% done
80% done
90% done


SPIN-CASE Beta-Beta-Beta:
10% done
20% done
30% done
40% done
50% done
60% done
70% done
80% done
90% done


SPIN-CASE Alpha-Alpha-Beta:
10% done
20% done
30% done
40% done
50% done
60% done
70% done
80% done
90% done


SPIN-CASE Beta-Beta-Alpha:
10% done
20% done
30% done
40% done
50% done
60% done
70% done
80% done
90% done


Triples Correction (T)                     ...     -0.006021618
    alpha-alpha-alpha ... -0.000215332 (  3.6%)
    alpha-alpha-beta  ... -0.003489578 ( 58.0%)
    alpha-beta -beta  ... -0.002276940 ( 37.8%)
    beta -beta -beta  ... -0.000039767 (  0.7%)
Scaling of triples based on CCSD energies (Peterson et al. Molecular Physics 113, 1551 (2015))
E(T*) = f*E(T) where f = E(F12-CCSD)/E(CCSD) 
f = CCSD (with F12)/ CCSD (without F12)    ...      1.000000000
Scaled triples correction (T)              ...     -0.006021618

Final correlation energy                   ...     -0.189072212
E(CCSD)                                    ...   -459.660219610
E(CCSD(T))                                 ...   -459.666241228



        !!!!!!!!!!!!!!!!!!!!!!!!!!!!!!!!!!!!!!!!!!!!!!!!!!!!!!!!!!!!!!!!!!!!!!!!!! 
        !  Warning: Densities are linearized densities                           !
        !!!!!!!!!!!!!!!!!!!!!!!!!!!!!!!!!!!!!!!!!!!!!!!!!!!!!!!!!!!!!!!!!!!!!!!!!! 

NORM  =      1.077142423 sqrt=     1.037854721
W(HF) =      0.928382337
------------------------------------------------------------------------------
                           ORCA POPULATION ANALYSIS
------------------------------------------------------------------------------
Input electron density              ... 17_Cl.mdcip
Input spin density                  ... 17_Cl.mdcir
BaseName (.gbw .S,...)              ... 17_Cl

                    ********************************
                    * MULLIKEN POPULATION ANALYSIS *
                    ********************************

------------------------------------------
MULLIKEN ATOMIC CHARGES AND SPIN DENSITIES
------------------------------------------
   0 Cl:   -0.000000    1.000000
Sum of atomic charges       :   -0.0000000
Sum of atomic spin densities:    1.0000000

---------------------------------------------------
MULLIKEN REDUCED ORBITAL CHARGES AND SPIN DENSITIES
---------------------------------------------------
CHARGE
  0 Cls       :     5.973616  s :     5.973616
      pz      :     3.959083  p :    10.916183
      px      :     3.018158
      py      :     3.938942
      dz2     :     0.020993  d :     0.100272
      dxz     :     0.019169
      dyz     :     0.021862
      dx2y2   :     0.019135
      dxy     :     0.019112
      f0      :     0.001431  f :     0.009929
      f+1     :     0.001411
      f-1     :     0.001445
      f+2     :     0.001418
      f-2     :     0.001412
      f+3     :     0.001408
      f-3     :     0.001404

SPIN
  0 Cls       :     0.009083  s :     0.009083
      pz      :    -0.000464  p :     0.968909
      px      :     0.949503
      py      :     0.019871
      dz2     :     0.001605  d :     0.019538
      dxz     :     0.006018
      dyz     :    -0.000644
      dx2y2   :     0.006377
      dxy     :     0.006182
      f0      :     0.000210  f :     0.002470
      f+1     :     0.000451
      f-1     :     0.000041
      f+2     :     0.000353
      f-2     :     0.000353
      f+3     :     0.000531
      f-3     :     0.000531


                     *******************************
                     * LOEWDIN POPULATION ANALYSIS *
                     *******************************

-----------------------------------------
LOEWDIN ATOMIC CHARGES AND SPIN DENSITIES
-----------------------------------------
   0 Cl:   -0.000000    1.000000

--------------------------------------------------
LOEWDIN REDUCED ORBITAL CHARGES AND SPIN DENSITIES
--------------------------------------------------
CHARGE
  0 Cls       :     5.973616  s :     5.973616
      pz      :     3.959083  p :    10.916183
      px      :     3.018158
      py      :     3.938942
      dz2     :     0.020993  d :     0.100272
      dxz     :     0.019169
      dyz     :     0.021862
      dx2y2   :     0.019135
      dxy     :     0.019112
      f0      :     0.001431  f :     0.009929
      f+1     :     0.001411
      f-1     :     0.001445
      f+2     :     0.001418
      f-2     :     0.001412
      f+3     :     0.001408
      f-3     :     0.001404

SPIN
  0 Cls       :     0.009083  s :     0.009083
      pz      :    -0.000464  p :     0.968909
      px      :     0.949503
      py      :     0.019871
      dz2     :     0.001605  d :     0.019538
      dxz     :     0.006018
      dyz     :    -0.000644
      dx2y2   :     0.006377
      dxy     :     0.006182
      f0      :     0.000210  f :     0.002470
      f+1     :     0.000451
      f-1     :     0.000041
      f+2     :     0.000353
      f-2     :     0.000353
      f+3     :     0.000531
      f-3     :     0.000531


                      *****************************
                      * MAYER POPULATION ANALYSIS *
                      *****************************

  NA   - Mulliken gross atomic population
  ZA   - Total nuclear charge
  QA   - Mulliken gross atomic charge
  VA   - Mayer's total valence
  BVA  - Mayer's bonded valence
  FA   - Mayer's free valence

  ATOM       NA         ZA         QA         VA         BVA        FA
  0 Cl    17.0000    17.0000    -0.0000     1.5458     0.0000     1.5458





------------------------------------------------------------------------------- 
                                     TIMINGS                                   
------------------------------------------------------------------------------- 


Total execution time                   ...        4.634 sec

Fock Matrix Formation                  ...        0.063 sec (  1.4%)
Initial Guess                          ...        0.002 sec (  0.0%)
DIIS Solver                            ...        0.017 sec (  0.4%)
State Vector Update                    ...        0.001 sec (  0.0%)
Sigma-vector construction              ...        0.526 sec ( 11.3%)
  <D|H|D>(2-ext)                       ...        0.002 sec (  0.3% of sigma)
  <D|H|D>(4-ext)                       ...        0.309 sec ( 58.8% of sigma)
  <S|H|0>                              ...        0.005 sec (  1.0% of sigma)
  <D|H|S>(1-ext)                       ...        0.003 sec (  0.6% of sigma)
  Fock-dressing                        ...        0.103 sec ( 19.7% of sigma)
  (ij|ab),(ia|jb)-dressing             ...        0.069 sec ( 13.2% of sigma)
Total Time for computing (T)           ...        0.026 sec (  0.6% of ALL)
  I/O of integral and amplitudes       ...        0.008 sec ( 30.2% of (T))
  External N**7 contributions          ...        0.005 sec ( 20.5% of (T))
  Internal N**7 contributions          ...        0.001 sec (  5.1% of (T))
  N**6 triples energy contributions    ...        0.010 sec ( 37.9% of (T))


-------------------------   --------------------
FINAL SINGLE POINT ENERGY      -459.666241227968
-------------------------   --------------------


                            ***************************************
                            *     ORCA property calculations      *
                            ***************************************

                                    ---------------------
                                    Active property flags
                                    ---------------------
   (+) Dipole Moment


------------------------------------------------------------------------------
                       ORCA ELECTRIC PROPERTIES CALCULATION
------------------------------------------------------------------------------

Dipole Moment Calculation                       ... on
Quadrupole Moment Calculation                   ... off
Polarizability Calculation                      ... off
GBWName                                         ... 17_Cl.gbw
Electron density file                           ... 17_Cl.scfp
The origin for moment calculation is the CENTER OF MASS  = ( 0.000000,  0.000000  0.000000)

-------------
DIPOLE MOMENT
-------------
                                X             Y             Z
Electronic contribution:     -0.00000      -0.00000       0.00000
Nuclear contribution   :      0.00000       0.00000       0.00000
                        -----------------------------------------
Total Dipole Moment    :     -0.00000      -0.00000       0.00000
                        -----------------------------------------
Magnitude (a.u.)       :      0.00000
Magnitude (Debye)      :      0.00000



--------------------
Rotational spectrum 
--------------------
 
Rotational constants in cm-1:     0.000000     0.000000     0.000000 
Rotational constants in MHz :     0.000000     0.000000     0.000000 

 Dipole components along the rotational axes: 
x,y,z [a.u.] :    -0.000000    -0.000000     0.000000 
x,y,z [Debye]:    -0.000000    -0.000000     0.000000 

 

                           *** MDCI DENSITY ***

------------------------------------------------------------------------------
                       ORCA ELECTRIC PROPERTIES CALCULATION
------------------------------------------------------------------------------

Dipole Moment Calculation                       ... on
Quadrupole Moment Calculation                   ... off
Polarizability Calculation                      ... off
GBWName                                         ... 17_Cl.gbw
Electron density file                           ... 17_Cl.mdcip
The origin for moment calculation is the CENTER OF MASS  = ( 0.000000,  0.000000  0.000000)

-------------
DIPOLE MOMENT
-------------
                                X             Y             Z
Electronic contribution:     -0.00000      -0.00000       0.00000
Nuclear contribution   :      0.00000       0.00000       0.00000
                        -----------------------------------------
Total Dipole Moment    :     -0.00000      -0.00000       0.00000
                        -----------------------------------------
Magnitude (a.u.)       :      0.00000
Magnitude (Debye)      :      0.00000



--------------------
Rotational spectrum 
--------------------
 
Rotational constants in cm-1:     0.000000     0.000000     0.000000 
Rotational constants in MHz :     0.000000     0.000000     0.000000 

 Dipole components along the rotational axes: 
x,y,z [a.u.] :    -0.000000    -0.000000     0.000000 
x,y,z [Debye]:    -0.000000    -0.000000     0.000000 

 

Timings for individual modules:

Sum of individual times         ...       19.021 sec (=   0.317 min)
GTO integral calculation        ...        0.801 sec (=   0.013 min)   4.2 %
SCF iterations                  ...       13.090 sec (=   0.218 min)  68.8 %
MDCI module                     ...        5.130 sec (=   0.085 min)  27.0 %
                             ****ORCA TERMINATED NORMALLY****
TOTAL RUN TIME: 0 days 0 hours 0 minutes 19 seconds 773 msec
