
                                 *****************
                                 * O   R   C   A *
                                 *****************

           --- An Ab Initio, DFT and Semiempirical electronic structure package ---

                  #######################################################
                  #                        -***-                        #
                  #          Department of theory and spectroscopy      #
                  #               Directorship: Frank Neese             #
                  #        Max Planck Institute fuer Kohlenforschung    #
                  #                Kaiser Wilhelm Platz 1               #
                  #                 D-45470 Muelheim/Ruhr               #
                  #                      Germany                        #
                  #                                                     #
                  #                  All rights reserved                #
                  #                        -***-                        #
                  #######################################################


                         Program Version 4.2.0 -  RELEASE  -


 With contributions from (in alphabetic order):
   Daniel Aravena         : Magnetic Suceptibility
   Michael Atanasov       : Ab Initio Ligand Field Theory (pilot matlab implementation)
   Alexander A. Auer      : GIAO ZORA, VPT2
   Ute Becker             : Parallelization
   Giovanni Bistoni       : ED, misc. LED, open-shell LED, HFLED
   Martin Brehm           : Molecular dynamics
   Dmytro Bykov           : SCF Hessian
   Vijay G. Chilkuri      : MRCI spin determinant printing, contributions to CSF-ICE
   Dipayan Datta          : RHF DLPNO-CCSD density
   Achintya Kumar Dutta   : EOM-CC, STEOM-CC
   Dmitry Ganyushin       : Spin-Orbit,Spin-Spin,Magnetic field MRCI
   Miquel Garcia          : C-PCM Hessian, Gaussian charge scheme
   Yang Guo               : DLPNO-NEVPT2, CIM, IAO-localization
   Andreas Hansen         : Spin unrestricted coupled pair/coupled cluster methods
   Benjamin Helmich-Paris : CASSCF linear response (MC-RPA)
   Lee Huntington         : MR-EOM, pCC
   Robert Izsak           : Overlap fitted RIJCOSX, COSX-SCS-MP3, EOM
   Christian Kollmar      : KDIIS, OOCD, Brueckner-CCSD(T), CCSD density
   Simone Kossmann        : Meta GGA functionals, TD-DFT gradient, OOMP2, MP2 Hessian
   Martin Krupicka        : AUTO-CI
   Lucas Lang             : DCDCAS
   Dagmar Lenk            : GEPOL surface, SMD
   Dimitrios Liakos       : Extrapolation schemes; Compound Job, initial MDCI parallelization
   Dimitrios Manganas     : Further ROCIS development; embedding schemes
   Dimitrios Pantazis     : SARC Basis sets
   Taras Petrenko         : DFT Hessian,TD-DFT gradient, ASA, ECA, R-Raman, ABS, FL, XAS/XES, NRVS
   Peter Pinski           : DLPNO-MP2, DLPNO-MP2 Gradient
   Christoph Reimann      : Effective Core Potentials
   Marius Retegan         : Local ZFS, SOC
   Christoph Riplinger    : Optimizer, TS searches, QM/MM, DLPNO-CCSD(T), (RO)-DLPNO pert. Triples
   Tobias Risthaus        : Range-separated hybrids, TD-DFT gradient, RPA, STAB
   Michael Roemelt        : Original ROCIS implementation
   Masaaki Saitow         : Open-shell DLPNO-CCSD energy and density
   Barbara Sandhoefer     : DKH picture change effects
   Avijit Sen             : IP-ROCIS
   Kantharuban Sivalingam : CASSCF convergence, NEVPT2, FIC-MRCI
   Bernardo de Souza      : ESD, SOC TD-DFT
   Georgi Stoychev        : AutoAux, RI-MP2 NMR
   Willem Van den Heuvel  : Paramagnetic NMR
   Boris Wezisla          : Elementary symmetry handling
   Frank Wennmohs         : Technical directorship


 We gratefully acknowledge several colleagues who have allowed us to
 interface, adapt or use parts of their codes:
   Stefan Grimme, W. Hujo, H. Kruse,             : VdW corrections, initial TS optimization,
                  C. Bannwarth                     DFT functionals, gCP, sTDA/sTD-DF
   Ed Valeev, F. Pavosevic, A. Kumar             : LibInt (2-el integral package), F12 methods
   Garnet Chan, S. Sharma, J. Yang, R. Olivares  : DMRG
   Ulf Ekstrom                                   : XCFun DFT Library
   Mihaly Kallay                                 : mrcc  (arbitrary order and MRCC methods)
   Andreas Klamt, Michael Diedenhofen            : otool_cosmo (COSMO solvation model)
   Jiri Pittner, Ondrej Demel                    : Mk-CCSD
   Frank Weinhold                                : gennbo (NPA and NBO analysis)
   Christopher J. Cramer and Donald G. Truhlar   : smd solvation model
   Lars Goerigk                                  : TD-DFT with DH, B97 family of functionals
   V. Asgeirsson, H. Jonsson                     : NEB implementation
   FAccTs GmbH                                   : IRC, NEB, NEB-TS, Multilevel, MM, QM/MM, CI optimization
   S Lehtola, MJT Oliveira, MAL Marques          : LibXC Library


 Your calculation uses the libint2 library for the computation of 2-el integrals
 For citations please refer to: http://libint.valeyev.net

 Your ORCA version has been built with support for libXC version: 4.2.3
 For citations please refer to: https://tddft.org/programs/libxc/

 This ORCA versions uses:
   CBLAS   interface :  Fast vector & matrix operations
   LAPACKE interface :  Fast linear algebra routines
   SCALAPACK package :  Parallel linear algebra routines


----- Orbital basis set information -----
Your calculation utilizes the basis: def2-TZVPPD
   F. Weigend and R. Ahlrichs, Phys. Chem. Chem. Phys. 7, 3297 (2005).
   D. Rappoport and F. Furche, J. Chem. Phys. 133 134105 (2010).

================================================================================
                                        WARNINGS
                       Please study these warnings very carefully!
================================================================================


WARNING: your system is open-shell and RHF/RKS was chosen
  ===> : WILL SWITCH to UHF/UKS


WARNING: MDCI localization with Augmented Hessian Foster-Boys
  ===> : Switching off randomization!

WARNING: Post HF methods need fully converged wavefunctions
  ===> : Setting SCFConvForced true
         You can overwrite this default with %scf ConvForced false 


INFO   : the flag for use of LIBINT has been found!

================================================================================
                                       INPUT FILE
================================================================================
NAME = 19_K.in
|  1> #
|  2> # 19_K CCSD(T)/Def2-TZVPPD
|  3> #
|  4> ! CCSD(T) Def2-TZVPPD tightscf
|  5> 
|  6> *xyz 0 2
|  7>  K 0.0 0.0 0.0
|  8> *
|  9> 
| 10> %maxcore 5000 
| 11> 
| 12> %pal
| 13> nprocs 24
| 14> end
| 15> 
| 16> 
| 17>                          ****END OF INPUT****
================================================================================

                       ****************************
                       * Single Point Calculation *
                       ****************************

---------------------------------
CARTESIAN COORDINATES (ANGSTROEM)
---------------------------------
  K      0.000000    0.000000    0.000000

----------------------------
CARTESIAN COORDINATES (A.U.)
----------------------------
  NO LB      ZA    FRAG     MASS         X           Y           Z
   0 K    19.0000    0    39.100    0.000000    0.000000    0.000000

--------------------------------
INTERNAL COORDINATES (ANGSTROEM)
--------------------------------
 K      0   0   0     0.000000000000     0.00000000     0.00000000

---------------------------
INTERNAL COORDINATES (A.U.)
---------------------------
 K      0   0   0     0.000000000000     0.00000000     0.00000000

---------------------
BASIS SET INFORMATION
---------------------
There are 1 groups of distinct atoms

 Group   1 Type K   : 17s12p3d contracted to 6s5p3d pattern {842111/63111/111}

Atom   0K    basis set group =>   1


           ************************************************************
           *        Program running with 24 parallel MPI-processes    *
           *              working on a common directory               *
           ************************************************************
------------------------------------------------------------------------------
                           ORCA GTO INTEGRAL CALCULATION
------------------------------------------------------------------------------

                         BASIS SET STATISTICS AND STARTUP INFO

 # of primitive gaussian shells          ...   32
 # of primitive gaussian functions       ...   68
 # of contracted shells                  ...   14
 # of contracted basis functions         ...   36
 Highest angular momentum                ...    2
 Maximum contraction depth               ...    8
 Integral package used                   ... LIBINT
 Integral threshhold            Thresh   ...  2.500e-11
 Primitive cut-off              TCut     ...  2.500e-12


------------------------------ INTEGRAL EVALUATION ----------------------------


 * One electron integrals 
 Pre-screening matrix                    ... done
 Shell pair data                         ... done (   0.000 sec)



           ************************************************************
           *        Program running with 24 parallel MPI-processes    *
           *              working on a common directory               *
           ************************************************************
-------------------------------------------------------------------------------
                                 ORCA SCF
-------------------------------------------------------------------------------

------------
SCF SETTINGS
------------
Hamiltonian:
 Ab initio Hamiltonian  Method          .... Hartree-Fock(GTOs)


General Settings:
 Integral files         IntName         .... 19_K
 Hartree-Fock type      HFTyp           .... UHF
 Total Charge           Charge          ....    0
 Multiplicity           Mult            ....    2
 Number of Electrons    NEL             ....   19
 Basis Dimension        Dim             ....   36
 Nuclear Repulsion      ENuc            ....      0.0000000000 Eh

Convergence Acceleration:
 DIIS                   CNVDIIS         .... on
   Start iteration      DIISMaxIt       ....    12
   Startup error        DIISStart       ....  0.200000
   # of expansion vecs  DIISMaxEq       ....     5
   Bias factor          DIISBfac        ....   1.050
   Max. coefficient     DIISMaxC        ....  10.000
 Newton-Raphson         CNVNR           .... off
 SOSCF                  CNVSOSCF        .... off
 Level Shifting         CNVShift        .... on
   Level shift para.    LevelShift      ....    0.2500
   Turn off err/grad.   ShiftErr        ....    0.0010
 Zerner damping         CNVZerner       .... off
 Static damping         CNVDamp         .... on
   Fraction old density DampFac         ....    0.7000
   Max. Damping (<1)    DampMax         ....    0.9800
   Min. Damping (>=0)   DampMin         ....    0.0000
   Turn off err/grad.   DampErr         ....    0.1000
 Fernandez-Rico         CNVRico         .... off

SCF Procedure:
 Maximum # iterations   MaxIter         ....   125
 SCF integral mode      SCFMode         .... Direct
   Integral package                     .... LIBINT
 Reset frequency        DirectResetFreq ....    20
 Integral Threshold     Thresh          ....  2.500e-11 Eh
 Primitive CutOff       TCut            ....  2.500e-12 Eh

Convergence Tolerance:
 Convergence Check Mode ConvCheckMode   .... Total+1el-Energy
 Convergence forced     ConvForced      .... 1
 Energy Change          TolE            ....  1.000e-08 Eh
 1-El. energy change                    ....  1.000e-05 Eh
 DIIS Error             TolErr          ....  5.000e-07


Diagonalization of the overlap matrix:
Smallest eigenvalue                        ... 5.619e-02
Time for diagonalization                   ...    0.003 sec
Threshold for overlap eigenvalues          ... 1.000e-08
Number of eigenvalues below threshold      ... 0
Time for construction of square roots      ...    0.012 sec
Total time needed                          ...    0.014 sec

-------------------
DFT GRID GENERATION
-------------------

General Integration Accuracy     IntAcc      ...  4.340
Radial Grid Type                 RadialGrid  ... Gauss-Chebyshev
Angular Grid (max. acc.)         AngularGrid ... Lebedev-110
Angular grid pruning method      GridPruning ... 3 (G Style)
Weight generation scheme         WeightScheme... Becke
Basis function cutoff            BFCut       ...    1.0000e-11
Integration weight cutoff        WCut        ...    1.0000e-14
Grids for H and He will be reduced by one unit

# of grid points (after initial pruning)     ...   2948 (   0.0 sec)
# of grid points (after weights+screening)   ...   2948 (   0.0 sec)
Grid point division into batches done        ...    0.0 sec
Reduced shell lists constructed in    0.0 sec

Total number of grid points                  ...     2948
Total number of batches                      ...       47
Average number of points per batch           ...       62
Average number of grid points per atom       ...     2948
Average number of shells per batch           ...     4.00 (28.57%)
Average number of basis functions per batch  ...    12.00 (33.33%)
Average number of large shells per batch     ...     3.33 (83.33%)
Average number of large basis fcns per batch ...     8.67 (72.22%)
Maximum spatial batch extension              ...  22.57, 27.87, 27.87 au
Average spatial batch extension              ...   0.96,  1.19,  1.19 au

Time for grid setup =    0.058 sec

------------------------------
INITIAL GUESS: MODEL POTENTIAL
------------------------------
Loading Hartree-Fock densities                     ... done
Calculating cut-offs                               ... done
Setting up the integral package                    ... done
Initializing the effective Hamiltonian             ... done
Starting the Coulomb interaction                   ... done (   0.0 sec)
Reading the grid                                   ... done
Mapping shells                                     ... done
Starting the XC term evaluation                    ... done (   0.0 sec)
Transforming the Hamiltonian                       ... done (   0.0 sec)
Diagonalizing the Hamiltonian                      ... done (   0.0 sec)
Back transforming the eigenvectors                 ... done (   0.0 sec)
Now organizing SCF variables                       ... done
                      ------------------
                      INITIAL GUESS DONE (   0.2 sec)
                      ------------------
--------------
SCF ITERATIONS
--------------
ITER       Energy         Delta-E        Max-DP      RMS-DP      [F,P]     Damp
               ***  Starting incremental Fock matrix formation  ***
  0   -599.1469737036   0.000000000000 0.01219183  0.00051714  0.0745297 0.7000
  1   -599.1486861583  -0.001712454690 0.01334160  0.00051692  0.0529586 0.7000
                               ***Turning on DIIS***
  2   -599.1499558071  -0.001269648848 0.05512287  0.00162551  0.0373599 0.0000
  3   -599.1533034706  -0.003347663473 0.03132479  0.00071474  0.0017646 0.0000
  4   -599.1582891864  -0.004985715867 0.03088489  0.00069381  0.0013692 0.0000
  5   -599.1571384570   0.001150729399 0.02351782  0.00052882  0.0010210 0.0000
  6   -599.1603685640  -0.003230106927 0.04464555  0.00101134  0.0007610 0.0000
  7   -599.1597496266   0.000618937345 0.02108136  0.00048193  0.0002565 0.0000
  8   -599.1536572103   0.006092416373 0.00078908  0.00001827  0.0000140 0.0000
  9   -599.1534116722   0.000245538018 0.00005132  0.00000179  0.0000049 0.0000
 10   -599.1533497383   0.000061933971 0.00007020  0.00000169  0.0000017 0.0000
                            ***DIIS convergence achieved***

               *****************************************************
               *                     SUCCESS                       *
               *           SCF CONVERGED AFTER  11 CYCLES          *
               *****************************************************


----------------
TOTAL SCF ENERGY
----------------

Total Energy       :         -599.15336577 Eh          -16303.79195 eV

Components:
Nuclear Repulsion  :            0.00000000 Eh               0.00000 eV
Electronic Energy  :         -599.15336577 Eh          -16303.79195 eV
One Electron Energy:         -823.78610188 Eh          -22416.35946 eV
Two Electron Energy:          224.63273611 Eh            6112.56751 eV

Virial components:
Potential Energy   :        -1198.30030406 Eh          -32607.40900 eV
Kinetic Energy     :          599.14693828 Eh           16303.61705 eV
Virial Ratio       :            2.00001073


---------------
SCF CONVERGENCE
---------------

  Last Energy change         ...   -1.6034e-05  Tolerance :   1.0000e-08
  Last MAX-Density change    ...    3.0166e-06  Tolerance :   1.0000e-07
  Last RMS-Density change    ...    7.3743e-08  Tolerance :   5.0000e-09
  Last DIIS Error            ...    6.9200e-08  Tolerance :   5.0000e-07

             **** THE GBW FILE WAS UPDATED (19_K.gbw) ****
             **** DENSITY FILE WAS UPDATED (19_K.scfp) ****
             **** ENERGY FILE WAS UPDATED (19_K.en.tmp) ****
----------------------
UHF SPIN CONTAMINATION
----------------------

Expectation value of <S**2>     :     0.750182
Ideal value S*(S+1) for S=0.5   :     0.750000
Deviation                       :     0.000182

             **** THE GBW FILE WAS UPDATED (19_K.gbw) ****
             **** DENSITY FILE WAS UPDATED (19_K.scfp) ****
----------------
ORBITAL ENERGIES
----------------
                 SPIN UP ORBITALS
  NO   OCC          E(Eh)            E(eV) 
   0   1.0000    -133.531978     -3633.5899 
   1   1.0000     -14.489867      -394.2893 
   2   1.0000     -11.518357      -313.4304 
   3   1.0000     -11.518357      -313.4304 
   4   1.0000     -11.518357      -313.4304 
   5   1.0000      -1.751048       -47.6484 
   6   1.0000      -0.955150       -25.9910 
   7   1.0000      -0.955150       -25.9910 
   8   1.0000      -0.955150       -25.9910 
   9   1.0000      -0.147658        -4.0180 
  10   0.0000       0.014203         0.3865 
  11   0.0000       0.014203         0.3865 
  12   0.0000       0.014203         0.3865 
  13   0.0000       0.065634         1.7860 
  14   0.0000       0.102294         2.7836 
  15   0.0000       0.102294         2.7836 
  16   0.0000       0.102294         2.7836 
  17   0.0000       0.130867         3.5611 
  18   0.0000       0.130867         3.5611 
  19   0.0000       0.130867         3.5611 
  20   0.0000       0.130867         3.5611 
  21   0.0000       0.130867         3.5611 
  22   0.0000       0.393419        10.7055 
  23   0.0000       0.393419        10.7055 
  24   0.0000       0.393419        10.7055 
  25   0.0000       0.393419        10.7055 
  26   0.0000       0.393419        10.7055 
  27   0.0000       0.844340        22.9757 
  28   0.0000       0.844340        22.9757 
  29   0.0000       0.844340        22.9757 
  30   0.0000       1.137717        30.9589 
  31   0.0000       1.399924        38.0939 
  32   0.0000       1.399924        38.0939 
  33   0.0000       1.399924        38.0939 
  34   0.0000       1.399924        38.0939 
  35   0.0000       1.399924        38.0939 

                 SPIN DOWN ORBITALS
  NO   OCC          E(Eh)            E(eV) 
   0   1.0000    -133.531112     -3633.5663 
   1   1.0000     -14.488104      -394.2414 
   2   1.0000     -11.517998      -313.4206 
   3   1.0000     -11.517998      -313.4206 
   4   1.0000     -11.517998      -313.4206 
   5   1.0000      -1.746084       -47.5134 
   6   1.0000      -0.953422       -25.9439 
   7   1.0000      -0.953422       -25.9439 
   8   1.0000      -0.953422       -25.9439 
   9   0.0000       0.011444         0.3114 
  10   0.0000       0.031570         0.8591 
  11   0.0000       0.031570         0.8591 
  12   0.0000       0.031570         0.8591 
  13   0.0000       0.095034         2.5860 
  14   0.0000       0.127577         3.4715 
  15   0.0000       0.127577         3.4715 
  16   0.0000       0.127577         3.4715 
  17   0.0000       0.149076         4.0566 
  18   0.0000       0.149076         4.0566 
  19   0.0000       0.149076         4.0566 
  20   0.0000       0.149076         4.0566 
  21   0.0000       0.149076         4.0566 
  22   0.0000       0.399076        10.8594 
  23   0.0000       0.399076        10.8594 
  24   0.0000       0.399076        10.8594 
  25   0.0000       0.399076        10.8594 
  26   0.0000       0.399076        10.8594 
  27   0.0000       0.853715        23.2308 
  28   0.0000       0.853715        23.2308 
  29   0.0000       0.853715        23.2308 
  30   0.0000       1.150346        31.3025 
  31   0.0000       1.403266        38.1848 
  32   0.0000       1.403266        38.1848 
  33   0.0000       1.403266        38.1848 
  34   0.0000       1.403266        38.1848 
  35   0.0000       1.403266        38.1848 

                    ********************************
                    * MULLIKEN POPULATION ANALYSIS *
                    ********************************

--------------------------------------------
MULLIKEN ATOMIC CHARGES AND SPIN POPULATIONS
--------------------------------------------
   0 K :   -0.000000    1.000000
Sum of atomic charges         :   -0.0000000
Sum of atomic spin populations:    1.0000000

-----------------------------------------------------
MULLIKEN REDUCED ORBITAL CHARGES AND SPIN POPULATIONS
-----------------------------------------------------
CHARGE
  0 K s       :     7.000000  s :     7.000000
      pz      :     4.000000  p :    12.000000
      px      :     4.000000
      py      :     4.000000
      dz2     :     0.000000  d :     0.000000
      dxz     :     0.000000
      dyz     :     0.000000
      dx2y2   :     0.000000
      dxy     :     0.000000

SPIN
  0 K s       :     1.000000  s :     1.000000
      pz      :    -0.000000  p :     0.000000
      px      :    -0.000000
      py      :     0.000000
      dz2     :    -0.000000  d :    -0.000000
      dxz     :    -0.000000
      dyz     :     0.000000
      dx2y2   :    -0.000000
      dxy     :    -0.000000


                     *******************************
                     * LOEWDIN POPULATION ANALYSIS *
                     *******************************

-------------------------------------------
LOEWDIN ATOMIC CHARGES AND SPIN POPULATIONS
-------------------------------------------
   0 K :   -0.000000    1.000000

----------------------------------------------------
LOEWDIN REDUCED ORBITAL CHARGES AND SPIN POPULATIONS
----------------------------------------------------
CHARGE
  0 K s       :     7.000000  s :     7.000000
      pz      :     4.000000  p :    12.000000
      px      :     4.000000
      py      :     4.000000
      dz2     :     0.000000  d :     0.000000
      dxz     :     0.000000
      dyz     :     0.000000
      dx2y2   :     0.000000
      dxy     :     0.000000

SPIN
  0 K s       :     1.000000  s :     1.000000
      pz      :    -0.000000  p :     0.000000
      px      :    -0.000000
      py      :     0.000000
      dz2     :    -0.000000  d :    -0.000000
      dxz     :    -0.000000
      dyz     :     0.000000
      dx2y2   :    -0.000000
      dxy     :    -0.000000


                      *****************************
                      * MAYER POPULATION ANALYSIS *
                      *****************************

  NA   - Mulliken gross atomic population
  ZA   - Total nuclear charge
  QA   - Mulliken gross atomic charge
  VA   - Mayer's total valence
  BVA  - Mayer's bonded valence
  FA   - Mayer's free valence

  ATOM       NA         ZA         QA         VA         BVA        FA
  0 K     19.0000    19.0000    -0.0000     1.0004     0.0000     1.0004

  Mayer bond orders larger than 0.100000


-------
TIMINGS
-------

Total SCF time: 0 days 0 hours 0 min 2 sec 

Total time                  ....       2.849 sec
Sum of individual times     ....       2.349 sec  ( 82.4%)

Fock matrix formation       ....       1.607 sec  ( 56.4%)
Diagonalization             ....       0.052 sec  (  1.8%)
Density matrix formation    ....       0.003 sec  (  0.1%)
Population analysis         ....       0.268 sec  (  9.4%)
Initial guess               ....       0.102 sec  (  3.6%)
Orbital Transformation      ....       0.000 sec  (  0.0%)
Orbital Orthonormalization  ....       0.000 sec  (  0.0%)
DIIS solution               ....       0.259 sec  (  9.1%)


           ************************************************************
           *        Program running with 24 parallel MPI-processes    *
           *              working on a common directory               *
           ************************************************************


------------------------------------------------------------------------------- 
                              ORCA-MATRIX DRIVEN CI                            
------------------------------------------------------------------------------- 

--------------------------------
AUTOMATIC CHOICE OF INCORE LEVEL
--------------------------------

Memory available                           ...   2500.00 MB
Memory needed for S+T                      ...      0.23 MB
Memory needed for J+K                      ...      0.47 MB
Memory needed for DIIS                     ...      3.25 MB
Memory needed for 3-ext                    ...      0.67 MB
Memory needed for 4-ext                    ...      1.81 MB
Memory needed for triples                  ...      0.67 MB
 -> Final InCoreLevel    ... 5
 -> check shows that triples correction can be computed


Wavefunction type
-----------------
Correlation treatment                      ...      CCSD     
Single excitations                         ... ON
Orbital optimization                       ... OFF
Calculation of Z vector                    ... OFF
Calculation of Brueckner orbitals          ... OFF
Perturbative triple excitations            ... ON
Calculation of F12 correction              ... OFF
Frozen core treatment                      ... chemical core (10 el)
Reference Wavefunction                     ... UHF
  Alpha-MOs occ    :     5 ...    9 (  5 MO's/  5 electrons)
  Beta-MOs occ     :     5 ...    8 (  4 MO's/  4 electrons)
  Alpha-MOs virt   :    10 ...   35 ( 26 MO's              )
  Beta-MOs virt    :     9 ...   35 ( 27 MO's              )
Number of AO's                             ...     36
Number of electrons                        ...     19
Number of correlated electrons             ...      9

Algorithmic settings
--------------------
Integral transformation                    ... AO direct full transformation
K(C) Formation                             ... FULL-MO TRAFO
Maximum number of iterations               ...        50
Convergence tolerance (max. residuum)      ... 1.000e-05
Level shift for amplitude update           ... 2.000e-01
Maximum number of DIIS vectors             ...         7
DIIS turned on at iteration                ...         0
Damping before turning on DIIS             ...     0.500
Damping after turning on DIIS              ...     0.000
Pair specific amplitude update             ... OFF
Natural orbital iterations                 ... OFF
Perturbative natural orbital generation    ... OFF
Printlevel                                 ... 2

Memory handling:
----------------
Maximum memory for working arrays          ...   2500 MB
Data storage in matrix containers          ... UNCOMPRESSED
Data type for integral storage             ... DOUBLE
In-Core Storage of quantities:
   Amplitudes+Sigma Vector      ... YES
   J+K operators                ... YES
   DIIS vectors                 ... YES
   3-external integrals         ... YES
   4-external integrals         ... YES


Initializing the integral package          ... done
Warning: reference  - re-canonicalizations have been set to INT 1 VIRT 1

--------------------------
UNRESTRICTED FOCK OPERATOR
--------------------------

<ss|ss>:          231 b            0 skpd (  0.0%)    0.000 s ( 0.002 ms/b)
<ss|sp>:          630 b            0 skpd (  0.0%)    0.001 s ( 0.001 ms/b)
<ss|sd>:          378 b            0 skpd (  0.0%)    0.000 s ( 0.001 ms/b)
<ss|pp>:          315 b            0 skpd (  0.0%)    0.001 s ( 0.002 ms/b)
<ss|pd>:          315 b            0 skpd (  0.0%)    0.000 s ( 0.001 ms/b)
<ss|dd>:          126 b            0 skpd (  0.0%)    0.000 s ( 0.001 ms/b)
<sp|sp>:          465 b            0 skpd (  0.0%)    0.001 s ( 0.001 ms/b)
<sp|sd>:          540 b            0 skpd (  0.0%)    0.000 s ( 0.001 ms/b)
<sp|pp>:          450 b            0 skpd (  0.0%)    0.001 s ( 0.002 ms/b)
<sp|pd>:          450 b            1 skpd (  0.2%)    0.001 s ( 0.002 ms/b)
<sp|dd>: done
<sd|sd>:          171 b            0 skpd (  0.0%)    0.000 s ( 0.001 ms/b)
<sd|pp>:          270 b            0 skpd (  0.0%)    0.001 s ( 0.002 ms/b)
<sd|pd>: done
<sd|dd>: done
<pp|pp>:          120 b            0 skpd (  0.0%)    0.001 s ( 0.008 ms/b)
<pp|pd>:          225 b            0 skpd (  0.0%)    0.001 s ( 0.005 ms/b)
<pp|dd>:           90 b            0 skpd (  0.0%)    0.000 s ( 0.003 ms/b)
<pd|pd>:          120 b            0 skpd (  0.0%)    0.001 s ( 0.006 ms/b)
<pd|dd>: done
<dd|dd>: done
Recanonicalizing the internal orbitals
Recanonicalizing the virtual orbitals
Time needed for Fock operator              ...            5.050 sec
Reference energy                           ...   -599.153366678
Warning: for UHF the TrafoType has to be JK
Warning: for UHF the K(C)-option cannot be MO but must be AOX

-------------------------------
PARTIAL EXCHANGE TRANSFORMATION
-------------------------------

Transformation type                        ... two-operators
Generation of integrals (i,mue|j,nue)      ... ON
Generation of integrals (mue,kappa|nue,tau)... ON
Generation of integrals (i,mue|a,nue)      ... ON
Dimension of the basis                     ...   36
Number of internal alpha-MOs               ...    5 (   5-   9)
Number of internal beta-MOs                ...    4 (   5-   8)
Number of external alpha-MOs               ...   26 (  10-  35)
Number of external beta-MOs                ...   27 (   9-  35)
Pair cutoff                                ... 0.000e+00 Eh
Number of AO pairs in the trafo            ...  666
Total Number of distinct AO pairs          ...  666
Memory devoted for trafo                   ... 2500.0 MB 
Max. Number of MO pairs treated together   ... 252839      
Number Format for Storage                  ... Double (8 Byte)
Integral package used                      ... LIBINT

Starting integral evaluation:
    ... done with AO integral generation
Closing buffer AOK[aa] ( 0.00 GB; CompressionRatio= 0.00)
Closing buffer AOK[bb] ( 0.00 GB; CompressionRatio= 0.00)
Closing buffer AOK[ab] ( 0.00 GB; CompressionRatio= 0.00)
Closing buffer AOK[ba] ( 0.00 GB; CompressionRatio= 0.00)
Collecting buffer AOK 
Closing buffer IAAO1[aa] ( 0.00 GB; CompressionRatio= 0.00)
Closing buffer IAAO1[bb] ( 0.00 GB; CompressionRatio= 0.00)
Closing buffer IAAO1[ab] ( 0.00 GB; CompressionRatio= 0.00)
Closing buffer IAAO1[ba] ( 0.00 GB; CompressionRatio= 0.00)
Closing buffer IAAO2[aa] ( 0.00 GB; CompressionRatio= 0.00)
Closing buffer IAAO2[bb] ( 0.00 GB; CompressionRatio= 0.00)
Closing buffer IAAO2[ab] ( 0.00 GB; CompressionRatio= 0.00)
Closing buffer IAAO2[ba] ( 0.00 GB; CompressionRatio= 0.00)
Collecting buffer IAAO 
Closing buffer PRQS    ( 0.00 GB; CompressionRatio= 0.00)
Collecting buffer PRQS 
Number of alpha/alpha MO pairs in trafo    ...   15
Number of beta /beta  MO pairs in trafo    ...   10
Number of alpha/ beta MO pairs in trafo    ...   20
------------------------
SORTING OF (i,mue|j,nue)
------------------------

SORTING OF ALPHA/ALPHA PAIRS
IBATCH = 1 of  1
Closing buffer KAO[aa] ( 0.00 GB; CompressionRatio= 1.00)
Collecting buffer KAO 
SORTING OF BETA /BETA  PAIRS
IBATCH = 1 of  1
Closing buffer KAO[bb] ( 0.00 GB; CompressionRatio= 1.00)
Collecting buffer KAO 
SORTING OF ALPHA/BETA  PAIRS
IBATCH = 1 of  1
Closing buffer KAO[ab] ( 0.00 GB; CompressionRatio= 0.998843930636)
Collecting buffer KAO[ab] 
------------------------
SORTING OF (i,mue|a,nue)
------------------------

Number of alpha/alpha (i,a) pairs in trafo  ...  130
Number of beta /beta  (i,a) pairs in trafo  ...  108
Number of alpha/ beta (i,a) pairs in trafo  ...  135
Number of beta /alpha (i,a) pairs in trafo  ...  104
Setting up the alpha/alpha list             ... done
Setting up the beta /beta  list             ... done
Setting up the alpha/beta  list             ... done
Setting up the beta /alpha list             ... done
    ... Now sorting (i,mue|a,nue)integrals
    ... Integrals (i,b|a,c) will be made on the fly
SORTING OF ALPHA/ALPHA PAIRS
IBATCH = 1 of  1
Closing buffer IPAQ[aa]  0.00 GB; CompressionRatio= 1.00)
SORTING OF BETA /BETA  PAIRS
IBATCH = 1 of  1
Closing buffer IPAQ[bb]( 0.00 GB; CompressionRatio= 1.00)
SORTING OF ALPHA/BETA  PAIRS (NMatSort_ab=6)
IBATCH = 1 of  1
Closing buffer IPAQ[ab]( 0.00 GB; CompressionRatio= 1.00)
SORTING OF BETA/ALPHA  PAIRS
IBATCH = 1 of  1
Closing buffer IPAQ[ba]( 0.00 GB; CompressionRatio= 1.00)
N(AO-Batches) Done                         ...         0 
N(AO-Batches) Skipped                      ...         0 
N(IJ)-pairs Skipped                        ...         0 
TOTAL TIME for half transformation         ...     1.734 sec
AO-integral generation                     ...     0.000 sec
Half transformation                        ...     0.000 sec
K-integral sorting                         ...     0.674 sec
<ss|**>: 
------------------------------
PARTIAL COULOMB TRANSFORMATION
------------------------------

Transformation type                        ... two-operators
Dimension of the basis                     ...   36
Number of internal alpha-MOs               ...    5 (5-9)
Number of internal beta-MOs                ...    4 (5-8)
Pair cutoff                                ... 0.000e+00 Eh
Number of AO pairs included in the trafo   ...  666
Total Number of distinct AO pairs          ...  666
Memory devoted for trafo                   ... 2500.0 MB 
Max. Number of MO pairs treated together   ... 492012      
Max. Number of MOs treated per batch       ... 13667      
Number Format for Storage                  ... Double (8 Byte)
AO-integral source                         ... DIRECT
Integral package used                      ... LIBINT

Starting integral evaluation:
<sp|**>:         2205 b        0 skpd     0.003 s (  0.001 ms/b)
        3150 b        0 skpd     0.013 s (  0.004 ms/b)
<sd|**>: <pp|**>:         1890 b        0 skpd     0.013 s (  0.007 ms/b)
<pd|**>:         1575 b        0 skpd     0.031 s (  0.020 ms/b)
<dd|**>:         1575 b        0 skpd     0.041 s (  0.026 ms/b)
         630 b        0 skpd     0.024 s (  0.039 ms/b)
Closing buffer AOJ[aa] ( 0.00 GB; CompressionRatio= 0.91)
Closing buffer AOJ[bb] ( 0.00 GB; CompressionRatio= 0.00)
Collecting buffer AOJ 
    ... done with AO integral generation
Number of Alpha-MO pairs included          ...   15
Number of Beta-MO pairs included           ...   10
    ... Now sorting integrals
SORTING ALPHA/ALPHA PAIRS
IBATCH = 1 of  1
Closing buffer JAO[aa] ( 0.00 GB; CompressionRatio= 1.00)
SORTING BETA/BETA PAIRS
IBATCH = 1 of  1
Closing buffer JAO[bb] ( 0.00 GB; CompressionRatio= 1.00)
Collecting buffer JAO 
TOTAL TIME for half transformation         ...     0.250 sec
AO-integral generation                     ...     0.060 sec
Half transformation                        ...     0.066 sec
J-integral sorting                         ...     0.087 sec

-------------------------- SECOND HALF TRANSFORMATION -------------------------
Formation of (ij|kl),(ij|ka), (ij|ab)      ... ok (     0.188 sec)
Formation of (ik|jl),(ik|ja), (ia|jb)      ... ok (     0.202 sec)


-----------------------
SPIN UNRESTRICTED GUESS
-----------------------

Entering MDCI_UHF_Guess, Tailored=0
Spin-components of the MP2 energy:
EMP2(aa)=     -0.024935501
EMP2(bb)=     -0.020989169
EMP2(ab)=     -0.113326193

Initial guess performed in     0.002 sec
E(0)                                       ...   -599.153366678
E(MP2)                                     ...     -0.159250863
Initial E(tot)                             ...   -599.312617541
<T|T>                                      ...      0.045277191
Number of pairs included                   ... 36

------------------------------------------------
                  UHF COUPLED CLUSTER ITERATIONS
------------------------------------------------

Number of amplitudes to be optimized       ...        19723

Iter       E(tot)           E(Corr)          Delta-E          Residual     Time      <S|S>**1/2
  0   -599.312617541     -0.159250863      0.000000000      0.010823503    0.06      0.000000046
                           *** Turning on DIIS ***
  1   -599.321665441     -0.168298763     -0.009047899      0.004038900    0.04      0.010492846
  2   -599.323837958     -0.170471280     -0.002172517      0.002907159    0.03      0.018417145
  3   -599.323999396     -0.170632718     -0.000161438      0.001956003    0.03      0.023901281
  4   -599.324088635     -0.170721957     -0.000089239      0.000903258    0.03      0.029568167
  5   -599.324144285     -0.170777607     -0.000055650      0.000134806    0.03      0.033641205
  6   -599.324149378     -0.170782700     -0.000005093      0.000009073    0.03      0.034280392
               --- The Coupled-Cluster iterations have converged ---

----------------------
COUPLED CLUSTER ENERGY
----------------------

E(0)                                       ...   -599.153366678
E(CORR)                                    ...     -0.170782700
E(TOT)                                     ...   -599.324149378
Singles norm <S|S>**1/2                    ...      0.034280392 ( 0.030865720, 0.003414672)  
T1 diagnostic                              ...      0.011426797                              

------------------
LARGEST AMPLITUDES
------------------
   9a-> 13a  -1a-> -1a       0.053761
   8a-> 28a   8b-> 28b       0.018193
   6a-> 26a   7b-> 23b       0.016328
   6a-> 27a   6b-> 27b       0.016196
   8a-> 24a   7a-> 22a       0.015261
   8a-> 22a   7a-> 24a       0.015261
   7a-> 24a   7b-> 26b       0.015260
   8a-> 22a   8b-> 25b       0.015046
   7a-> 29a   7b-> 29b       0.015042
   8a-> 33a   8b-> 33b       0.014564
   6a-> 23a   6b-> 22b       0.014328
   7a-> 22a   6b-> 25b       0.014328
   7a-> 34a   6a-> 35a       0.013552
   7a-> 35a   6a-> 34a       0.013552
   8a-> 31a   8b-> 31b       0.013527
   6a-> 23a   7b-> 24b       0.013412

----------------------
UHF TRIPLES CORRECTION (Algorithm 1)
----------------------

Multiplier for the singles contribution    ...      1.000000000

SPIN-CASE Alpha-Alpha-Alpha:
10% done
20% done
30% done
40% done
50% done
60% done
70% done
80% done
90% done


SPIN-CASE Beta-Beta-Beta:
10% done
20% done
30% done
40% done
50% done
60% done
70% done
80% done
90% done


SPIN-CASE Alpha-Alpha-Beta:
10% done
20% done
30% done
40% done
50% done
60% done
70% done
80% done
90% done


SPIN-CASE Beta-Beta-Alpha:
10% done
20% done
30% done
40% done
50% done
60% done
70% done
80% done
90% done


Triples Correction (T)                     ...     -0.002089536
    alpha-alpha-alpha ... -0.000082867 (  4.0%)
    alpha-alpha-beta  ... -0.001106973 ( 53.0%)
    alpha-beta -beta  ... -0.000861356 ( 41.2%)
    beta -beta -beta  ... -0.000038340 (  1.8%)
Scaling of triples based on CCSD energies (Peterson et al. Molecular Physics 113, 1551 (2015))
E(T*) = f*E(T) where f = E(F12-CCSD)/E(CCSD) 
f = CCSD (with F12)/ CCSD (without F12)    ...      1.000000000
Scaled triples correction (T)              ...     -0.002089536

Final correlation energy                   ...     -0.172872236
E(CCSD)                                    ...   -599.324149378
E(CCSD(T))                                 ...   -599.326238914



        !!!!!!!!!!!!!!!!!!!!!!!!!!!!!!!!!!!!!!!!!!!!!!!!!!!!!!!!!!!!!!!!!!!!!!!!!! 
        !  Warning: Densities are linearized densities                           !
        !!!!!!!!!!!!!!!!!!!!!!!!!!!!!!!!!!!!!!!!!!!!!!!!!!!!!!!!!!!!!!!!!!!!!!!!!! 

NORM  =      1.055765672 sqrt=     1.027504585
W(HF) =      0.947179878
------------------------------------------------------------------------------
                           ORCA POPULATION ANALYSIS
------------------------------------------------------------------------------
Input electron density              ... 19_K.mdcip
Input spin density                  ... 19_K.mdcir
BaseName (.gbw .S,...)              ... 19_K

                    ********************************
                    * MULLIKEN POPULATION ANALYSIS *
                    ********************************

------------------------------------------
MULLIKEN ATOMIC CHARGES AND SPIN DENSITIES
------------------------------------------
   0 K :   -0.000000    1.000000
Sum of atomic charges       :   -0.0000000
Sum of atomic spin densities:    1.0000000

---------------------------------------------------
MULLIKEN REDUCED ORBITAL CHARGES AND SPIN DENSITIES
---------------------------------------------------
CHARGE
  0 K s       :     6.990842  s :     6.990842
      pz      :     3.977211  p :    11.931634
      px      :     3.977211
      py      :     3.977211
      dz2     :     0.015505  d :     0.077524
      dxz     :     0.015505
      dyz     :     0.015505
      dx2y2   :     0.015505
      dxy     :     0.015505

SPIN
  0 K s       :     0.994231  s :     0.994231
      pz      :     0.002083  p :     0.006249
      px      :     0.002083
      py      :     0.002083
      dz2     :    -0.000096  d :    -0.000480
      dxz     :    -0.000096
      dyz     :    -0.000096
      dx2y2   :    -0.000096
      dxy     :    -0.000096


                     *******************************
                     * LOEWDIN POPULATION ANALYSIS *
                     *******************************

-----------------------------------------
LOEWDIN ATOMIC CHARGES AND SPIN DENSITIES
-----------------------------------------
   0 K :   -0.000000    1.000000

--------------------------------------------------
LOEWDIN REDUCED ORBITAL CHARGES AND SPIN DENSITIES
--------------------------------------------------
CHARGE
  0 K s       :     6.990842  s :     6.990842
      pz      :     3.977211  p :    11.931634
      px      :     3.977211
      py      :     3.977211
      dz2     :     0.015505  d :     0.077524
      dxz     :     0.015505
      dyz     :     0.015505
      dx2y2   :     0.015505
      dxy     :     0.015505

SPIN
  0 K s       :     0.994231  s :     0.994231
      pz      :     0.002083  p :     0.006249
      px      :     0.002083
      py      :     0.002083
      dz2     :    -0.000096  d :    -0.000480
      dxz     :    -0.000096
      dyz     :    -0.000096
      dx2y2   :    -0.000096
      dxy     :    -0.000096


                      *****************************
                      * MAYER POPULATION ANALYSIS *
                      *****************************

  NA   - Mulliken gross atomic population
  ZA   - Total nuclear charge
  QA   - Mulliken gross atomic charge
  VA   - Mayer's total valence
  BVA  - Mayer's bonded valence
  FA   - Mayer's free valence

  ATOM       NA         ZA         QA         VA         BVA        FA
  0 K     19.0000    19.0000    -0.0000     1.4040     0.0000     1.4040





------------------------------------------------------------------------------- 
                                     TIMINGS                                   
------------------------------------------------------------------------------- 


Total execution time                   ...        8.357 sec

Fock Matrix Formation                  ...        5.050 sec ( 60.4%)
Initial Guess                          ...        0.002 sec (  0.0%)
DIIS Solver                            ...        0.013 sec (  0.2%)
State Vector Update                    ...        0.001 sec (  0.0%)
Sigma-vector construction              ...        0.242 sec (  2.9%)
  <D|H|D>(2-ext)                       ...        0.002 sec (  0.7% of sigma)
  <D|H|D>(4-ext)                       ...        0.118 sec ( 48.5% of sigma)
  <S|H|0>                              ...        0.004 sec (  1.6% of sigma)
  <D|H|S>(1-ext)                       ...        0.002 sec (  0.9% of sigma)
  Fock-dressing                        ...        0.051 sec ( 20.9% of sigma)
  (ij|ab),(ia|jb)-dressing             ...        0.044 sec ( 18.1% of sigma)
Total Time for computing (T)           ...        0.008 sec (  0.1% of ALL)
  I/O of integral and amplitudes       ...        0.002 sec ( 31.4% of (T))
  External N**7 contributions          ...        0.001 sec ( 15.7% of (T))
  N**6 triples energy contributions    ...        0.003 sec ( 40.1% of (T))


-------------------------   --------------------
FINAL SINGLE POINT ENERGY      -599.326238913775
-------------------------   --------------------


                            ***************************************
                            *     ORCA property calculations      *
                            ***************************************

                                    ---------------------
                                    Active property flags
                                    ---------------------
   (+) Dipole Moment


------------------------------------------------------------------------------
                       ORCA ELECTRIC PROPERTIES CALCULATION
------------------------------------------------------------------------------

Dipole Moment Calculation                       ... on
Quadrupole Moment Calculation                   ... off
Polarizability Calculation                      ... off
GBWName                                         ... 19_K.gbw
Electron density file                           ... 19_K.scfp
The origin for moment calculation is the CENTER OF MASS  = ( 0.000000,  0.000000  0.000000)

-------------
DIPOLE MOMENT
-------------
                                X             Y             Z
Electronic contribution:      0.00000      -0.00000       0.00000
Nuclear contribution   :      0.00000       0.00000       0.00000
                        -----------------------------------------
Total Dipole Moment    :      0.00000      -0.00000       0.00000
                        -----------------------------------------
Magnitude (a.u.)       :      0.00000
Magnitude (Debye)      :      0.00000



--------------------
Rotational spectrum 
--------------------
 
Rotational constants in cm-1:     0.000000     0.000000     0.000000 
Rotational constants in MHz :     0.000000     0.000000     0.000000 

 Dipole components along the rotational axes: 
x,y,z [a.u.] :     0.000000    -0.000000     0.000000 
x,y,z [Debye]:     0.000000    -0.000000     0.000000 

 

                           *** MDCI DENSITY ***

------------------------------------------------------------------------------
                       ORCA ELECTRIC PROPERTIES CALCULATION
------------------------------------------------------------------------------

Dipole Moment Calculation                       ... on
Quadrupole Moment Calculation                   ... off
Polarizability Calculation                      ... off
GBWName                                         ... 19_K.gbw
Electron density file                           ... 19_K.mdcip
The origin for moment calculation is the CENTER OF MASS  = ( 0.000000,  0.000000  0.000000)

-------------
DIPOLE MOMENT
-------------
                                X             Y             Z
Electronic contribution:      0.00000      -0.00000       0.00000
Nuclear contribution   :      0.00000       0.00000       0.00000
                        -----------------------------------------
Total Dipole Moment    :      0.00000      -0.00000       0.00000
                        -----------------------------------------
Magnitude (a.u.)       :      0.00000
Magnitude (Debye)      :      0.00000



--------------------
Rotational spectrum 
--------------------
 
Rotational constants in cm-1:     0.000000     0.000000     0.000000 
Rotational constants in MHz :     0.000000     0.000000     0.000000 

 Dipole components along the rotational axes: 
x,y,z [a.u.] :     0.000000    -0.000000     0.000000 
x,y,z [Debye]:     0.000000    -0.000000     0.000000 

 

Timings for individual modules:

Sum of individual times         ...       12.916 sec (=   0.215 min)
GTO integral calculation        ...        0.898 sec (=   0.015 min)   7.0 %
SCF iterations                  ...        3.257 sec (=   0.054 min)  25.2 %
MDCI module                     ...        8.760 sec (=   0.146 min)  67.8 %
                             ****ORCA TERMINATED NORMALLY****
TOTAL RUN TIME: 0 days 0 hours 0 minutes 13 seconds 650 msec
