
                                 *****************
                                 * O   R   C   A *
                                 *****************

           --- An Ab Initio, DFT and Semiempirical electronic structure package ---

                  #######################################################
                  #                        -***-                        #
                  #          Department of theory and spectroscopy      #
                  #               Directorship: Frank Neese             #
                  #        Max Planck Institute fuer Kohlenforschung    #
                  #                Kaiser Wilhelm Platz 1               #
                  #                 D-45470 Muelheim/Ruhr               #
                  #                      Germany                        #
                  #                                                     #
                  #                  All rights reserved                #
                  #                        -***-                        #
                  #######################################################


                         Program Version 4.2.0 -  RELEASE  -


 With contributions from (in alphabetic order):
   Daniel Aravena         : Magnetic Suceptibility
   Michael Atanasov       : Ab Initio Ligand Field Theory (pilot matlab implementation)
   Alexander A. Auer      : GIAO ZORA, VPT2
   Ute Becker             : Parallelization
   Giovanni Bistoni       : ED, misc. LED, open-shell LED, HFLED
   Martin Brehm           : Molecular dynamics
   Dmytro Bykov           : SCF Hessian
   Vijay G. Chilkuri      : MRCI spin determinant printing, contributions to CSF-ICE
   Dipayan Datta          : RHF DLPNO-CCSD density
   Achintya Kumar Dutta   : EOM-CC, STEOM-CC
   Dmitry Ganyushin       : Spin-Orbit,Spin-Spin,Magnetic field MRCI
   Miquel Garcia          : C-PCM Hessian, Gaussian charge scheme
   Yang Guo               : DLPNO-NEVPT2, CIM, IAO-localization
   Andreas Hansen         : Spin unrestricted coupled pair/coupled cluster methods
   Benjamin Helmich-Paris : CASSCF linear response (MC-RPA)
   Lee Huntington         : MR-EOM, pCC
   Robert Izsak           : Overlap fitted RIJCOSX, COSX-SCS-MP3, EOM
   Christian Kollmar      : KDIIS, OOCD, Brueckner-CCSD(T), CCSD density
   Simone Kossmann        : Meta GGA functionals, TD-DFT gradient, OOMP2, MP2 Hessian
   Martin Krupicka        : AUTO-CI
   Lucas Lang             : DCDCAS
   Dagmar Lenk            : GEPOL surface, SMD
   Dimitrios Liakos       : Extrapolation schemes; Compound Job, initial MDCI parallelization
   Dimitrios Manganas     : Further ROCIS development; embedding schemes
   Dimitrios Pantazis     : SARC Basis sets
   Taras Petrenko         : DFT Hessian,TD-DFT gradient, ASA, ECA, R-Raman, ABS, FL, XAS/XES, NRVS
   Peter Pinski           : DLPNO-MP2, DLPNO-MP2 Gradient
   Christoph Reimann      : Effective Core Potentials
   Marius Retegan         : Local ZFS, SOC
   Christoph Riplinger    : Optimizer, TS searches, QM/MM, DLPNO-CCSD(T), (RO)-DLPNO pert. Triples
   Tobias Risthaus        : Range-separated hybrids, TD-DFT gradient, RPA, STAB
   Michael Roemelt        : Original ROCIS implementation
   Masaaki Saitow         : Open-shell DLPNO-CCSD energy and density
   Barbara Sandhoefer     : DKH picture change effects
   Avijit Sen             : IP-ROCIS
   Kantharuban Sivalingam : CASSCF convergence, NEVPT2, FIC-MRCI
   Bernardo de Souza      : ESD, SOC TD-DFT
   Georgi Stoychev        : AutoAux, RI-MP2 NMR
   Willem Van den Heuvel  : Paramagnetic NMR
   Boris Wezisla          : Elementary symmetry handling
   Frank Wennmohs         : Technical directorship


 We gratefully acknowledge several colleagues who have allowed us to
 interface, adapt or use parts of their codes:
   Stefan Grimme, W. Hujo, H. Kruse,             : VdW corrections, initial TS optimization,
                  C. Bannwarth                     DFT functionals, gCP, sTDA/sTD-DF
   Ed Valeev, F. Pavosevic, A. Kumar             : LibInt (2-el integral package), F12 methods
   Garnet Chan, S. Sharma, J. Yang, R. Olivares  : DMRG
   Ulf Ekstrom                                   : XCFun DFT Library
   Mihaly Kallay                                 : mrcc  (arbitrary order and MRCC methods)
   Andreas Klamt, Michael Diedenhofen            : otool_cosmo (COSMO solvation model)
   Jiri Pittner, Ondrej Demel                    : Mk-CCSD
   Frank Weinhold                                : gennbo (NPA and NBO analysis)
   Christopher J. Cramer and Donald G. Truhlar   : smd solvation model
   Lars Goerigk                                  : TD-DFT with DH, B97 family of functionals
   V. Asgeirsson, H. Jonsson                     : NEB implementation
   FAccTs GmbH                                   : IRC, NEB, NEB-TS, Multilevel, MM, QM/MM, CI optimization
   S Lehtola, MJT Oliveira, MAL Marques          : LibXC Library


 Your calculation uses the libint2 library for the computation of 2-el integrals
 For citations please refer to: http://libint.valeyev.net

 Your ORCA version has been built with support for libXC version: 4.2.3
 For citations please refer to: https://tddft.org/programs/libxc/

 This ORCA versions uses:
   CBLAS   interface :  Fast vector & matrix operations
   LAPACKE interface :  Fast linear algebra routines
   SCALAPACK package :  Parallel linear algebra routines


----- Orbital basis set information -----
Your calculation utilizes the basis: def2-TZVPPD
   F. Weigend and R. Ahlrichs, Phys. Chem. Chem. Phys. 7, 3297 (2005).
   D. Rappoport and F. Furche, J. Chem. Phys. 133 134105 (2010).

================================================================================
                                        WARNINGS
                       Please study these warnings very carefully!
================================================================================


WARNING: your system is open-shell and RHF/RKS was chosen
  ===> : WILL SWITCH to UHF/UKS


WARNING: MDCI localization with Augmented Hessian Foster-Boys
  ===> : Switching off randomization!

WARNING: Post HF methods need fully converged wavefunctions
  ===> : Setting SCFConvForced true
         You can overwrite this default with %scf ConvForced false 


INFO   : the flag for use of LIBINT has been found!

================================================================================
                                       INPUT FILE
================================================================================
NAME = 24_Cr.in
|  1> #
|  2> # 24_Cr CCSD(T)/Def2-TZVPPD
|  3> #
|  4> ! CCSD(T) Def2-TZVPPD tightscf
|  5> 
|  6> *xyz 0 7
|  7>  Cr 0.0 0.0 0.0
|  8> *
|  9> 
| 10> %maxcore 5000 
| 11> 
| 12> %pal
| 13> nprocs 24
| 14> end
| 15> 
| 16> 
| 17>                          ****END OF INPUT****
================================================================================

                       ****************************
                       * Single Point Calculation *
                       ****************************

---------------------------------
CARTESIAN COORDINATES (ANGSTROEM)
---------------------------------
  Cr     0.000000    0.000000    0.000000

----------------------------
CARTESIAN COORDINATES (A.U.)
----------------------------
  NO LB      ZA    FRAG     MASS         X           Y           Z
   0 Cr   24.0000    0    52.000    0.000000    0.000000    0.000000

--------------------------------
INTERNAL COORDINATES (ANGSTROEM)
--------------------------------
 Cr     0   0   0     0.000000000000     0.00000000     0.00000000

---------------------------
INTERNAL COORDINATES (A.U.)
---------------------------
 Cr     0   0   0     0.000000000000     0.00000000     0.00000000

---------------------
BASIS SET INFORMATION
---------------------
There are 1 groups of distinct atoms

 Group   1 Type Cr  : 17s13p7d2f1g contracted to 6s6p4d2f1g pattern {842111/631111/4111/11/1}

Atom   0Cr   basis set group =>   1


           ************************************************************
           *        Program running with 24 parallel MPI-processes    *
           *              working on a common directory               *
           ************************************************************
------------------------------------------------------------------------------
                           ORCA GTO INTEGRAL CALCULATION
------------------------------------------------------------------------------

                         BASIS SET STATISTICS AND STARTUP INFO

 # of primitive gaussian shells          ...   40
 # of primitive gaussian functions       ...  114
 # of contracted shells                  ...   19
 # of contracted basis functions         ...   67
 Highest angular momentum                ...    4
 Maximum contraction depth               ...    8
 Integral package used                   ... LIBINT
 Integral threshhold            Thresh   ...  2.500e-11
 Primitive cut-off              TCut     ...  2.500e-12


------------------------------ INTEGRAL EVALUATION ----------------------------


 * One electron integrals 
 Pre-screening matrix                    ... done
 Shell pair data                         ... done (   0.000 sec)



           ************************************************************
           *        Program running with 24 parallel MPI-processes    *
           *              working on a common directory               *
           ************************************************************
-------------------------------------------------------------------------------
                                 ORCA SCF
-------------------------------------------------------------------------------

------------
SCF SETTINGS
------------
Hamiltonian:
 Ab initio Hamiltonian  Method          .... Hartree-Fock(GTOs)


General Settings:
 Integral files         IntName         .... 24_Cr
 Hartree-Fock type      HFTyp           .... UHF
 Total Charge           Charge          ....    0
 Multiplicity           Mult            ....    7
 Number of Electrons    NEL             ....   24
 Basis Dimension        Dim             ....   67
 Nuclear Repulsion      ENuc            ....      0.0000000000 Eh

Convergence Acceleration:
 DIIS                   CNVDIIS         .... on
   Start iteration      DIISMaxIt       ....    12
   Startup error        DIISStart       ....  0.200000
   # of expansion vecs  DIISMaxEq       ....     5
   Bias factor          DIISBfac        ....   1.050
   Max. coefficient     DIISMaxC        ....  10.000
 Newton-Raphson         CNVNR           .... off
 SOSCF                  CNVSOSCF        .... off
 Level Shifting         CNVShift        .... on
   Level shift para.    LevelShift      ....    0.2500
   Turn off err/grad.   ShiftErr        ....    0.0010
 Zerner damping         CNVZerner       .... off
 Static damping         CNVDamp         .... on
   Fraction old density DampFac         ....    0.7000
   Max. Damping (<1)    DampMax         ....    0.9800
   Min. Damping (>=0)   DampMin         ....    0.0000
   Turn off err/grad.   DampErr         ....    0.1000
 Fernandez-Rico         CNVRico         .... off

SCF Procedure:
 Maximum # iterations   MaxIter         ....   125
 SCF integral mode      SCFMode         .... Direct
   Integral package                     .... LIBINT
 Reset frequency        DirectResetFreq ....    20
 Integral Threshold     Thresh          ....  2.500e-11 Eh
 Primitive CutOff       TCut            ....  2.500e-12 Eh

Convergence Tolerance:
 Convergence Check Mode ConvCheckMode   .... Total+1el-Energy
 Convergence forced     ConvForced      .... 1
 Energy Change          TolE            ....  1.000e-08 Eh
 1-El. energy change                    ....  1.000e-05 Eh
 DIIS Error             TolErr          ....  5.000e-07


Diagonalization of the overlap matrix:
Smallest eigenvalue                        ... 4.166e-02
Time for diagonalization                   ...    0.017 sec
Threshold for overlap eigenvalues          ... 1.000e-08
Number of eigenvalues below threshold      ... 0
Time for construction of square roots      ...    0.018 sec
Total time needed                          ...    0.036 sec

-------------------
DFT GRID GENERATION
-------------------

General Integration Accuracy     IntAcc      ...  4.340
Radial Grid Type                 RadialGrid  ... Gauss-Chebyshev
Angular Grid (max. acc.)         AngularGrid ... Lebedev-110
Angular grid pruning method      GridPruning ... 3 (G Style)
Weight generation scheme         WeightScheme... Becke
Basis function cutoff            BFCut       ...    1.0000e-11
Integration weight cutoff        WCut        ...    1.0000e-14
Grids for H and He will be reduced by one unit

# of grid points (after initial pruning)     ...   2972 (   0.0 sec)
# of grid points (after weights+screening)   ...   2972 (   0.0 sec)
Grid point division into batches done        ...    0.0 sec
Reduced shell lists constructed in    0.0 sec

Total number of grid points                  ...     2972
Total number of batches                      ...       47
Average number of points per batch           ...       63
Average number of grid points per atom       ...     2972
Average number of shells per batch           ...     4.67 (24.56%)
Average number of basis functions per batch  ...    14.00 (20.90%)
Average number of large shells per batch     ...     4.67 (100.00%)
Average number of large basis fcns per batch ...    14.00 (100.00%)
Maximum spatial batch extension              ...  18.71, 28.73, 28.73 au
Average spatial batch extension              ...   0.80,  1.22,  1.22 au

Time for grid setup =    0.076 sec

------------------------------
INITIAL GUESS: MODEL POTENTIAL
------------------------------
Loading Hartree-Fock densities                     ... done
Calculating cut-offs                               ... done
Setting up the integral package                    ... done
Initializing the effective Hamiltonian             ... done
Starting the Coulomb interaction                   ... done (   0.0 sec)
Reading the grid                                   ... done
Mapping shells                                     ... done
Starting the XC term evaluation                    ... done (   0.0 sec)
Transforming the Hamiltonian                       ... done (   0.0 sec)
Diagonalizing the Hamiltonian                      ... done (   0.0 sec)
Back transforming the eigenvectors                 ... done (   0.0 sec)
Now organizing SCF variables                       ... done
                      ------------------
                      INITIAL GUESS DONE (   0.2 sec)
                      ------------------
--------------
SCF ITERATIONS
--------------
ITER       Energy         Delta-E        Max-DP      RMS-DP      [F,P]     Damp
               ***  Starting incremental Fock matrix formation  ***
  0  -1043.3082173126   0.000000000000 0.04069485  0.00077749  0.1324965 0.7000
  1  -1043.3167882380  -0.008570925385 0.04913005  0.00071613  0.0813719 0.7000
                               ***Turning on DIIS***
  2  -1043.3218540217  -0.005065783630 0.15027353  0.00200977  0.0504363 0.0000
  3  -1043.2286986530   0.093155368700 0.04273000  0.00063222  0.0137448 0.0000
  4  -1043.4140969232  -0.185398270198 0.03835414  0.00052180  0.0068741 0.0000
  5  -1043.3331537517   0.080943171496 0.03698004  0.00050681  0.0029758 0.0000
  6  -1043.3305776795   0.002576072202 0.02406762  0.00033677  0.0018187 0.0000
  7  -1043.3329035075  -0.002325828066 0.01338815  0.00019023  0.0010227 0.0000
  8  -1043.3356633001  -0.002759792563 0.01294593  0.00018617  0.0005569 0.0000
  9  -1043.3356573864   0.000005913696 0.00294228  0.00004271  0.0000901 0.0000
 10  -1043.3346540309   0.001003355532 0.00048266  0.00000702  0.0000164 0.0000
 11  -1043.3346308155   0.000023215388 0.00010412  0.00000152  0.0000042 0.0000
                            ***DIIS convergence achieved***

               *****************************************************
               *                     SUCCESS                       *
               *           SCF CONVERGED AFTER  12 CYCLES          *
               *****************************************************


----------------
TOTAL SCF ENERGY
----------------

Total Energy       :        -1043.33466148 Eh          -28390.57949 eV

Components:
Nuclear Repulsion  :            0.00000000 Eh               0.00000 eV
Electronic Energy  :        -1043.33466148 Eh          -28390.57949 eV
One Electron Energy:        -1439.64230173 Eh          -39174.65863 eV
Two Electron Energy:          396.30764026 Eh           10784.07914 eV

Virial components:
Potential Energy   :        -2086.59380826 Eh          -56779.10412 eV
Kinetic Energy     :         1043.25914678 Eh           28388.52463 eV
Virial Ratio       :            2.00007238


---------------
SCF CONVERGENCE
---------------

  Last Energy change         ...   -3.0661e-05  Tolerance :   1.0000e-08
  Last MAX-Density change    ...    4.9421e-06  Tolerance :   1.0000e-07
  Last RMS-Density change    ...    7.6461e-08  Tolerance :   5.0000e-09
  Last DIIS Error            ...    4.7001e-07  Tolerance :   5.0000e-07

             **** THE GBW FILE WAS UPDATED (24_Cr.gbw) ****
             **** DENSITY FILE WAS UPDATED (24_Cr.scfp) ****
             **** ENERGY FILE WAS UPDATED (24_Cr.en.tmp) ****
----------------------
UHF SPIN CONTAMINATION
----------------------

Expectation value of <S**2>     :    12.000049
Ideal value S*(S+1) for S=3.0   :    12.000000
Deviation                       :     0.000049

             **** THE GBW FILE WAS UPDATED (24_Cr.gbw) ****
             **** DENSITY FILE WAS UPDATED (24_Cr.scfp) ****
----------------
ORBITAL ENERGIES
----------------
                 SPIN UP ORBITALS
  NO   OCC          E(Eh)            E(eV) 
   0   1.0000    -220.390111     -5997.1198 
   1   1.0000     -26.262362      -714.6352 
   2   1.0000     -22.191204      -603.8534 
   3   1.0000     -22.191204      -603.8534 
   4   1.0000     -22.191204      -603.8534 
   5   1.0000      -3.459917       -94.1491 
   6   1.0000      -2.262706       -61.5714 
   7   1.0000      -2.262706       -61.5714 
   8   1.0000      -2.262706       -61.5714 
   9   1.0000      -0.373577       -10.1655 
  10   1.0000      -0.373577       -10.1655 
  11   1.0000      -0.373577       -10.1655 
  12   1.0000      -0.373577       -10.1655 
  13   1.0000      -0.373577       -10.1655 
  14   1.0000      -0.222475        -6.0539 
  15   0.0000       0.027726         0.7545 
  16   0.0000       0.027726         0.7545 
  17   0.0000       0.027726         0.7545 
  18   0.0000       0.138175         3.7599 
  19   0.0000       0.138175         3.7599 
  20   0.0000       0.138175         3.7599 
  21   0.0000       0.157994         4.2992 
  22   0.0000       0.157994         4.2992 
  23   0.0000       0.157994         4.2992 
  24   0.0000       0.157994         4.2992 
  25   0.0000       0.157994         4.2992 
  26   0.0000       0.160967         4.3801 
  27   0.0000       0.530358        14.4318 
  28   0.0000       0.530358        14.4318 
  29   0.0000       0.530358        14.4318 
  30   0.0000       0.649799        17.6819 
  31   0.0000       0.649799        17.6819 
  32   0.0000       0.649799        17.6819 
  33   0.0000       0.649799        17.6819 
  34   0.0000       0.649799        17.6819 
  35   0.0000       1.775647        48.3178 
  36   0.0000       1.775647        48.3178 
  37   0.0000       1.775647        48.3178 
  38   0.0000       1.775647        48.3178 
  39   0.0000       1.775647        48.3178 
  40   0.0000       1.775647        48.3178 
  41   0.0000       1.775647        48.3178 
  42   0.0000       2.131567        58.0029 
  43   0.0000       2.131567        58.0029 
  44   0.0000       2.131567        58.0029 
  45   0.0000       2.304178        62.6999 
  46   0.0000       2.484527        67.6074 
  47   0.0000       2.484527        67.6074 
  48   0.0000       2.484527        67.6074 
  49   0.0000       2.484527        67.6074 
  50   0.0000       2.484527        67.6074 
  51   0.0000       6.088766       165.6837 
  52   0.0000       6.088766       165.6837 
  53   0.0000       6.088766       165.6837 
  54   0.0000       6.088766       165.6837 
  55   0.0000       6.088766       165.6837 
  56   0.0000       6.088766       165.6837 
  57   0.0000       6.088766       165.6837 
  58   0.0000       6.088766       165.6837 
  59   0.0000       6.088766       165.6837 
  60   0.0000       6.801549       185.0796 
  61   0.0000       6.801549       185.0796 
  62   0.0000       6.801549       185.0796 
  63   0.0000       6.801549       185.0796 
  64   0.0000       6.801549       185.0796 
  65   0.0000       6.801549       185.0796 
  66   0.0000       6.801549       185.0796 

                 SPIN DOWN ORBITALS
  NO   OCC          E(Eh)            E(eV) 
   0   1.0000    -220.388032     -5997.0632 
   1   1.0000     -26.161006      -711.8772 
   2   1.0000     -22.092674      -601.1722 
   3   1.0000     -22.092674      -601.1722 
   4   1.0000     -22.092674      -601.1722 
   5   1.0000      -3.112353       -84.6914 
   6   1.0000      -1.841039       -50.0972 
   7   1.0000      -1.841039       -50.0972 
   8   1.0000      -1.841039       -50.0972 
   9   0.0000       0.031069         0.8454 
  10   0.0000       0.052091         1.4175 
  11   0.0000       0.052091         1.4175 
  12   0.0000       0.052091         1.4175 
  13   0.0000       0.158510         4.3133 
  14   0.0000       0.158510         4.3133 
  15   0.0000       0.158510         4.3133 
  16   0.0000       0.158510         4.3133 
  17   0.0000       0.158510         4.3133 
  18   0.0000       0.188640         5.1331 
  19   0.0000       0.188640         5.1331 
  20   0.0000       0.188640         5.1331 
  21   0.0000       0.245512         6.6807 
  22   0.0000       0.396479        10.7887 
  23   0.0000       0.396479        10.7887 
  24   0.0000       0.396479        10.7887 
  25   0.0000       0.396479        10.7887 
  26   0.0000       0.396479        10.7887 
  27   0.0000       0.598681        16.2909 
  28   0.0000       0.598681        16.2909 
  29   0.0000       0.598681        16.2909 
  30   0.0000       0.832784        22.6612 
  31   0.0000       0.832784        22.6612 
  32   0.0000       0.832784        22.6612 
  33   0.0000       0.832784        22.6612 
  34   0.0000       0.832784        22.6612 
  35   0.0000       1.920550        52.2608 
  36   0.0000       1.920550        52.2608 
  37   0.0000       1.920550        52.2608 
  38   0.0000       1.920550        52.2608 
  39   0.0000       1.920550        52.2608 
  40   0.0000       1.920550        52.2608 
  41   0.0000       1.920550        52.2608 
  42   0.0000       2.242326        61.0168 
  43   0.0000       2.242326        61.0168 
  44   0.0000       2.242326        61.0168 
  45   0.0000       2.438134        66.3450 
  46   0.0000       2.671817        72.7038 
  47   0.0000       2.671817        72.7038 
  48   0.0000       2.671817        72.7038 
  49   0.0000       2.671817        72.7038 
  50   0.0000       2.671817        72.7038 
  51   0.0000       6.216254       169.1529 
  52   0.0000       6.216254       169.1529 
  53   0.0000       6.216254       169.1529 
  54   0.0000       6.216254       169.1529 
  55   0.0000       6.216254       169.1529 
  56   0.0000       6.216254       169.1529 
  57   0.0000       6.216254       169.1529 
  58   0.0000       6.216254       169.1529 
  59   0.0000       6.216254       169.1529 
  60   0.0000       7.043514       191.6637 
  61   0.0000       7.043514       191.6637 
  62   0.0000       7.043514       191.6637 
  63   0.0000       7.043514       191.6637 
  64   0.0000       7.043514       191.6637 
  65   0.0000       7.043514       191.6637 
  66   0.0000       7.043514       191.6637 

                    ********************************
                    * MULLIKEN POPULATION ANALYSIS *
                    ********************************

--------------------------------------------
MULLIKEN ATOMIC CHARGES AND SPIN POPULATIONS
--------------------------------------------
   0 Cr:    0.000000    6.000000
Sum of atomic charges         :    0.0000000
Sum of atomic spin populations:    6.0000000

-----------------------------------------------------
MULLIKEN REDUCED ORBITAL CHARGES AND SPIN POPULATIONS
-----------------------------------------------------
CHARGE
  0 Crs       :     7.000000  s :     7.000000
      pz      :     4.000000  p :    12.000000
      px      :     4.000000
      py      :     4.000000
      dz2     :     1.000000  d :     5.000000
      dxz     :     1.000000
      dyz     :     1.000000
      dx2y2   :     1.000000
      dxy     :     1.000000
      f0      :     0.000000  f :     0.000000
      f+1     :     0.000000
      f-1     :     0.000000
      f+2     :     0.000000
      f-2     :     0.000000
      f+3     :     0.000000
      f-3     :     0.000000
      g0      :     0.000000  g :     0.000000
      g+1     :     0.000000
      g-1     :     0.000000
      g+2     :     0.000000
      g-2     :     0.000000
      g+3     :     0.000000
      g-3     :     0.000000
      g+4     :     0.000000
      g-4     :     0.000000

SPIN
  0 Crs       :     1.000000  s :     1.000000
      pz      :     0.000000  p :     0.000000
      px      :     0.000000
      py      :     0.000000
      dz2     :     1.000000  d :     5.000000
      dxz     :     1.000000
      dyz     :     1.000000
      dx2y2   :     1.000000
      dxy     :     1.000000
      f0      :     0.000000  f :     0.000000
      f+1     :     0.000000
      f-1     :     0.000000
      f+2     :     0.000000
      f-2     :     0.000000
      f+3     :     0.000000
      f-3     :     0.000000
      g0      :     0.000000  g :     0.000000
      g+1     :     0.000000
      g-1     :     0.000000
      g+2     :     0.000000
      g-2     :     0.000000
      g+3     :     0.000000
      g-3     :     0.000000
      g+4     :     0.000000
      g-4     :     0.000000


                     *******************************
                     * LOEWDIN POPULATION ANALYSIS *
                     *******************************

-------------------------------------------
LOEWDIN ATOMIC CHARGES AND SPIN POPULATIONS
-------------------------------------------
   0 Cr:    0.000000    6.000000

----------------------------------------------------
LOEWDIN REDUCED ORBITAL CHARGES AND SPIN POPULATIONS
----------------------------------------------------
CHARGE
  0 Crs       :     7.000000  s :     7.000000
      pz      :     4.000000  p :    12.000000
      px      :     4.000000
      py      :     4.000000
      dz2     :     1.000000  d :     5.000000
      dxz     :     1.000000
      dyz     :     1.000000
      dx2y2   :     1.000000
      dxy     :     1.000000
      f0      :     0.000000  f :     0.000000
      f+1     :     0.000000
      f-1     :     0.000000
      f+2     :     0.000000
      f-2     :     0.000000
      f+3     :     0.000000
      f-3     :     0.000000
      g0      :     0.000000  g :     0.000000
      g+1     :     0.000000
      g-1     :     0.000000
      g+2     :     0.000000
      g-2     :     0.000000
      g+3     :     0.000000
      g-3     :     0.000000
      g+4     :     0.000000
      g-4     :     0.000000

SPIN
  0 Crs       :     1.000000  s :     1.000000
      pz      :     0.000000  p :     0.000000
      px      :     0.000000
      py      :     0.000000
      dz2     :     1.000000  d :     5.000000
      dxz     :     1.000000
      dyz     :     1.000000
      dx2y2   :     1.000000
      dxy     :     1.000000
      f0      :     0.000000  f :     0.000000
      f+1     :     0.000000
      f-1     :     0.000000
      f+2     :     0.000000
      f-2     :     0.000000
      f+3     :     0.000000
      f-3     :     0.000000
      g0      :     0.000000  g :     0.000000
      g+1     :     0.000000
      g-1     :     0.000000
      g+2     :     0.000000
      g-2     :     0.000000
      g+3     :     0.000000
      g-3     :     0.000000
      g+4     :     0.000000
      g-4     :     0.000000


                      *****************************
                      * MAYER POPULATION ANALYSIS *
                      *****************************

  NA   - Mulliken gross atomic population
  ZA   - Total nuclear charge
  QA   - Mulliken gross atomic charge
  VA   - Mayer's total valence
  BVA  - Mayer's bonded valence
  FA   - Mayer's free valence

  ATOM       NA         ZA         QA         VA         BVA        FA
  0 Cr    24.0000    24.0000     0.0000     6.0001     0.0000     6.0001

  Mayer bond orders larger than 0.100000


-------
TIMINGS
-------

Total SCF time: 0 days 0 hours 0 min 3 sec 

Total time                  ....       3.580 sec
Sum of individual times     ....       3.044 sec  ( 85.0%)

Fock matrix formation       ....       2.335 sec  ( 65.2%)
Diagonalization             ....       0.054 sec  (  1.5%)
Density matrix formation    ....       0.007 sec  (  0.2%)
Population analysis         ....       0.071 sec  (  2.0%)
Initial guess               ....       0.129 sec  (  3.6%)
Orbital Transformation      ....       0.000 sec  (  0.0%)
Orbital Orthonormalization  ....       0.000 sec  (  0.0%)
DIIS solution               ....       0.373 sec  ( 10.4%)


           ************************************************************
           *        Program running with 24 parallel MPI-processes    *
           *              working on a common directory               *
           ************************************************************


------------------------------------------------------------------------------- 
                              ORCA-MATRIX DRIVEN CI                            
------------------------------------------------------------------------------- 

--------------------------------
AUTOMATIC CHOICE OF INCORE LEVEL
--------------------------------

Memory available                           ...   2500.00 MB
Memory needed for S+T                      ...      3.40 MB
Memory needed for J+K                      ...      6.85 MB
Memory needed for DIIS                     ...     47.66 MB
Memory needed for 3-ext                    ...     10.73 MB
Memory needed for 4-ext                    ...     28.43 MB
Memory needed for triples                  ...      5.36 MB
 -> Final InCoreLevel    ... 5
 -> check shows that triples correction can be computed


Wavefunction type
-----------------
Correlation treatment                      ...      CCSD     
Single excitations                         ... ON
Orbital optimization                       ... OFF
Calculation of Z vector                    ... OFF
Calculation of Brueckner orbitals          ... OFF
Perturbative triple excitations            ... ON
Calculation of F12 correction              ... OFF
Frozen core treatment                      ... chemical core (10 el)
Reference Wavefunction                     ... UHF
  Alpha-MOs occ    :     5 ...   14 ( 10 MO's/ 10 electrons)
  Beta-MOs occ     :     5 ...    8 (  4 MO's/  4 electrons)
  Alpha-MOs virt   :    15 ...   66 ( 52 MO's              )
  Beta-MOs virt    :     9 ...   66 ( 58 MO's              )
Number of AO's                             ...     67
Number of electrons                        ...     24
Number of correlated electrons             ...     14

Algorithmic settings
--------------------
Integral transformation                    ... AO direct full transformation
K(C) Formation                             ... FULL-MO TRAFO
Maximum number of iterations               ...        50
Convergence tolerance (max. residuum)      ... 1.000e-05
Level shift for amplitude update           ... 2.000e-01
Maximum number of DIIS vectors             ...         7
DIIS turned on at iteration                ...         0
Damping before turning on DIIS             ...     0.500
Damping after turning on DIIS              ...     0.000
Pair specific amplitude update             ... OFF
Natural orbital iterations                 ... OFF
Perturbative natural orbital generation    ... OFF
Printlevel                                 ... 2

Memory handling:
----------------
Maximum memory for working arrays          ...   2500 MB
Data storage in matrix containers          ... UNCOMPRESSED
Data type for integral storage             ... DOUBLE
In-Core Storage of quantities:
   Amplitudes+Sigma Vector      ... YES
   J+K operators                ... YES
   DIIS vectors                 ... YES
   3-external integrals         ... YES
   4-external integrals         ... YES


Initializing the integral package          ... done
Warning: reference  - re-canonicalizations have been set to INT 1 VIRT 1

--------------------------
UNRESTRICTED FOCK OPERATOR
--------------------------

<ss|ss>:          231 b            0 skpd (  0.0%)    0.000 s ( 0.002 ms/b)
<ss|sp>:          756 b            0 skpd (  0.0%)    0.001 s ( 0.002 ms/b)
<ss|sd>:          504 b            0 skpd (  0.0%)    0.001 s ( 0.001 ms/b)
<ss|sf>:          252 b            0 skpd (  0.0%)    0.000 s ( 0.001 ms/b)
<ss|sg>:          126 b            0 skpd (  0.0%)    0.000 s ( 0.002 ms/b)
<ss|pp>:          441 b            0 skpd (  0.0%)    0.001 s ( 0.001 ms/b)
<ss|pd>:          504 b            0 skpd (  0.0%)    0.001 s ( 0.001 ms/b)
<ss|pf>:          252 b            0 skpd (  0.0%)    0.000 s ( 0.001 ms/b)
<ss|pg>:          126 b            0 skpd (  0.0%)    0.000 s ( 0.003 ms/b)
<ss|dd>:          210 b            0 skpd (  0.0%)    0.001 s ( 0.003 ms/b)
<ss|df>:          168 b            0 skpd (  0.0%)    0.000 s ( 0.001 ms/b)
<ss|dg>:           84 b            0 skpd (  0.0%)    0.000 s ( 0.004 ms/b)
<ss|ff>:           63 b            0 skpd (  0.0%)    0.000 s ( 0.003 ms/b)
<ss|fg>:           42 b            0 skpd (  0.0%)    0.000 s ( 0.005 ms/b)
<ss|gg>:           21 b            0 skpd (  0.0%)    0.000 s ( 0.013 ms/b)
<sp|sp>:          666 b            0 skpd (  0.0%)    0.001 s ( 0.001 ms/b)
<sp|sd>:          864 b            0 skpd (  0.0%)    0.001 s ( 0.001 ms/b)
<sp|sf>:          432 b            0 skpd (  0.0%)    0.000 s ( 0.001 ms/b)
<sp|sg>:          216 b            0 skpd (  0.0%)    0.001 s ( 0.003 ms/b)
<sp|pp>:          756 b            0 skpd (  0.0%)    0.001 s ( 0.001 ms/b)
<sp|pd>:          864 b            0 skpd (  0.0%)    0.001 s ( 0.001 ms/b)
<sp|pf>:          432 b            1 skpd (  0.2%)    0.001 s ( 0.001 ms/b)
<sp|pg>:          216 b            0 skpd (  0.0%)    0.001 s ( 0.004 ms/b)
<sp|dd>:          360 b            0 skpd (  0.0%)    0.001 s ( 0.004 ms/b)
<sp|df>:          288 b          279 skpd ( 96.9%)    0.000 s ( 0.028 ms/b)
<sp|dg>: done
<sp|ff>:          108 b           92 skpd ( 85.2%)    0.000 s ( 0.012 ms/b)
<sp|fg>:           72 b           68 skpd ( 94.4%)    0.000 s ( 0.026 ms/b)
<sp|gg>:           36 b           33 skpd ( 91.7%)    0.000 s ( 0.038 ms/b)
<sd|sd>:          300 b            0 skpd (  0.0%)    0.001 s ( 0.002 ms/b)
<sd|sf>:          288 b            0 skpd (  0.0%)    0.000 s ( 0.001 ms/b)
<sd|sg>:          144 b            0 skpd (  0.0%)    0.001 s ( 0.004 ms/b)
<sd|pp>:          504 b            1 skpd (  0.2%)    0.001 s ( 0.002 ms/b)
<sd|pd>:          576 b            1 skpd (  0.2%)    0.001 s ( 0.003 ms/b)
<sd|pf>:          288 b          284 skpd ( 98.6%)    0.000 s ( 0.022 ms/b)
<sd|pg>: done
<sd|dd>:          240 b            0 skpd (  0.0%)    0.002 s ( 0.007 ms/b)
<sd|df>:          192 b            0 skpd (  0.0%)    0.001 s ( 0.005 ms/b)
<sd|dg>:           96 b            0 skpd (  0.0%)    0.001 s ( 0.015 ms/b)
<sd|ff>: done
<sd|fg>: done
<sd|gg>:           24 b           23 skpd ( 95.8%)    0.000 s ( 0.093 ms/b)
<sf|sf>:           78 b            0 skpd (  0.0%)    0.000 s ( 0.001 ms/b)
<sf|sg>:           72 b            0 skpd (  0.0%)    0.000 s ( 0.006 ms/b)
<sf|pp>:          252 b            0 skpd (  0.0%)    0.001 s ( 0.003 ms/b)
<sf|pd>:          288 b          286 skpd ( 99.3%)    0.000 s ( 0.025 ms/b)
<sf|pf>:          144 b          142 skpd ( 98.6%)    0.000 s ( 0.019 ms/b)
<sf|pg>: done
<sf|dd>:          120 b            0 skpd (  0.0%)    0.001 s ( 0.010 ms/b)
<sf|df>: done
<sf|dg>: done
<sf|ff>: done
<sf|fg>: done
<sf|gg>: done
<sg|sg>:           21 b            0 skpd (  0.0%)    0.000 s ( 0.009 ms/b)
<sg|pp>:          126 b            0 skpd (  0.0%)    0.001 s ( 0.006 ms/b)
<sg|pd>: done
<sg|pf>: done
<sg|pg>: done
<sg|dd>:           60 b            0 skpd (  0.0%)    0.001 s ( 0.020 ms/b)
<sg|df>: done
<sg|dg>: done
<sg|ff>: done
<sg|fg>: done
<sg|gg>: done
<pp|pp>:          231 b            0 skpd (  0.0%)    0.001 s ( 0.005 ms/b)
<pp|pd>:          504 b            0 skpd (  0.0%)    0.001 s ( 0.003 ms/b)
<pp|pf>:          252 b            0 skpd (  0.0%)    0.001 s ( 0.003 ms/b)
<pp|pg>:          126 b            0 skpd (  0.0%)    0.001 s ( 0.009 ms/b)
<pp|dd>:          210 b            0 skpd (  0.0%)    0.002 s ( 0.008 ms/b)
<pp|df>:          168 b            0 skpd (  0.0%)    0.001 s ( 0.006 ms/b)
<pp|dg>:           84 b            0 skpd (  0.0%)    0.001 s ( 0.018 ms/b)
<pp|ff>:           63 b            0 skpd (  0.0%)    0.001 s ( 0.011 ms/b)
<pp|fg>:           42 b            0 skpd (  0.0%)    0.001 s ( 0.024 ms/b)
<pp|gg>:           21 b            0 skpd (  0.0%)    0.001 s ( 0.064 ms/b)
<pd|pd>:          300 b            0 skpd (  0.0%)    0.002 s ( 0.008 ms/b)
<pd|pf>:          288 b            0 skpd (  0.0%)    0.001 s ( 0.005 ms/b)
<pd|pg>:          144 b            0 skpd (  0.0%)    0.002 s ( 0.016 ms/b)
<pd|dd>:          240 b            0 skpd (  0.0%)    0.003 s ( 0.014 ms/b)
<pd|df>:          192 b            0 skpd (  0.0%)    0.002 s ( 0.011 ms/b)
<pd|dg>:           96 b            0 skpd (  0.0%)    0.003 s ( 0.032 ms/b)
<pd|ff>:           72 b           65 skpd ( 90.3%)    0.000 s ( 0.068 ms/b)
<pd|fg>:           48 b           46 skpd ( 95.8%)    0.000 s ( 0.134 ms/b)
<pd|gg>:           24 b           23 skpd ( 95.8%)    0.000 s ( 0.285 ms/b)
<pf|pf>:           78 b            0 skpd (  0.0%)    0.001 s ( 0.007 ms/b)
<pf|pg>:           72 b            0 skpd (  0.0%)    0.001 s ( 0.020 ms/b)
<pf|dd>:          120 b            0 skpd (  0.0%)    0.002 s ( 0.017 ms/b)
<pf|df>:           96 b           92 skpd ( 95.8%)    0.000 s ( 0.038 ms/b)
<pf|dg>:           48 b           46 skpd ( 95.8%)    0.000 s ( 0.106 ms/b)
<pf|ff>:           36 b           30 skpd ( 83.3%)    0.000 s ( 0.050 ms/b)
<pf|fg>:           24 b           22 skpd ( 91.7%)    0.000 s ( 0.089 ms/b)
<pf|gg>:           12 b           11 skpd ( 91.7%)    0.000 s ( 0.222 ms/b)
<pg|pg>:           21 b            0 skpd (  0.0%)    0.001 s ( 0.035 ms/b)
<pg|dd>:           60 b            0 skpd (  0.0%)    0.002 s ( 0.033 ms/b)
<pg|df>:           48 b           47 skpd ( 97.9%)    0.000 s ( 0.245 ms/b)
<pg|dg>: done
<pg|ff>:           18 b           16 skpd ( 88.9%)    0.000 s ( 0.118 ms/b)
<pg|fg>: done
<pg|gg>: done
<dd|dd>:           55 b            0 skpd (  0.0%)    0.003 s ( 0.046 ms/b)
<dd|df>:           80 b            0 skpd (  0.0%)    0.002 s ( 0.020 ms/b)
<dd|dg>:           40 b            0 skpd (  0.0%)    0.002 s ( 0.061 ms/b)
<dd|ff>:           30 b            0 skpd (  0.0%)    0.001 s ( 0.038 ms/b)
<dd|fg>:           20 b            0 skpd (  0.0%)    0.002 s ( 0.082 ms/b)
<dd|gg>:           10 b            0 skpd (  0.0%)    0.002 s ( 0.228 ms/b)
<df|df>:           36 b            0 skpd (  0.0%)    0.001 s ( 0.041 ms/b)
<df|dg>:           32 b            0 skpd (  0.0%)    0.002 s ( 0.069 ms/b)
<df|ff>: done
<df|fg>: done
<df|gg>: done
<dg|dg>:           10 b            0 skpd (  0.0%)    0.002 s ( 0.154 ms/b)
<dg|ff>: done
<dg|fg>: done
<dg|gg>: done
<ff|ff>: done
<ff|fg>: done
<ff|gg>: done
<fg|fg>: done
<fg|gg>: done
<gg|gg>: done
Recanonicalizing the internal orbitals
Recanonicalizing the virtual orbitals
Time needed for Fock operator              ...            0.220 sec
Reference energy                           ...  -1043.334658176
Warning: for UHF the TrafoType has to be JK
Warning: for UHF the K(C)-option cannot be MO but must be AOX

-------------------------------
PARTIAL EXCHANGE TRANSFORMATION
-------------------------------

Transformation type                        ... two-operators
Generation of integrals (i,mue|j,nue)      ... ON
Generation of integrals (mue,kappa|nue,tau)... ON
Generation of integrals (i,mue|a,nue)      ... ON
Dimension of the basis                     ...   67
Number of internal alpha-MOs               ...   10 (   5-  14)
Number of internal beta-MOs                ...    4 (   5-   8)
Number of external alpha-MOs               ...   52 (  15-  66)
Number of external beta-MOs                ...   58 (   9-  66)
Pair cutoff                                ... 0.000e+00 Eh
Number of AO pairs in the trafo            ... 2278
Total Number of distinct AO pairs          ... 2278
Memory devoted for trafo                   ... 2500.0 MB 
Max. Number of MO pairs treated together   ... 72996      
Number Format for Storage                  ... Double (8 Byte)
Integral package used                      ... LIBINT

Starting integral evaluation:
    ... done with AO integral generation
Closing buffer AOK[aa] ( 0.00 GB; CompressionRatio= 0.00)
Closing buffer AOK[bb] ( 0.00 GB; CompressionRatio= 0.00)
Closing buffer AOK[ab] ( 0.00 GB; CompressionRatio= 0.00)
Closing buffer AOK[ba] ( 0.00 GB; CompressionRatio= 0.00)
Collecting buffer AOK 
Closing buffer IAAO1[aa] ( 0.00 GB; CompressionRatio= 0.00)
Closing buffer IAAO1[bb] ( 0.00 GB; CompressionRatio= 0.00)
Closing buffer IAAO1[ab] ( 0.00 GB; CompressionRatio= 0.00)
Closing buffer IAAO1[ba] ( 0.00 GB; CompressionRatio= 0.00)
Closing buffer IAAO2[aa] ( 0.00 GB; CompressionRatio= 0.00)
Closing buffer IAAO2[bb] ( 0.00 GB; CompressionRatio= 0.00)
Closing buffer IAAO2[ab] ( 0.00 GB; CompressionRatio= 0.00)
Closing buffer IAAO2[ba] ( 0.00 GB; CompressionRatio= 0.00)
Collecting buffer IAAO 
Closing buffer PRQS    ( 0.00 GB; CompressionRatio= 0.00)
Collecting buffer PRQS 
Number of alpha/alpha MO pairs in trafo    ...   55
Number of beta /beta  MO pairs in trafo    ...   10
Number of alpha/ beta MO pairs in trafo    ...   40
------------------------
SORTING OF (i,mue|j,nue)
------------------------

SORTING OF ALPHA/ALPHA PAIRS
IBATCH = 1 of  1
Closing buffer KAO[aa] ( 0.00 GB; CompressionRatio= 1.00)
Collecting buffer KAO 
SORTING OF BETA /BETA  PAIRS
IBATCH = 1 of  1
Closing buffer KAO[bb] ( 0.00 GB; CompressionRatio= 1.00)
Collecting buffer KAO 
SORTING OF ALPHA/BETA  PAIRS
IBATCH = 1 of  1
Closing buffer KAO[ab] ( 0.00 GB; CompressionRatio= 0.999665961474)
Collecting buffer KAO[ab] 
------------------------
SORTING OF (i,mue|a,nue)
------------------------

Number of alpha/alpha (i,a) pairs in trafo  ...  520
Number of beta /beta  (i,a) pairs in trafo  ...  232
Number of alpha/ beta (i,a) pairs in trafo  ...  580
Number of beta /alpha (i,a) pairs in trafo  ...  208
Setting up the alpha/alpha list             ... done
Setting up the beta /beta  list             ... done
Setting up the alpha/beta  list             ... done
Setting up the beta /alpha list             ... done
    ... Now sorting (i,mue|a,nue)integrals
    ... Integrals (i,b|a,c) will be made on the fly
SORTING OF ALPHA/ALPHA PAIRS
IBATCH = 1 of  1
Closing buffer IPAQ[aa]  0.00 GB; CompressionRatio= 1.00)
SORTING OF BETA /BETA  PAIRS
IBATCH = 1 of  1
Closing buffer IPAQ[bb]( 0.00 GB; CompressionRatio= 1.00)
SORTING OF ALPHA/BETA  PAIRS (NMatSort_ab=25)
IBATCH = 1 of  1
Closing buffer IPAQ[ab]( 0.00 GB; CompressionRatio= 1.00)
SORTING OF BETA/ALPHA  PAIRS
IBATCH = 1 of  1
Closing buffer IPAQ[ba]( 0.00 GB; CompressionRatio= 1.00)
N(AO-Batches) Done                         ...         0 
N(AO-Batches) Skipped                      ...         0 
N(IJ)-pairs Skipped                        ...         0 
TOTAL TIME for half transformation         ...     4.115 sec
AO-integral generation                     ...     0.000 sec
Half transformation                        ...     0.000 sec
K-integral sorting                         ...     0.945 sec
<ss|**>: 
------------------------------
PARTIAL COULOMB TRANSFORMATION
------------------------------

Transformation type                        ... two-operators
Dimension of the basis                     ...   67
Number of internal alpha-MOs               ...   10 (5-14)
Number of internal beta-MOs                ...    4 (5-8)
Pair cutoff                                ... 0.000e+00 Eh
Number of AO pairs included in the trafo   ... 2278
Total Number of distinct AO pairs          ... 2278
Memory devoted for trafo                   ... 2500.0 MB 
Max. Number of MO pairs treated together   ... 143845      
Max. Number of MOs treated per batch       ... 2146      
Number Format for Storage                  ... Double (8 Byte)
AO-integral source                         ... DIRECT
Integral package used                      ... LIBINT

Starting integral evaluation:
        3990 b        0 skpd     0.005 s (  0.001 ms/b)
<sp|**>: <sd|**>:         6840 b        0 skpd     0.025 s (  0.004 ms/b)
        4560 b        0 skpd     0.022 s (  0.005 ms/b)
<sf|**>:         2280 b        0 skpd     0.019 s (  0.008 ms/b)
<sg|**>:         1140 b        0 skpd     0.026 s (  0.023 ms/b)
<pp|**>:         3990 b        0 skpd     0.031 s (  0.008 ms/b)
<pd|**>:         4560 b        0 skpd     0.066 s (  0.015 ms/b)
<pf|**>:         2280 b        0 skpd     0.050 s (  0.022 ms/b)
<pg|**>:         1140 b        0 skpd     0.047 s (  0.041 ms/b)
<dd|**>:         1900 b        0 skpd     0.041 s (  0.022 ms/b)
<df|**>:         1520 b        0 skpd     0.059 s (  0.039 ms/b)
<dg|**>:          760 b        0 skpd     0.062 s (  0.082 ms/b)
<ff|**>:          570 b        0 skpd     0.050 s (  0.088 ms/b)
<fg|**>:          380 b        0 skpd     0.058 s (  0.152 ms/b)
<gg|**>:          190 b        0 skpd     0.046 s (  0.240 ms/b)
Closing buffer AOJ[aa] ( 0.00 GB; CompressionRatio= 0.97)
Closing buffer AOJ[bb] ( 0.00 GB; CompressionRatio= 0.00)
Collecting buffer AOJ 
    ... done with AO integral generation
Number of Alpha-MO pairs included          ...   55
Number of Beta-MO pairs included           ...   10
    ... Now sorting integrals
SORTING ALPHA/ALPHA PAIRS
IBATCH = 1 of  1
Closing buffer JAO[aa] ( 0.00 GB; CompressionRatio= 1.00)
SORTING BETA/BETA PAIRS
IBATCH = 1 of  1
Closing buffer JAO[bb] ( 0.00 GB; CompressionRatio= 1.00)
Collecting buffer JAO 
TOTAL TIME for half transformation         ...     0.764 sec
AO-integral generation                     ...     0.461 sec
Half transformation                        ...     0.151 sec
J-integral sorting                         ...     0.105 sec

-------------------------- SECOND HALF TRANSFORMATION -------------------------
Formation of (ij|kl),(ij|ka), (ij|ab)      ... ok (     0.163 sec)
Formation of (ik|jl),(ik|ja), (ia|jb)      ... ok (     0.234 sec)


-----------------------
SPIN UNRESTRICTED GUESS
-----------------------

Entering MDCI_UHF_Guess, Tailored=0
Spin-components of the MP2 energy:
EMP2(aa)=     -0.141532898
EMP2(bb)=     -0.028669887
EMP2(ab)=     -0.238888139

Initial guess performed in     0.010 sec
E(0)                                       ...  -1043.334658176
E(MP2)                                     ...     -0.409090925
Initial E(tot)                             ...  -1043.743749101
<T|T>                                      ...      0.073712462
Number of pairs included                   ... 91

------------------------------------------------
                  UHF COUPLED CLUSTER ITERATIONS
------------------------------------------------

Number of amplitudes to be optimized       ...       191948

Iter       E(tot)           E(Corr)          Delta-E          Residual     Time      <S|S>**1/2
  0  -1043.743749101     -0.409090925      0.000000000      0.020694749    0.28      0.000000172
                           *** Turning on DIIS ***
  1  -1043.734373553     -0.399715376      0.009375548      0.007476346    0.26      0.039060627
  2  -1043.740967343     -0.406309167     -0.006593790      0.004958542    0.23      0.044594503
  3  -1043.741708548     -0.407050372     -0.000741205      0.003067635    0.23      0.054743025
  4  -1043.742156156     -0.407497979     -0.000447608      0.001460111    0.23      0.061045879
  5  -1043.742328299     -0.407670123     -0.000172143      0.000377000    0.24      0.065369434
  6  -1043.742360232     -0.407702056     -0.000031933      0.000058027    0.24      0.066524339
  7  -1043.742365550     -0.407707373     -0.000005318      0.000007128    0.26      0.066718579
               --- The Coupled-Cluster iterations have converged ---

----------------------
COUPLED CLUSTER ENERGY
----------------------

E(0)                                       ...  -1043.334658176
E(CORR)                                    ...     -0.407707373
E(TOT)                                     ...  -1043.742365550
Singles norm <S|S>**1/2                    ...      0.066718579 ( 0.063714257, 0.003004322)  
T1 diagnostic                              ...      0.017831290                              

------------------
LARGEST AMPLITUDES
------------------
  14a-> 26a  -1a-> -1a       0.056050
  13a-> 25a  -1a-> -1a       0.024346
  11a-> 23a  -1a-> -1a       0.023182
  12a-> 24a  -1a-> -1a       0.023162
   9a-> 22a  -1a-> -1a       0.021410
  10a-> 21a  -1a-> -1a       0.021410
  12a-> 34a  11a-> 33a       0.021111
  12a-> 33a  11a-> 34a       0.021111
  13a-> 32a  10a-> 31a       0.020557
  13a-> 31a  10a-> 32a       0.020557
  10a-> 30a   9a-> 31a       0.019929
  10a-> 31a   9a-> 30a       0.019929
  13a-> 32a   9a-> 30a       0.019333
  13a-> 30a   9a-> 32a       0.019333
  11a-> 30a   9a-> 33a       0.018577
  11a-> 33a   9a-> 30a       0.018577

----------------------
UHF TRIPLES CORRECTION (Algorithm 1)
----------------------

Multiplier for the singles contribution    ...      1.000000000

SPIN-CASE Alpha-Alpha-Alpha:
10% done
20% done
30% done
40% done
50% done
60% done
70% done
80% done
90% done


SPIN-CASE Beta-Beta-Beta:
10% done
20% done
30% done
40% done
50% done
60% done
70% done
80% done
90% done


SPIN-CASE Alpha-Alpha-Beta:
10% done
20% done
30% done
40% done
50% done
60% done
70% done
80% done
90% done


SPIN-CASE Beta-Beta-Alpha:
10% done
20% done
30% done
40% done
50% done
60% done
70% done
80% done
90% done


Triples Correction (T)                     ...     -0.010264400
    alpha-alpha-alpha ... -0.002698655 ( 26.3%)
    alpha-alpha-beta  ... -0.005473400 ( 53.3%)
    alpha-beta -beta  ... -0.001964586 ( 19.1%)
    beta -beta -beta  ... -0.000127759 (  1.2%)
Scaling of triples based on CCSD energies (Peterson et al. Molecular Physics 113, 1551 (2015))
E(T*) = f*E(T) where f = E(F12-CCSD)/E(CCSD) 
f = CCSD (with F12)/ CCSD (without F12)    ...      1.000000000
Scaled triples correction (T)              ...     -0.010264400

Final correlation energy                   ...     -0.417971773
E(CCSD)                                    ...  -1043.742365550
E(CCSD(T))                                 ...  -1043.752629950



        !!!!!!!!!!!!!!!!!!!!!!!!!!!!!!!!!!!!!!!!!!!!!!!!!!!!!!!!!!!!!!!!!!!!!!!!!! 
        !  Warning: Densities are linearized densities                           !
        !!!!!!!!!!!!!!!!!!!!!!!!!!!!!!!!!!!!!!!!!!!!!!!!!!!!!!!!!!!!!!!!!!!!!!!!!! 

NORM  =      1.081148555 sqrt=     1.039782936
W(HF) =      0.924942271
------------------------------------------------------------------------------
                           ORCA POPULATION ANALYSIS
------------------------------------------------------------------------------
Input electron density              ... 24_Cr.mdcip
Input spin density                  ... 24_Cr.mdcir
BaseName (.gbw .S,...)              ... 24_Cr

                    ********************************
                    * MULLIKEN POPULATION ANALYSIS *
                    ********************************

------------------------------------------
MULLIKEN ATOMIC CHARGES AND SPIN DENSITIES
------------------------------------------
   0 Cr:   -0.000000    6.000000
Sum of atomic charges       :   -0.0000000
Sum of atomic spin densities:    6.0000000

---------------------------------------------------
MULLIKEN REDUCED ORBITAL CHARGES AND SPIN DENSITIES
---------------------------------------------------
CHARGE
  0 Crs       :     6.990164  s :     6.990164
      pz      :     3.990326  p :    11.970979
      px      :     3.990326
      py      :     3.990326
      dz2     :     1.001335  d :     5.006675
      dxz     :     1.001335
      dyz     :     1.001335
      dx2y2   :     1.001335
      dxy     :     1.001335
      f0      :     0.004187  f :     0.029306
      f+1     :     0.004187
      f-1     :     0.004187
      f+2     :     0.004187
      f-2     :     0.004187
      f+3     :     0.004187
      f-3     :     0.004187
      g0      :     0.000320  g :     0.002876
      g+1     :     0.000320
      g-1     :     0.000320
      g+2     :     0.000320
      g-2     :     0.000320
      g+3     :     0.000320
      g-3     :     0.000320
      g+4     :     0.000320
      g-4     :     0.000320

SPIN
  0 Crs       :     0.995693  s :     0.995693
      pz      :     0.011476  p :     0.034428
      px      :     0.011476
      py      :     0.011476
      dz2     :     0.988984  d :     4.944922
      dxz     :     0.988984
      dyz     :     0.988984
      dx2y2   :     0.988984
      dxy     :     0.988984
      f0      :     0.003304  f :     0.023128
      f+1     :     0.003304
      f-1     :     0.003304
      f+2     :     0.003304
      f-2     :     0.003304
      f+3     :     0.003304
      f-3     :     0.003304
      g0      :     0.000203  g :     0.001830
      g+1     :     0.000203
      g-1     :     0.000203
      g+2     :     0.000203
      g-2     :     0.000203
      g+3     :     0.000203
      g-3     :     0.000203
      g+4     :     0.000203
      g-4     :     0.000203


                     *******************************
                     * LOEWDIN POPULATION ANALYSIS *
                     *******************************

-----------------------------------------
LOEWDIN ATOMIC CHARGES AND SPIN DENSITIES
-----------------------------------------
   0 Cr:    0.000000    6.000000

--------------------------------------------------
LOEWDIN REDUCED ORBITAL CHARGES AND SPIN DENSITIES
--------------------------------------------------
CHARGE
  0 Crs       :     6.990164  s :     6.990164
      pz      :     3.990326  p :    11.970979
      px      :     3.990326
      py      :     3.990326
      dz2     :     1.001335  d :     5.006675
      dxz     :     1.001335
      dyz     :     1.001335
      dx2y2   :     1.001335
      dxy     :     1.001335
      f0      :     0.004187  f :     0.029306
      f+1     :     0.004187
      f-1     :     0.004187
      f+2     :     0.004187
      f-2     :     0.004187
      f+3     :     0.004187
      f-3     :     0.004187
      g0      :     0.000320  g :     0.002876
      g+1     :     0.000320
      g-1     :     0.000320
      g+2     :     0.000320
      g-2     :     0.000320
      g+3     :     0.000320
      g-3     :     0.000320
      g+4     :     0.000320
      g-4     :     0.000320

SPIN
  0 Crs       :     0.995693  s :     0.995693
      pz      :     0.011476  p :     0.034428
      px      :     0.011476
      py      :     0.011476
      dz2     :     0.988984  d :     4.944922
      dxz     :     0.988984
      dyz     :     0.988984
      dx2y2   :     0.988984
      dxy     :     0.988984
      f0      :     0.003304  f :     0.023128
      f+1     :     0.003304
      f-1     :     0.003304
      f+2     :     0.003304
      f-2     :     0.003304
      f+3     :     0.003304
      f-3     :     0.003304
      g0      :     0.000203  g :     0.001830
      g+1     :     0.000203
      g-1     :     0.000203
      g+2     :     0.000203
      g-2     :     0.000203
      g+3     :     0.000203
      g-3     :     0.000203
      g+4     :     0.000203
      g-4     :     0.000203


                      *****************************
                      * MAYER POPULATION ANALYSIS *
                      *****************************

  NA   - Mulliken gross atomic population
  ZA   - Total nuclear charge
  QA   - Mulliken gross atomic charge
  VA   - Mayer's total valence
  BVA  - Mayer's bonded valence
  FA   - Mayer's free valence

  ATOM       NA         ZA         QA         VA         BVA        FA
  0 Cr    24.0000    24.0000    -0.0000     6.3701     0.0000     6.3701





------------------------------------------------------------------------------- 
                                     TIMINGS                                   
------------------------------------------------------------------------------- 


Total execution time                   ...        9.158 sec

Fock Matrix Formation                  ...        0.220 sec (  2.4%)
Initial Guess                          ...        0.010 sec (  0.1%)
DIIS Solver                            ...        0.129 sec (  1.4%)
State Vector Update                    ...        0.007 sec (  0.1%)
Sigma-vector construction              ...        1.836 sec ( 20.1%)
  <D|H|D>(0-ext Fock)                  ...        0.002 sec (  0.1% of sigma)
  <D|H|D>(0-ext)                       ...        0.007 sec (  0.4% of sigma)
  <D|H|D>(2-ext)                       ...        0.024 sec (  1.3% of sigma)
  <D|H|D>(4-ext)                       ...        0.863 sec ( 47.0% of sigma)
  <S|H|0>                              ...        0.031 sec (  1.7% of sigma)
  <D|H|S>(1-ext)                       ...        0.014 sec (  0.8% of sigma)
  Fock-dressing                        ...        0.434 sec ( 23.7% of sigma)
  (ik|jl)-dressing                     ...        0.010 sec (  0.5% of sigma)
  (ij|ab),(ia|jb)-dressing             ...        0.340 sec ( 18.5% of sigma)
  Pair energies                        ...        0.001 sec (  0.1% of sigma)
Total Time for computing (T)           ...        0.226 sec (  2.5% of ALL)
  I/O of integral and amplitudes       ...        0.045 sec ( 20.1% of (T))
  External N**7 contributions          ...        0.045 sec ( 20.1% of (T))
  Internal N**7 contributions          ...        0.019 sec (  8.3% of (T))
  N**6 triples energy contributions    ...        0.063 sec ( 27.8% of (T))


-------------------------   --------------------
FINAL SINGLE POINT ENERGY     -1043.752629949811
-------------------------   --------------------


                            ***************************************
                            *     ORCA property calculations      *
                            ***************************************

                                    ---------------------
                                    Active property flags
                                    ---------------------
   (+) Dipole Moment


------------------------------------------------------------------------------
                       ORCA ELECTRIC PROPERTIES CALCULATION
------------------------------------------------------------------------------

Dipole Moment Calculation                       ... on
Quadrupole Moment Calculation                   ... off
Polarizability Calculation                      ... off
GBWName                                         ... 24_Cr.gbw
Electron density file                           ... 24_Cr.scfp
The origin for moment calculation is the CENTER OF MASS  = ( 0.000000,  0.000000  0.000000)

-------------
DIPOLE MOMENT
-------------
                                X             Y             Z
Electronic contribution:      0.00000      -0.00000       0.00000
Nuclear contribution   :      0.00000       0.00000       0.00000
                        -----------------------------------------
Total Dipole Moment    :      0.00000      -0.00000       0.00000
                        -----------------------------------------
Magnitude (a.u.)       :      0.00000
Magnitude (Debye)      :      0.00000



--------------------
Rotational spectrum 
--------------------
 
Rotational constants in cm-1:     0.000000     0.000000     0.000000 
Rotational constants in MHz :     0.000000     0.000000     0.000000 

 Dipole components along the rotational axes: 
x,y,z [a.u.] :     0.000000    -0.000000     0.000000 
x,y,z [Debye]:     0.000000    -0.000000     0.000000 

 

                           *** MDCI DENSITY ***

------------------------------------------------------------------------------
                       ORCA ELECTRIC PROPERTIES CALCULATION
------------------------------------------------------------------------------

Dipole Moment Calculation                       ... on
Quadrupole Moment Calculation                   ... off
Polarizability Calculation                      ... off
GBWName                                         ... 24_Cr.gbw
Electron density file                           ... 24_Cr.mdcip
The origin for moment calculation is the CENTER OF MASS  = ( 0.000000,  0.000000  0.000000)

-------------
DIPOLE MOMENT
-------------
                                X             Y             Z
Electronic contribution:      0.00000       0.00000       0.00000
Nuclear contribution   :      0.00000       0.00000       0.00000
                        -----------------------------------------
Total Dipole Moment    :      0.00000       0.00000       0.00000
                        -----------------------------------------
Magnitude (a.u.)       :      0.00000
Magnitude (Debye)      :      0.00000



--------------------
Rotational spectrum 
--------------------
 
Rotational constants in cm-1:     0.000000     0.000000     0.000000 
Rotational constants in MHz :     0.000000     0.000000     0.000000 

 Dipole components along the rotational axes: 
x,y,z [a.u.] :     0.000000     0.000000     0.000000 
x,y,z [Debye]:     0.000000     0.000000     0.000000 

 

Timings for individual modules:

Sum of individual times         ...       15.327 sec (=   0.255 min)
GTO integral calculation        ...        1.190 sec (=   0.020 min)   7.8 %
SCF iterations                  ...        4.230 sec (=   0.071 min)  27.6 %
MDCI module                     ...        9.907 sec (=   0.165 min)  64.6 %
                             ****ORCA TERMINATED NORMALLY****
TOTAL RUN TIME: 0 days 0 hours 0 minutes 16 seconds 241 msec
