
                                 *****************
                                 * O   R   C   A *
                                 *****************

           --- An Ab Initio, DFT and Semiempirical electronic structure package ---

                  #######################################################
                  #                        -***-                        #
                  #          Department of theory and spectroscopy      #
                  #               Directorship: Frank Neese             #
                  #        Max Planck Institute fuer Kohlenforschung    #
                  #                Kaiser Wilhelm Platz 1               #
                  #                 D-45470 Muelheim/Ruhr               #
                  #                      Germany                        #
                  #                                                     #
                  #                  All rights reserved                #
                  #                        -***-                        #
                  #######################################################


                         Program Version 4.2.0 -  RELEASE  -


 With contributions from (in alphabetic order):
   Daniel Aravena         : Magnetic Suceptibility
   Michael Atanasov       : Ab Initio Ligand Field Theory (pilot matlab implementation)
   Alexander A. Auer      : GIAO ZORA, VPT2
   Ute Becker             : Parallelization
   Giovanni Bistoni       : ED, misc. LED, open-shell LED, HFLED
   Martin Brehm           : Molecular dynamics
   Dmytro Bykov           : SCF Hessian
   Vijay G. Chilkuri      : MRCI spin determinant printing, contributions to CSF-ICE
   Dipayan Datta          : RHF DLPNO-CCSD density
   Achintya Kumar Dutta   : EOM-CC, STEOM-CC
   Dmitry Ganyushin       : Spin-Orbit,Spin-Spin,Magnetic field MRCI
   Miquel Garcia          : C-PCM Hessian, Gaussian charge scheme
   Yang Guo               : DLPNO-NEVPT2, CIM, IAO-localization
   Andreas Hansen         : Spin unrestricted coupled pair/coupled cluster methods
   Benjamin Helmich-Paris : CASSCF linear response (MC-RPA)
   Lee Huntington         : MR-EOM, pCC
   Robert Izsak           : Overlap fitted RIJCOSX, COSX-SCS-MP3, EOM
   Christian Kollmar      : KDIIS, OOCD, Brueckner-CCSD(T), CCSD density
   Simone Kossmann        : Meta GGA functionals, TD-DFT gradient, OOMP2, MP2 Hessian
   Martin Krupicka        : AUTO-CI
   Lucas Lang             : DCDCAS
   Dagmar Lenk            : GEPOL surface, SMD
   Dimitrios Liakos       : Extrapolation schemes; Compound Job, initial MDCI parallelization
   Dimitrios Manganas     : Further ROCIS development; embedding schemes
   Dimitrios Pantazis     : SARC Basis sets
   Taras Petrenko         : DFT Hessian,TD-DFT gradient, ASA, ECA, R-Raman, ABS, FL, XAS/XES, NRVS
   Peter Pinski           : DLPNO-MP2, DLPNO-MP2 Gradient
   Christoph Reimann      : Effective Core Potentials
   Marius Retegan         : Local ZFS, SOC
   Christoph Riplinger    : Optimizer, TS searches, QM/MM, DLPNO-CCSD(T), (RO)-DLPNO pert. Triples
   Tobias Risthaus        : Range-separated hybrids, TD-DFT gradient, RPA, STAB
   Michael Roemelt        : Original ROCIS implementation
   Masaaki Saitow         : Open-shell DLPNO-CCSD energy and density
   Barbara Sandhoefer     : DKH picture change effects
   Avijit Sen             : IP-ROCIS
   Kantharuban Sivalingam : CASSCF convergence, NEVPT2, FIC-MRCI
   Bernardo de Souza      : ESD, SOC TD-DFT
   Georgi Stoychev        : AutoAux, RI-MP2 NMR
   Willem Van den Heuvel  : Paramagnetic NMR
   Boris Wezisla          : Elementary symmetry handling
   Frank Wennmohs         : Technical directorship


 We gratefully acknowledge several colleagues who have allowed us to
 interface, adapt or use parts of their codes:
   Stefan Grimme, W. Hujo, H. Kruse,             : VdW corrections, initial TS optimization,
                  C. Bannwarth                     DFT functionals, gCP, sTDA/sTD-DF
   Ed Valeev, F. Pavosevic, A. Kumar             : LibInt (2-el integral package), F12 methods
   Garnet Chan, S. Sharma, J. Yang, R. Olivares  : DMRG
   Ulf Ekstrom                                   : XCFun DFT Library
   Mihaly Kallay                                 : mrcc  (arbitrary order and MRCC methods)
   Andreas Klamt, Michael Diedenhofen            : otool_cosmo (COSMO solvation model)
   Jiri Pittner, Ondrej Demel                    : Mk-CCSD
   Frank Weinhold                                : gennbo (NPA and NBO analysis)
   Christopher J. Cramer and Donald G. Truhlar   : smd solvation model
   Lars Goerigk                                  : TD-DFT with DH, B97 family of functionals
   V. Asgeirsson, H. Jonsson                     : NEB implementation
   FAccTs GmbH                                   : IRC, NEB, NEB-TS, Multilevel, MM, QM/MM, CI optimization
   S Lehtola, MJT Oliveira, MAL Marques          : LibXC Library


 Your calculation uses the libint2 library for the computation of 2-el integrals
 For citations please refer to: http://libint.valeyev.net

 Your ORCA version has been built with support for libXC version: 4.2.3
 For citations please refer to: https://tddft.org/programs/libxc/

 This ORCA versions uses:
   CBLAS   interface :  Fast vector & matrix operations
   LAPACKE interface :  Fast linear algebra routines
   SCALAPACK package :  Parallel linear algebra routines


----- Orbital basis set information -----
Your calculation utilizes the basis: def2-TZVPPD
   F. Weigend and R. Ahlrichs, Phys. Chem. Chem. Phys. 7, 3297 (2005).
   D. Rappoport and F. Furche, J. Chem. Phys. 133 134105 (2010).

================================================================================
                                        WARNINGS
                       Please study these warnings very carefully!
================================================================================


WARNING: your system is open-shell and RHF/RKS was chosen
  ===> : WILL SWITCH to UHF/UKS


WARNING: MDCI localization with Augmented Hessian Foster-Boys
  ===> : Switching off randomization!

WARNING: Post HF methods need fully converged wavefunctions
  ===> : Setting SCFConvForced true
         You can overwrite this default with %scf ConvForced false 


INFO   : the flag for use of LIBINT has been found!

================================================================================
                                       INPUT FILE
================================================================================
NAME = 29_Cu.in
|  1> #
|  2> # 29_Cu CCSD(T)/Def2-TZVPPD
|  3> #
|  4> ! CCSD(T) Def2-TZVPPD tightscf
|  5> 
|  6> *xyz 0 2
|  7>  Cu 0.0 0.0 0.0
|  8> *
|  9> 
| 10> %maxcore 5000 
| 11> 
| 12> %pal
| 13> nprocs 24
| 14> end
| 15> 
| 16> 
| 17>                          ****END OF INPUT****
================================================================================

                       ****************************
                       * Single Point Calculation *
                       ****************************

---------------------------------
CARTESIAN COORDINATES (ANGSTROEM)
---------------------------------
  Cu     0.000000    0.000000    0.000000

----------------------------
CARTESIAN COORDINATES (A.U.)
----------------------------
  NO LB      ZA    FRAG     MASS         X           Y           Z
   0 Cu   29.0000    0    63.550    0.000000    0.000000    0.000000

--------------------------------
INTERNAL COORDINATES (ANGSTROEM)
--------------------------------
 Cu     0   0   0     0.000000000000     0.00000000     0.00000000

---------------------------
INTERNAL COORDINATES (A.U.)
---------------------------
 Cu     0   0   0     0.000000000000     0.00000000     0.00000000

---------------------
BASIS SET INFORMATION
---------------------
There are 1 groups of distinct atoms

 Group   1 Type Cu  : 17s13p7d2f1g contracted to 6s6p4d2f1g pattern {842111/631111/4111/11/1}

Atom   0Cu   basis set group =>   1


           ************************************************************
           *        Program running with 24 parallel MPI-processes    *
           *              working on a common directory               *
           ************************************************************
------------------------------------------------------------------------------
                           ORCA GTO INTEGRAL CALCULATION
------------------------------------------------------------------------------

                         BASIS SET STATISTICS AND STARTUP INFO

 # of primitive gaussian shells          ...   40
 # of primitive gaussian functions       ...  114
 # of contracted shells                  ...   19
 # of contracted basis functions         ...   67
 Highest angular momentum                ...    4
 Maximum contraction depth               ...    8
 Integral package used                   ... LIBINT
 Integral threshhold            Thresh   ...  2.500e-11
 Primitive cut-off              TCut     ...  2.500e-12


------------------------------ INTEGRAL EVALUATION ----------------------------


 * One electron integrals 
 Pre-screening matrix                    ... done
 Shell pair data                         ... done (   0.000 sec)



           ************************************************************
           *        Program running with 24 parallel MPI-processes    *
           *              working on a common directory               *
           ************************************************************
-------------------------------------------------------------------------------
                                 ORCA SCF
-------------------------------------------------------------------------------

------------
SCF SETTINGS
------------
Hamiltonian:
 Ab initio Hamiltonian  Method          .... Hartree-Fock(GTOs)


General Settings:
 Integral files         IntName         .... 29_Cu
 Hartree-Fock type      HFTyp           .... UHF
 Total Charge           Charge          ....    0
 Multiplicity           Mult            ....    2
 Number of Electrons    NEL             ....   29
 Basis Dimension        Dim             ....   67
 Nuclear Repulsion      ENuc            ....      0.0000000000 Eh

Convergence Acceleration:
 DIIS                   CNVDIIS         .... on
   Start iteration      DIISMaxIt       ....    12
   Startup error        DIISStart       ....  0.200000
   # of expansion vecs  DIISMaxEq       ....     5
   Bias factor          DIISBfac        ....   1.050
   Max. coefficient     DIISMaxC        ....  10.000
 Newton-Raphson         CNVNR           .... off
 SOSCF                  CNVSOSCF        .... off
 Level Shifting         CNVShift        .... on
   Level shift para.    LevelShift      ....    0.2500
   Turn off err/grad.   ShiftErr        ....    0.0010
 Zerner damping         CNVZerner       .... off
 Static damping         CNVDamp         .... on
   Fraction old density DampFac         ....    0.7000
   Max. Damping (<1)    DampMax         ....    0.9800
   Min. Damping (>=0)   DampMin         ....    0.0000
   Turn off err/grad.   DampErr         ....    0.1000
 Fernandez-Rico         CNVRico         .... off

SCF Procedure:
 Maximum # iterations   MaxIter         ....   125
 SCF integral mode      SCFMode         .... Direct
   Integral package                     .... LIBINT
 Reset frequency        DirectResetFreq ....    20
 Integral Threshold     Thresh          ....  2.500e-11 Eh
 Primitive CutOff       TCut            ....  2.500e-12 Eh

Convergence Tolerance:
 Convergence Check Mode ConvCheckMode   .... Total+1el-Energy
 Convergence forced     ConvForced      .... 1
 Energy Change          TolE            ....  1.000e-08 Eh
 1-El. energy change                    ....  1.000e-05 Eh
 DIIS Error             TolErr          ....  5.000e-07


Diagonalization of the overlap matrix:
Smallest eigenvalue                        ... 5.235e-02
Time for diagonalization                   ...    0.002 sec
Threshold for overlap eigenvalues          ... 1.000e-08
Number of eigenvalues below threshold      ... 0
Time for construction of square roots      ...    0.011 sec
Total time needed                          ...    0.013 sec

-------------------
DFT GRID GENERATION
-------------------

General Integration Accuracy     IntAcc      ...  4.340
Radial Grid Type                 RadialGrid  ... Gauss-Chebyshev
Angular Grid (max. acc.)         AngularGrid ... Lebedev-110
Angular grid pruning method      GridPruning ... 3 (G Style)
Weight generation scheme         WeightScheme... Becke
Basis function cutoff            BFCut       ...    1.0000e-11
Integration weight cutoff        WCut        ...    1.0000e-14
Grids for H and He will be reduced by one unit

# of grid points (after initial pruning)     ...   2912 (   0.0 sec)
# of grid points (after weights+screening)   ...   2912 (   0.0 sec)
Grid point division into batches done        ...    0.0 sec
Reduced shell lists constructed in    0.0 sec

Total number of grid points                  ...     2912
Total number of batches                      ...       46
Average number of points per batch           ...       63
Average number of grid points per atom       ...     2912
Average number of shells per batch           ...     4.67 (24.56%)
Average number of basis functions per batch  ...    14.00 (20.90%)
Average number of large shells per batch     ...     4.67 (100.00%)
Average number of large basis fcns per batch ...    14.00 (100.00%)
Maximum spatial batch extension              ...  17.39, 26.34, 26.34 au
Average spatial batch extension              ...   0.76,  1.15,  1.15 au

Time for grid setup =    0.056 sec

------------------------------
INITIAL GUESS: MODEL POTENTIAL
------------------------------
Loading Hartree-Fock densities                     ... done
Calculating cut-offs                               ... done
Setting up the integral package                    ... done
Initializing the effective Hamiltonian             ... done
Starting the Coulomb interaction                   ... done (   0.0 sec)
Reading the grid                                   ... done
Mapping shells                                     ... done
Starting the XC term evaluation                    ... done (   0.0 sec)
Transforming the Hamiltonian                       ... done (   0.0 sec)
Diagonalizing the Hamiltonian                      ... done (   0.0 sec)
Back transforming the eigenvectors                 ... done (   0.0 sec)
Now organizing SCF variables                       ... done
                      ------------------
                      INITIAL GUESS DONE (   0.2 sec)
                      ------------------
--------------
SCF ITERATIONS
--------------
ITER       Energy         Delta-E        Max-DP      RMS-DP      [F,P]     Damp
               ***  Starting incremental Fock matrix formation  ***
  0  -1638.8850475546   0.000000000000 0.05858710  0.00091692  0.1957735 0.7000
  1  -1638.8974607057  -0.012413151083 0.06701122  0.00086642  0.0851516 0.7000
                               ***Turning on DIIS***
  2  -1638.9040233729  -0.006562667201 0.20177790  0.00252200  0.0542474 0.0000
  3  -1638.7975521541   0.106471218867 0.05856561  0.00077333  0.0247957 0.0000
  4  -1639.1473247908  -0.349772636724 0.04961518  0.00065651  0.0188433 0.0000
  5  -1638.9233662421   0.223958548703 0.04127398  0.00055609  0.0048822 0.0000
  6  -1638.9372507816  -0.013884539512 0.03101222  0.00043031  0.0029651 0.0000
  7  -1638.9342562741   0.002994507465 0.01517656  0.00021508  0.0014894 0.0000
  8  -1638.9303344114   0.003921862684 0.01197855  0.00017214  0.0007366 0.0000
  9  -1638.9248347685   0.005499642926 0.00243907  0.00003544  0.0001230 0.0000
 10  -1638.9234702781   0.001364490458 0.00011200  0.00000221  0.0000275 0.0000
 11  -1638.9233636491   0.000106628949 0.00013144  0.00000237  0.0000102 0.0000
 12  -1638.9232894288   0.000074220291 0.00003258  0.00000132  0.0000055 0.0000
                            ***DIIS convergence achieved***

               *****************************************************
               *                     SUCCESS                       *
               *           SCF CONVERGED AFTER  13 CYCLES          *
               *****************************************************


----------------
TOTAL SCF ENERGY
----------------

Total Energy       :        -1638.92323488 Eh          -44597.36851 eV

Components:
Nuclear Repulsion  :            0.00000000 Eh               0.00000 eV
Electronic Energy  :        -1638.92323488 Eh          -44597.36851 eV
One Electron Energy:        -2289.72074658 Eh          -62306.46911 eV
Two Electron Energy:          650.79751170 Eh           17709.10061 eV

Virial components:
Potential Energy   :        -3277.71286501 Eh          -89191.10144 eV
Kinetic Energy     :         1638.78963013 Eh           44593.73294 eV
Virial Ratio       :            2.00008153


---------------
SCF CONVERGENCE
---------------

  Last Energy change         ...    5.4550e-05  Tolerance :   1.0000e-08
  Last MAX-Density change    ...    8.6308e-06  Tolerance :   1.0000e-07
  Last RMS-Density change    ...    2.8416e-07  Tolerance :   5.0000e-09
  Last DIIS Error            ...    9.3911e-07  Tolerance :   5.0000e-07

             **** THE GBW FILE WAS UPDATED (29_Cu.gbw) ****
             **** DENSITY FILE WAS UPDATED (29_Cu.scfp) ****
             **** ENERGY FILE WAS UPDATED (29_Cu.en.tmp) ****
----------------------
UHF SPIN CONTAMINATION
----------------------

Expectation value of <S**2>     :     0.751937
Ideal value S*(S+1) for S=0.5   :     0.750000
Deviation                       :     0.001937

             **** THE GBW FILE WAS UPDATED (29_Cu.gbw) ****
             **** DENSITY FILE WAS UPDATED (29_Cu.scfp) ****
----------------
ORBITAL ENERGIES
----------------
                 SPIN UP ORBITALS
  NO   OCC          E(Eh)            E(eV) 
   0   1.0000    -328.799186     -8947.0807 
   1   1.0000     -40.823022     -1110.8509 
   2   1.0000     -35.621166      -969.3012 
   3   1.0000     -35.621166      -969.3012 
   4   1.0000     -35.621166      -969.3012 
   5   1.0000      -5.014570      -136.4534 
   6   1.0000      -3.324444       -90.4627 
   7   1.0000      -3.324444       -90.4627 
   8   1.0000      -3.324444       -90.4627 
   9   1.0000      -0.489475       -13.3193 
  10   1.0000      -0.489475       -13.3193 
  11   1.0000      -0.489475       -13.3193 
  12   1.0000      -0.489475       -13.3193 
  13   1.0000      -0.489475       -13.3193 
  14   1.0000      -0.240228        -6.5369 
  15   0.0000       0.042326         1.1517 
  16   0.0000       0.042326         1.1517 
  17   0.0000       0.042326         1.1517 
  18   0.0000       0.180914         4.9229 
  19   0.0000       0.215903         5.8750 
  20   0.0000       0.215903         5.8750 
  21   0.0000       0.215903         5.8750 
  22   0.0000       0.258851         7.0437 
  23   0.0000       0.258851         7.0437 
  24   0.0000       0.258851         7.0437 
  25   0.0000       0.258851         7.0437 
  26   0.0000       0.258851         7.0437 
  27   0.0000       0.853674        23.2297 
  28   0.0000       0.853674        23.2297 
  29   0.0000       0.853674        23.2297 
  30   0.0000       1.094074        29.7713 
  31   0.0000       1.094074        29.7713 
  32   0.0000       1.094074        29.7713 
  33   0.0000       1.094074        29.7713 
  34   0.0000       1.094074        29.7713 
  35   0.0000       3.405291        92.6627 
  36   0.0000       3.468872        94.3928 
  37   0.0000       3.468872        94.3928 
  38   0.0000       3.468872        94.3928 
  39   0.0000       3.832692       104.2929 
  40   0.0000       3.832692       104.2929 
  41   0.0000       3.832692       104.2929 
  42   0.0000       3.832692       104.2929 
  43   0.0000       3.832692       104.2929 
  44   0.0000       3.832692       104.2929 
  45   0.0000       3.832692       104.2929 
  46   0.0000       4.220884       114.8561 
  47   0.0000       4.220884       114.8561 
  48   0.0000       4.220884       114.8561 
  49   0.0000       4.220884       114.8561 
  50   0.0000       4.220884       114.8561 
  51   0.0000      13.774903       374.8342 
  52   0.0000      13.774903       374.8342 
  53   0.0000      13.774903       374.8342 
  54   0.0000      13.774903       374.8342 
  55   0.0000      13.774903       374.8342 
  56   0.0000      13.774903       374.8342 
  57   0.0000      13.774903       374.8342 
  58   0.0000      13.774903       374.8342 
  59   0.0000      13.774903       374.8342 
  60   0.0000      14.026953       381.6928 
  61   0.0000      14.026953       381.6928 
  62   0.0000      14.026953       381.6928 
  63   0.0000      14.026953       381.6928 
  64   0.0000      14.026953       381.6928 
  65   0.0000      14.026953       381.6928 
  66   0.0000      14.026953       381.6928 

                 SPIN DOWN ORBITALS
  NO   OCC          E(Eh)            E(eV) 
   0   1.0000    -328.797474     -8947.0341 
   1   1.0000     -40.823896     -1110.8747 
   2   1.0000     -35.623866      -969.3747 
   3   1.0000     -35.623866      -969.3747 
   4   1.0000     -35.623866      -969.3747 
   5   1.0000      -5.013857      -136.4340 
   6   1.0000      -3.329685       -90.6053 
   7   1.0000      -3.329685       -90.6053 
   8   1.0000      -3.329685       -90.6053 
   9   1.0000      -0.493725       -13.4349 
  10   1.0000      -0.493725       -13.4349 
  11   1.0000      -0.493725       -13.4349 
  12   1.0000      -0.493725       -13.4349 
  13   1.0000      -0.493725       -13.4349 
  14   0.0000       0.018818         0.5121 
  15   0.0000       0.068152         1.8545 
  16   0.0000       0.068152         1.8545 
  17   0.0000       0.068152         1.8545 
  18   0.0000       0.231416         6.2971 
  19   0.0000       0.256106         6.9690 
  20   0.0000       0.256106         6.9690 
  21   0.0000       0.256106         6.9690 
  22   0.0000       0.274819         7.4782 
  23   0.0000       0.274819         7.4782 
  24   0.0000       0.274819         7.4782 
  25   0.0000       0.274819         7.4782 
  26   0.0000       0.274819         7.4782 
  27   0.0000       0.877339        23.8736 
  28   0.0000       0.877339        23.8736 
  29   0.0000       0.877339        23.8736 
  30   0.0000       1.112448        30.2713 
  31   0.0000       1.112448        30.2713 
  32   0.0000       1.112448        30.2713 
  33   0.0000       1.112448        30.2713 
  34   0.0000       1.112448        30.2713 
  35   0.0000       3.422767        93.1382 
  36   0.0000       3.475262        94.5667 
  37   0.0000       3.475262        94.5667 
  38   0.0000       3.475262        94.5667 
  39   0.0000       3.838063       104.4390 
  40   0.0000       3.838063       104.4390 
  41   0.0000       3.838063       104.4390 
  42   0.0000       3.838063       104.4390 
  43   0.0000       3.838063       104.4390 
  44   0.0000       3.838063       104.4390 
  45   0.0000       3.838063       104.4390 
  46   0.0000       4.222513       114.9004 
  47   0.0000       4.222513       114.9004 
  48   0.0000       4.222513       114.9004 
  49   0.0000       4.222513       114.9004 
  50   0.0000       4.222513       114.9004 
  51   0.0000      13.772806       374.7771 
  52   0.0000      13.772806       374.7771 
  53   0.0000      13.772806       374.7771 
  54   0.0000      13.772806       374.7771 
  55   0.0000      13.772806       374.7771 
  56   0.0000      13.772806       374.7771 
  57   0.0000      13.772806       374.7771 
  58   0.0000      13.772806       374.7771 
  59   0.0000      13.772806       374.7771 
  60   0.0000      14.022563       381.5733 
  61   0.0000      14.022563       381.5733 
  62   0.0000      14.022563       381.5733 
  63   0.0000      14.022563       381.5733 
  64   0.0000      14.022563       381.5733 
  65   0.0000      14.022563       381.5733 
  66   0.0000      14.022563       381.5733 

                    ********************************
                    * MULLIKEN POPULATION ANALYSIS *
                    ********************************

--------------------------------------------
MULLIKEN ATOMIC CHARGES AND SPIN POPULATIONS
--------------------------------------------
   0 Cu:   -0.000000    1.000000
Sum of atomic charges         :   -0.0000000
Sum of atomic spin populations:    1.0000000

-----------------------------------------------------
MULLIKEN REDUCED ORBITAL CHARGES AND SPIN POPULATIONS
-----------------------------------------------------
CHARGE
  0 Cus       :     7.000000  s :     7.000000
      pz      :     4.000000  p :    12.000000
      px      :     4.000000
      py      :     4.000000
      dz2     :     2.000000  d :    10.000000
      dxz     :     2.000000
      dyz     :     2.000000
      dx2y2   :     2.000000
      dxy     :     2.000000
      f0      :     0.000000  f :     0.000000
      f+1     :     0.000000
      f-1     :     0.000000
      f+2     :     0.000000
      f-2     :     0.000000
      f+3     :     0.000000
      f-3     :     0.000000
      g0      :     0.000000  g :     0.000000
      g+1     :     0.000000
      g-1     :     0.000000
      g+2     :     0.000000
      g-2     :     0.000000
      g+3     :     0.000000
      g-3     :     0.000000
      g+4     :     0.000000
      g-4     :     0.000000

SPIN
  0 Cus       :     1.000000  s :     1.000000
      pz      :    -0.000000  p :    -0.000000
      px      :    -0.000000
      py      :     0.000000
      dz2     :     0.000000  d :    -0.000000
      dxz     :    -0.000000
      dyz     :    -0.000000
      dx2y2   :     0.000000
      dxy     :    -0.000000
      f0      :     0.000000  f :     0.000000
      f+1     :     0.000000
      f-1     :     0.000000
      f+2     :    -0.000000
      f-2     :    -0.000000
      f+3     :     0.000000
      f-3     :     0.000000
      g0      :     0.000000  g :     0.000000
      g+1     :    -0.000000
      g-1     :    -0.000000
      g+2     :    -0.000000
      g-2     :    -0.000000
      g+3     :    -0.000000
      g-3     :    -0.000000
      g+4     :     0.000000
      g-4     :    -0.000000


                     *******************************
                     * LOEWDIN POPULATION ANALYSIS *
                     *******************************

-------------------------------------------
LOEWDIN ATOMIC CHARGES AND SPIN POPULATIONS
-------------------------------------------
   0 Cu:   -0.000000    1.000000

----------------------------------------------------
LOEWDIN REDUCED ORBITAL CHARGES AND SPIN POPULATIONS
----------------------------------------------------
CHARGE
  0 Cus       :     7.000000  s :     7.000000
      pz      :     4.000000  p :    12.000000
      px      :     4.000000
      py      :     4.000000
      dz2     :     2.000000  d :    10.000000
      dxz     :     2.000000
      dyz     :     2.000000
      dx2y2   :     2.000000
      dxy     :     2.000000
      f0      :     0.000000  f :     0.000000
      f+1     :     0.000000
      f-1     :     0.000000
      f+2     :     0.000000
      f-2     :     0.000000
      f+3     :     0.000000
      f-3     :     0.000000
      g0      :     0.000000  g :     0.000000
      g+1     :     0.000000
      g-1     :     0.000000
      g+2     :     0.000000
      g-2     :     0.000000
      g+3     :     0.000000
      g-3     :     0.000000
      g+4     :     0.000000
      g-4     :     0.000000

SPIN
  0 Cus       :     1.000000  s :     1.000000
      pz      :    -0.000000  p :    -0.000000
      px      :    -0.000000
      py      :     0.000000
      dz2     :     0.000000  d :    -0.000000
      dxz     :    -0.000000
      dyz     :    -0.000000
      dx2y2   :     0.000000
      dxy     :    -0.000000
      f0      :     0.000000  f :     0.000000
      f+1     :     0.000000
      f-1     :     0.000000
      f+2     :    -0.000000
      f-2     :    -0.000000
      f+3     :     0.000000
      f-3     :     0.000000
      g0      :     0.000000  g :     0.000000
      g+1     :    -0.000000
      g-1     :    -0.000000
      g+2     :    -0.000000
      g-2     :    -0.000000
      g+3     :    -0.000000
      g-3     :    -0.000000
      g+4     :     0.000000
      g-4     :    -0.000000


                      *****************************
                      * MAYER POPULATION ANALYSIS *
                      *****************************

  NA   - Mulliken gross atomic population
  ZA   - Total nuclear charge
  QA   - Mulliken gross atomic charge
  VA   - Mayer's total valence
  BVA  - Mayer's bonded valence
  FA   - Mayer's free valence

  ATOM       NA         ZA         QA         VA         BVA        FA
  0 Cu    29.0000    29.0000    -0.0000     1.0039     0.0000     1.0039

  Mayer bond orders larger than 0.100000


-------
TIMINGS
-------

Total SCF time: 0 days 0 hours 0 min 3 sec 

Total time                  ....       3.464 sec
Sum of individual times     ....       3.028 sec  ( 87.4%)

Fock matrix formation       ....       2.430 sec  ( 70.2%)
Diagonalization             ....       0.074 sec  (  2.1%)
Density matrix formation    ....       0.007 sec  (  0.2%)
Population analysis         ....       0.074 sec  (  2.1%)
Initial guess               ....       0.119 sec  (  3.4%)
Orbital Transformation      ....       0.000 sec  (  0.0%)
Orbital Orthonormalization  ....       0.000 sec  (  0.0%)
DIIS solution               ....       0.267 sec  (  7.7%)


           ************************************************************
           *        Program running with 24 parallel MPI-processes    *
           *              working on a common directory               *
           ************************************************************


------------------------------------------------------------------------------- 
                              ORCA-MATRIX DRIVEN CI                            
------------------------------------------------------------------------------- 

--------------------------------
AUTOMATIC CHOICE OF INCORE LEVEL
--------------------------------

Memory available                           ...   2500.00 MB
Memory needed for S+T                      ...      3.40 MB
Memory needed for J+K                      ...      6.85 MB
Memory needed for DIIS                     ...     47.66 MB
Memory needed for 3-ext                    ...     10.73 MB
Memory needed for 4-ext                    ...     28.43 MB
Memory needed for triples                  ...      5.36 MB
 -> Final InCoreLevel    ... 5
 -> check shows that triples correction can be computed


Wavefunction type
-----------------
Correlation treatment                      ...      CCSD     
Single excitations                         ... ON
Orbital optimization                       ... OFF
Calculation of Z vector                    ... OFF
Calculation of Brueckner orbitals          ... OFF
Perturbative triple excitations            ... ON
Calculation of F12 correction              ... OFF
Frozen core treatment                      ... chemical core (10 el)
Reference Wavefunction                     ... UHF
  Alpha-MOs occ    :     5 ...   14 ( 10 MO's/ 10 electrons)
  Beta-MOs occ     :     5 ...   13 (  9 MO's/  9 electrons)
  Alpha-MOs virt   :    15 ...   66 ( 52 MO's              )
  Beta-MOs virt    :    14 ...   66 ( 53 MO's              )
Number of AO's                             ...     67
Number of electrons                        ...     29
Number of correlated electrons             ...     19

Algorithmic settings
--------------------
Integral transformation                    ... AO direct full transformation
K(C) Formation                             ... FULL-MO TRAFO
Maximum number of iterations               ...        50
Convergence tolerance (max. residuum)      ... 1.000e-05
Level shift for amplitude update           ... 2.000e-01
Maximum number of DIIS vectors             ...         7
DIIS turned on at iteration                ...         0
Damping before turning on DIIS             ...     0.500
Damping after turning on DIIS              ...     0.000
Pair specific amplitude update             ... OFF
Natural orbital iterations                 ... OFF
Perturbative natural orbital generation    ... OFF
Printlevel                                 ... 2

Memory handling:
----------------
Maximum memory for working arrays          ...   2500 MB
Data storage in matrix containers          ... UNCOMPRESSED
Data type for integral storage             ... DOUBLE
In-Core Storage of quantities:
   Amplitudes+Sigma Vector      ... YES
   J+K operators                ... YES
   DIIS vectors                 ... YES
   3-external integrals         ... YES
   4-external integrals         ... YES


Initializing the integral package          ... done
Warning: reference  - re-canonicalizations have been set to INT 1 VIRT 1

--------------------------
UNRESTRICTED FOCK OPERATOR
--------------------------

<ss|ss>:          231 b            0 skpd (  0.0%)    0.001 s ( 0.003 ms/b)
<ss|sp>:          756 b            0 skpd (  0.0%)    0.001 s ( 0.001 ms/b)
<ss|sd>:          504 b            0 skpd (  0.0%)    0.001 s ( 0.001 ms/b)
<ss|sf>:          252 b            0 skpd (  0.0%)    0.000 s ( 0.001 ms/b)
<ss|sg>:          126 b            0 skpd (  0.0%)    0.000 s ( 0.002 ms/b)
<ss|pp>:          441 b            0 skpd (  0.0%)    0.001 s ( 0.003 ms/b)
<ss|pd>:          504 b            0 skpd (  0.0%)    0.001 s ( 0.003 ms/b)
<ss|pf>:          252 b            0 skpd (  0.0%)    0.000 s ( 0.001 ms/b)
<ss|pg>:          126 b            0 skpd (  0.0%)    0.001 s ( 0.004 ms/b)
<ss|dd>:          210 b            0 skpd (  0.0%)    0.001 s ( 0.007 ms/b)
<ss|df>:          168 b            0 skpd (  0.0%)    0.001 s ( 0.003 ms/b)
<ss|dg>:           84 b            0 skpd (  0.0%)    0.001 s ( 0.010 ms/b)
<ss|ff>:           63 b            0 skpd (  0.0%)    0.000 s ( 0.006 ms/b)
<ss|fg>:           42 b            0 skpd (  0.0%)    0.000 s ( 0.010 ms/b)
<ss|gg>:           21 b            0 skpd (  0.0%)    0.001 s ( 0.029 ms/b)
<sp|sp>:          666 b            0 skpd (  0.0%)    0.001 s ( 0.001 ms/b)
<sp|sd>:          864 b            0 skpd (  0.0%)    0.001 s ( 0.001 ms/b)
<sp|sf>:          432 b            0 skpd (  0.0%)    0.000 s ( 0.001 ms/b)
<sp|sg>:          216 b            0 skpd (  0.0%)    0.001 s ( 0.002 ms/b)
<sp|pp>:          756 b            0 skpd (  0.0%)    0.003 s ( 0.003 ms/b)
<sp|pd>:          864 b            1 skpd (  0.1%)    0.002 s ( 0.003 ms/b)
<sp|pf>:          432 b            2 skpd (  0.5%)    0.001 s ( 0.001 ms/b)
<sp|pg>:          216 b            1 skpd (  0.5%)    0.001 s ( 0.004 ms/b)
<sp|dd>:          360 b            0 skpd (  0.0%)    0.002 s ( 0.006 ms/b)
<sp|df>:          288 b          287 skpd ( 99.7%)    0.000 s ( 0.034 ms/b)
<sp|dg>: done
<sp|ff>:          108 b          105 skpd ( 97.2%)    0.000 s ( 0.022 ms/b)
<sp|fg>: done
<sp|gg>: done
<sd|sd>:          300 b            0 skpd (  0.0%)    0.001 s ( 0.002 ms/b)
<sd|sf>:          288 b            0 skpd (  0.0%)    0.000 s ( 0.001 ms/b)
<sd|sg>:          144 b            0 skpd (  0.0%)    0.001 s ( 0.004 ms/b)
<sd|pp>:          504 b            2 skpd (  0.4%)    0.002 s ( 0.004 ms/b)
<sd|pd>:          576 b            1 skpd (  0.2%)    0.002 s ( 0.004 ms/b)
<sd|pf>: done
<sd|pg>: done
<sd|dd>:          240 b            0 skpd (  0.0%)    0.002 s ( 0.008 ms/b)
<sd|df>:          192 b            0 skpd (  0.0%)    0.001 s ( 0.005 ms/b)
<sd|dg>:           96 b            0 skpd (  0.0%)    0.001 s ( 0.016 ms/b)
<sd|ff>: done
<sd|fg>: done
<sd|gg>: done
<sf|sf>:           78 b            0 skpd (  0.0%)    0.000 s ( 0.002 ms/b)
<sf|sg>:           72 b            0 skpd (  0.0%)    0.000 s ( 0.006 ms/b)
<sf|pp>:          252 b            0 skpd (  0.0%)    0.001 s ( 0.003 ms/b)
<sf|pd>: done
<sf|pf>: done
<sf|pg>: done
<sf|dd>:          120 b            0 skpd (  0.0%)    0.001 s ( 0.010 ms/b)
<sf|df>: done
<sf|dg>: done
<sf|ff>: done
<sf|fg>: done
<sf|gg>: done
<sg|sg>:           21 b            0 skpd (  0.0%)    0.000 s ( 0.009 ms/b)
<sg|pp>:          126 b            0 skpd (  0.0%)    0.001 s ( 0.006 ms/b)
<sg|pd>: done
<sg|pf>: done
<sg|pg>: done
<sg|dd>:           60 b            0 skpd (  0.0%)    0.001 s ( 0.020 ms/b)
<sg|df>: done
<sg|dg>: done
<sg|ff>: done
<sg|fg>: done
<sg|gg>: done
<pp|pp>:          231 b            0 skpd (  0.0%)    0.001 s ( 0.005 ms/b)
<pp|pd>:          504 b            0 skpd (  0.0%)    0.001 s ( 0.003 ms/b)
<pp|pf>:          252 b            0 skpd (  0.0%)    0.001 s ( 0.003 ms/b)
<pp|pg>:          126 b            0 skpd (  0.0%)    0.001 s ( 0.009 ms/b)
<pp|dd>:          210 b            0 skpd (  0.0%)    0.002 s ( 0.008 ms/b)
<pp|df>:          168 b            0 skpd (  0.0%)    0.001 s ( 0.006 ms/b)
<pp|dg>:           84 b            0 skpd (  0.0%)    0.001 s ( 0.017 ms/b)
<pp|ff>:           63 b            0 skpd (  0.0%)    0.001 s ( 0.011 ms/b)
<pp|fg>:           42 b            0 skpd (  0.0%)    0.001 s ( 0.023 ms/b)
<pp|gg>:           21 b            0 skpd (  0.0%)    0.001 s ( 0.063 ms/b)
<pd|pd>:          300 b            0 skpd (  0.0%)    0.002 s ( 0.008 ms/b)
<pd|pf>:          288 b            0 skpd (  0.0%)    0.001 s ( 0.004 ms/b)
<pd|pg>:          144 b            0 skpd (  0.0%)    0.002 s ( 0.016 ms/b)
<pd|dd>:          240 b            0 skpd (  0.0%)    0.003 s ( 0.014 ms/b)
<pd|df>:          192 b            0 skpd (  0.0%)    0.002 s ( 0.010 ms/b)
<pd|dg>:           96 b            0 skpd (  0.0%)    0.003 s ( 0.032 ms/b)
<pd|ff>:           72 b           70 skpd ( 97.2%)    0.000 s ( 0.088 ms/b)
<pd|fg>: done
<pd|gg>: done
<pf|pf>:           78 b            0 skpd (  0.0%)    0.001 s ( 0.007 ms/b)
<pf|pg>:           72 b            0 skpd (  0.0%)    0.001 s ( 0.019 ms/b)
<pf|dd>:          120 b            0 skpd (  0.0%)    0.002 s ( 0.016 ms/b)
<pf|df>: done
<pf|dg>: done
<pf|ff>:           36 b           34 skpd ( 94.4%)    0.000 s ( 0.054 ms/b)
<pf|fg>: done
<pf|gg>:           12 b           11 skpd ( 91.7%)    0.000 s ( 0.237 ms/b)
<pg|pg>:           21 b            0 skpd (  0.0%)    0.001 s ( 0.038 ms/b)
<pg|dd>:           60 b            0 skpd (  0.0%)    0.002 s ( 0.032 ms/b)
<pg|df>: done
<pg|dg>: done
<pg|ff>:           18 b           17 skpd ( 94.4%)    0.000 s ( 0.148 ms/b)
<pg|fg>: done
<pg|gg>: done
<dd|dd>:           55 b            0 skpd (  0.0%)    0.002 s ( 0.045 ms/b)
<dd|df>:           80 b            0 skpd (  0.0%)    0.002 s ( 0.019 ms/b)
<dd|dg>:           40 b            0 skpd (  0.0%)    0.002 s ( 0.059 ms/b)
<dd|ff>:           30 b            0 skpd (  0.0%)    0.001 s ( 0.036 ms/b)
<dd|fg>:           20 b            0 skpd (  0.0%)    0.002 s ( 0.080 ms/b)
<dd|gg>:           10 b            0 skpd (  0.0%)    0.002 s ( 0.223 ms/b)
<df|df>:           36 b            0 skpd (  0.0%)    0.001 s ( 0.040 ms/b)
<df|dg>:           32 b            0 skpd (  0.0%)    0.002 s ( 0.068 ms/b)
<df|ff>: done
<df|fg>: done
<df|gg>: done
<dg|dg>:           10 b            0 skpd (  0.0%)    0.002 s ( 0.182 ms/b)
<dg|ff>: done
<dg|fg>: done
<dg|gg>: done
<ff|ff>: done
<ff|fg>: done
<ff|gg>: done
<fg|fg>: done
<fg|gg>: done
<gg|gg>: done
Recanonicalizing the internal orbitals
Recanonicalizing the virtual orbitals
Time needed for Fock operator              ...            0.135 sec
Reference energy                           ...  -1638.923229329
Warning: for UHF the TrafoType has to be JK
Warning: for UHF the K(C)-option cannot be MO but must be AOX

-------------------------------
PARTIAL EXCHANGE TRANSFORMATION
-------------------------------

Transformation type                        ... two-operators
Generation of integrals (i,mue|j,nue)      ... ON
Generation of integrals (mue,kappa|nue,tau)... ON
Generation of integrals (i,mue|a,nue)      ... ON
Dimension of the basis                     ...   67
Number of internal alpha-MOs               ...   10 (   5-  14)
Number of internal beta-MOs                ...    9 (   5-  13)
Number of external alpha-MOs               ...   52 (  15-  66)
Number of external beta-MOs                ...   53 (  14-  66)
Pair cutoff                                ... 0.000e+00 Eh
Number of AO pairs in the trafo            ... 2278
Total Number of distinct AO pairs          ... 2278
Memory devoted for trafo                   ... 2500.0 MB 
Max. Number of MO pairs treated together   ... 72996      
Number Format for Storage                  ... Double (8 Byte)
Integral package used                      ... LIBINT

Starting integral evaluation:
    ... done with AO integral generation
Closing buffer AOK[aa] ( 0.00 GB; CompressionRatio= 0.00)
Closing buffer AOK[bb] ( 0.00 GB; CompressionRatio= 0.00)
Closing buffer AOK[ab] ( 0.00 GB; CompressionRatio= 0.00)
Closing buffer AOK[ba] ( 0.00 GB; CompressionRatio= 0.00)
Collecting buffer AOK 
Closing buffer IAAO1[aa] ( 0.00 GB; CompressionRatio= 0.00)
Closing buffer IAAO1[bb] ( 0.00 GB; CompressionRatio= 0.00)
Closing buffer IAAO1[ab] ( 0.00 GB; CompressionRatio= 0.00)
Closing buffer IAAO1[ba] ( 0.00 GB; CompressionRatio= 0.00)
Closing buffer IAAO2[aa] ( 0.00 GB; CompressionRatio= 0.00)
Closing buffer IAAO2[bb] ( 0.00 GB; CompressionRatio= 0.00)
Closing buffer IAAO2[ab] ( 0.00 GB; CompressionRatio= 0.00)
Closing buffer IAAO2[ba] ( 0.00 GB; CompressionRatio= 0.00)
Collecting buffer IAAO 
Closing buffer PRQS    ( 0.00 GB; CompressionRatio= 0.00)
Collecting buffer PRQS 
Number of alpha/alpha MO pairs in trafo    ...   55
Number of beta /beta  MO pairs in trafo    ...   45
Number of alpha/ beta MO pairs in trafo    ...   90
------------------------
SORTING OF (i,mue|j,nue)
------------------------

SORTING OF ALPHA/ALPHA PAIRS
IBATCH = 1 of  1
Closing buffer KAO[aa] ( 0.00 GB; CompressionRatio= 1.00)
Collecting buffer KAO 
SORTING OF BETA /BETA  PAIRS
IBATCH = 1 of  1
Closing buffer KAO[bb] ( 0.00 GB; CompressionRatio= 1.00)
Collecting buffer KAO 
SORTING OF ALPHA/BETA  PAIRS
IBATCH = 1 of  1
Closing buffer KAO[ab] ( 0.00 GB; CompressionRatio= 0.999665961474)
Collecting buffer KAO[ab] 
------------------------
SORTING OF (i,mue|a,nue)
------------------------

Number of alpha/alpha (i,a) pairs in trafo  ...  520
Number of beta /beta  (i,a) pairs in trafo  ...  477
Number of alpha/ beta (i,a) pairs in trafo  ...  530
Number of beta /alpha (i,a) pairs in trafo  ...  468
Setting up the alpha/alpha list             ... done
Setting up the beta /beta  list             ... done
Setting up the alpha/beta  list             ... done
Setting up the beta /alpha list             ... done
    ... Now sorting (i,mue|a,nue)integrals
    ... Integrals (i,b|a,c) will be made on the fly
SORTING OF ALPHA/ALPHA PAIRS
IBATCH = 1 of  1
Closing buffer IPAQ[aa]  0.00 GB; CompressionRatio= 1.00)
SORTING OF BETA /BETA  PAIRS
IBATCH = 1 of  1
Closing buffer IPAQ[bb]( 0.00 GB; CompressionRatio= 1.00)
SORTING OF ALPHA/BETA  PAIRS (NMatSort_ab=23)
IBATCH = 1 of  1
Closing buffer IPAQ[ab]( 0.00 GB; CompressionRatio= 1.00)
SORTING OF BETA/ALPHA  PAIRS
IBATCH = 1 of  1
Closing buffer IPAQ[ba]( 0.00 GB; CompressionRatio= 1.00)
N(AO-Batches) Done                         ...         0 
N(AO-Batches) Skipped                      ...         0 
N(IJ)-pairs Skipped                        ...         0 
TOTAL TIME for half transformation         ...     4.306 sec
AO-integral generation                     ...     0.000 sec
Half transformation                        ...     0.000 sec
K-integral sorting                         ...     1.003 sec
<ss|**>: 
------------------------------
PARTIAL COULOMB TRANSFORMATION
------------------------------

Transformation type                        ... two-operators
Dimension of the basis                     ...   67
Number of internal alpha-MOs               ...   10 (5-14)
Number of internal beta-MOs                ...    9 (5-13)
Pair cutoff                                ... 0.000e+00 Eh
Number of AO pairs included in the trafo   ... 2278
Total Number of distinct AO pairs          ... 2278
Memory devoted for trafo                   ... 2500.0 MB 
Max. Number of MO pairs treated together   ... 143845      
Max. Number of MOs treated per batch       ... 2146      
Number Format for Storage                  ... Double (8 Byte)
AO-integral source                         ... DIRECT
Integral package used                      ... LIBINT

Starting integral evaluation:
<sp|**>:         3990 b        0 skpd     0.005 s (  0.001 ms/b)
<sd|**>:         6840 b        0 skpd     0.025 s (  0.004 ms/b)
<sf|**>:         4560 b        0 skpd     0.024 s (  0.005 ms/b)
<sg|**>:         2280 b        0 skpd     0.017 s (  0.007 ms/b)
<pp|**>:         1140 b        0 skpd     0.021 s (  0.019 ms/b)
        3990 b        0 skpd     0.030 s (  0.007 ms/b)
<pd|**>:         4560 b        0 skpd     0.063 s (  0.014 ms/b)
<pf|**>:         2280 b        0 skpd     0.049 s (  0.022 ms/b)
<pg|**>:         1140 b        0 skpd     0.050 s (  0.044 ms/b)
<dd|**>:         1900 b        0 skpd     0.039 s (  0.021 ms/b)
<df|**>:         1520 b        0 skpd     0.061 s (  0.040 ms/b)
<dg|**>:          760 b        0 skpd     0.057 s (  0.075 ms/b)
<ff|**>:          570 b        0 skpd     0.053 s (  0.093 ms/b)
<fg|**>:          380 b        0 skpd     0.058 s (  0.153 ms/b)
<gg|**>:          190 b        0 skpd     0.047 s (  0.245 ms/b)
Closing buffer AOJ[aa] ( 0.00 GB; CompressionRatio= 0.97)
Closing buffer AOJ[bb] ( 0.00 GB; CompressionRatio= 0.00)
Collecting buffer AOJ 
    ... done with AO integral generation
Number of Alpha-MO pairs included          ...   55
Number of Beta-MO pairs included           ...   45
    ... Now sorting integrals
SORTING ALPHA/ALPHA PAIRS
IBATCH = 1 of  1
Closing buffer JAO[aa] ( 0.00 GB; CompressionRatio= 1.00)
SORTING BETA/BETA PAIRS
IBATCH = 1 of  1
Closing buffer JAO[bb] ( 0.00 GB; CompressionRatio= 1.00)
Collecting buffer JAO 
TOTAL TIME for half transformation         ...     0.858 sec
AO-integral generation                     ...     0.444 sec
Half transformation                        ...     0.158 sec
J-integral sorting                         ...     0.111 sec

-------------------------- SECOND HALF TRANSFORMATION -------------------------
Formation of (ij|kl),(ij|ka), (ij|ab)      ... ok (     0.153 sec)
Formation of (ik|jl),(ik|ja), (ia|jb)      ... ok (     0.250 sec)


-----------------------
SPIN UNRESTRICTED GUESS
-----------------------

Entering MDCI_UHF_Guess, Tailored=0
Spin-components of the MP2 energy:
EMP2(aa)=     -0.149607340
EMP2(bb)=     -0.136110374
EMP2(ab)=     -0.544663574

Initial guess performed in     0.016 sec
E(0)                                       ...  -1638.923229329
E(MP2)                                     ...     -0.830381289
Initial E(tot)                             ...  -1639.753610618
<T|T>                                      ...      0.115372583
Number of pairs included                   ... 171

------------------------------------------------
                  UHF COUPLED CLUSTER ITERATIONS
------------------------------------------------

Number of amplitudes to be optimized       ...       359922

Iter       E(tot)           E(Corr)          Delta-E          Residual     Time      <S|S>**1/2
  0  -1639.753610618     -0.830381289     -0.000000000      0.043768763    0.32      0.000000329
                           *** Turning on DIIS ***
  1  -1639.598081537     -0.674852208      0.155529081      0.021049716    0.29      0.085410563
  2  -1639.646827961     -0.723598632     -0.048746424      0.006970921    0.30      0.058913094
  3  -1639.645352328     -0.722122999      0.001475633      0.004985219    0.30      0.073220467
  4  -1639.646239941     -0.723010612     -0.000887613      0.002978611    0.30      0.078612736
  5  -1639.646936136     -0.723706807     -0.000696195      0.001376818    0.33      0.083349699
  6  -1639.647184318     -0.723954990     -0.000248183      0.000345611    0.34      0.086251265
  7  -1639.647164341     -0.723935012      0.000019977      0.000064871    0.33      0.087033971
  8  -1639.647177068     -0.723947740     -0.000012727      0.000026141    0.32      0.087084433
  9  -1639.647178622     -0.723949293     -0.000001553      0.000008222    0.32      0.087117116
               --- The Coupled-Cluster iterations have converged ---

----------------------
COUPLED CLUSTER ENERGY
----------------------

E(0)                                       ...  -1638.923229329
E(CORR)                                    ...     -0.723949293
E(TOT)                                     ...  -1639.647178622
Singles norm <S|S>**1/2                    ...      0.087117116 ( 0.050025676, 0.037091440)  
T1 diagnostic                              ...      0.019986037                              

------------------
LARGEST AMPLITUDES
------------------
  14a-> 18a  -1a-> -1a       0.064585
  12b-> 26b  -1b-> -1b       0.029090
  13b-> 25b  -1b-> -1b       0.029090
  11b-> 24b  -1b-> -1b       0.028764
   9b-> 23b  -1b-> -1b       0.026210
  10b-> 22b  -1b-> -1b       0.026054
  11a-> 24a  -1a-> -1a       0.022834
  12a-> 26a  -1a-> -1a       0.022160
  13a-> 25a  -1a-> -1a       0.022160
   9a-> 22a  -1a-> -1a       0.021899
  11b-> 32b  -1b-> -1b       0.018499
  10a-> 23a  -1a-> -1a       0.018336
  10b-> 31b  -1b-> -1b       0.017600
   9b-> 30b  -1b-> -1b       0.017220
   9a-> 30a   9b-> 30b       0.015541
  12b-> 34b  -1b-> -1b       0.014555

----------------------
UHF TRIPLES CORRECTION (Algorithm 1)
----------------------

Multiplier for the singles contribution    ...      1.000000000

SPIN-CASE Alpha-Alpha-Alpha:
10% done
20% done
30% done
40% done
50% done
60% done
70% done
80% done
90% done


SPIN-CASE Beta-Beta-Beta:
10% done
20% done
30% done
40% done
50% done
60% done
70% done
80% done
90% done


SPIN-CASE Alpha-Alpha-Beta:
10% done
20% done
30% done
40% done
50% done
60% done
70% done
80% done
90% done


SPIN-CASE Beta-Beta-Alpha:
10% done
20% done
30% done
40% done
50% done
60% done
70% done
80% done
90% done


Triples Correction (T)                     ...     -0.020176318
    alpha-alpha-alpha ... -0.001181384 (  5.9%)
    alpha-alpha-beta  ... -0.010145163 ( 50.3%)
    alpha-beta -beta  ... -0.008210937 ( 40.7%)
    beta -beta -beta  ... -0.000638835 (  3.2%)
Scaling of triples based on CCSD energies (Peterson et al. Molecular Physics 113, 1551 (2015))
E(T*) = f*E(T) where f = E(F12-CCSD)/E(CCSD) 
f = CCSD (with F12)/ CCSD (without F12)    ...      1.000000000
Scaled triples correction (T)              ...     -0.020176318

Final correlation energy                   ...     -0.744125610
E(CCSD)                                    ...  -1639.647178622
E(CCSD(T))                                 ...  -1639.667354939



        !!!!!!!!!!!!!!!!!!!!!!!!!!!!!!!!!!!!!!!!!!!!!!!!!!!!!!!!!!!!!!!!!!!!!!!!!! 
        !  Warning: Densities are linearized densities                           !
        !!!!!!!!!!!!!!!!!!!!!!!!!!!!!!!!!!!!!!!!!!!!!!!!!!!!!!!!!!!!!!!!!!!!!!!!!! 

NORM  =      1.100922336 sqrt=     1.049248462
W(HF) =      0.908329287
------------------------------------------------------------------------------
                           ORCA POPULATION ANALYSIS
------------------------------------------------------------------------------
Input electron density              ... 29_Cu.mdcip
Input spin density                  ... 29_Cu.mdcir
BaseName (.gbw .S,...)              ... 29_Cu

                    ********************************
                    * MULLIKEN POPULATION ANALYSIS *
                    ********************************

------------------------------------------
MULLIKEN ATOMIC CHARGES AND SPIN DENSITIES
------------------------------------------
   0 Cu:   -0.000000    1.000000
Sum of atomic charges       :   -0.0000000
Sum of atomic spin densities:    1.0000000

---------------------------------------------------
MULLIKEN REDUCED ORBITAL CHARGES AND SPIN DENSITIES
---------------------------------------------------
CHARGE
  0 Cus       :     6.991211  s :     6.991211
      pz      :     4.005965  p :    12.017895
      px      :     4.005965
      py      :     4.005965
      dz2     :     1.991438  d :     9.957192
      dxz     :     1.991438
      dyz     :     1.991438
      dx2y2   :     1.991438
      dxy     :     1.991438
      f0      :     0.004377  f :     0.030636
      f+1     :     0.004377
      f-1     :     0.004377
      f+2     :     0.004377
      f-2     :     0.004377
      f+3     :     0.004377
      f-3     :     0.004377
      g0      :     0.000341  g :     0.003066
      g+1     :     0.000341
      g-1     :     0.000341
      g+2     :     0.000341
      g-2     :     0.000341
      g+3     :     0.000341
      g-3     :     0.000341
      g+4     :     0.000341
      g-4     :     0.000341

SPIN
  0 Cus       :     0.988764  s :     0.988764
      pz      :     0.001057  p :     0.003170
      px      :     0.001057
      py      :     0.001057
      dz2     :     0.001679  d :     0.008397
      dxz     :     0.001679
      dyz     :     0.001679
      dx2y2   :     0.001679
      dxy     :     0.001679
      f0      :    -0.000044  f :    -0.000310
      f+1     :    -0.000044
      f-1     :    -0.000044
      f+2     :    -0.000044
      f-2     :    -0.000044
      f+3     :    -0.000044
      f-3     :    -0.000044
      g0      :    -0.000002  g :    -0.000022
      g+1     :    -0.000002
      g-1     :    -0.000002
      g+2     :    -0.000002
      g-2     :    -0.000002
      g+3     :    -0.000002
      g-3     :    -0.000002
      g+4     :    -0.000002
      g-4     :    -0.000002


                     *******************************
                     * LOEWDIN POPULATION ANALYSIS *
                     *******************************

-----------------------------------------
LOEWDIN ATOMIC CHARGES AND SPIN DENSITIES
-----------------------------------------
   0 Cu:   -0.000000    1.000000

--------------------------------------------------
LOEWDIN REDUCED ORBITAL CHARGES AND SPIN DENSITIES
--------------------------------------------------
CHARGE
  0 Cus       :     6.991211  s :     6.991211
      pz      :     4.005965  p :    12.017895
      px      :     4.005965
      py      :     4.005965
      dz2     :     1.991438  d :     9.957192
      dxz     :     1.991438
      dyz     :     1.991438
      dx2y2   :     1.991438
      dxy     :     1.991438
      f0      :     0.004377  f :     0.030636
      f+1     :     0.004377
      f-1     :     0.004377
      f+2     :     0.004377
      f-2     :     0.004377
      f+3     :     0.004377
      f-3     :     0.004377
      g0      :     0.000341  g :     0.003066
      g+1     :     0.000341
      g-1     :     0.000341
      g+2     :     0.000341
      g-2     :     0.000341
      g+3     :     0.000341
      g-3     :     0.000341
      g+4     :     0.000341
      g-4     :     0.000341

SPIN
  0 Cus       :     0.988764  s :     0.988764
      pz      :     0.001057  p :     0.003170
      px      :     0.001057
      py      :     0.001057
      dz2     :     0.001679  d :     0.008397
      dxz     :     0.001679
      dyz     :     0.001679
      dx2y2   :     0.001679
      dxy     :     0.001679
      f0      :    -0.000044  f :    -0.000310
      f+1     :    -0.000044
      f-1     :    -0.000044
      f+2     :    -0.000044
      f-2     :    -0.000044
      f+3     :    -0.000044
      f-3     :    -0.000044
      g0      :    -0.000002  g :    -0.000022
      g+1     :    -0.000002
      g-1     :    -0.000002
      g+2     :    -0.000002
      g-2     :    -0.000002
      g+3     :    -0.000002
      g-3     :    -0.000002
      g+4     :    -0.000002
      g-4     :    -0.000002


                      *****************************
                      * MAYER POPULATION ANALYSIS *
                      *****************************

  NA   - Mulliken gross atomic population
  ZA   - Total nuclear charge
  QA   - Mulliken gross atomic charge
  VA   - Mayer's total valence
  BVA  - Mayer's bonded valence
  FA   - Mayer's free valence

  ATOM       NA         ZA         QA         VA         BVA        FA
  0 Cu    29.0000    29.0000    -0.0000     1.6630     0.0000     1.6630





------------------------------------------------------------------------------- 
                                     TIMINGS                                   
------------------------------------------------------------------------------- 


Total execution time                   ...        9.857 sec

Fock Matrix Formation                  ...        0.135 sec (  1.4%)
Initial Guess                          ...        0.016 sec (  0.2%)
DIIS Solver                            ...        0.305 sec (  3.1%)
State Vector Update                    ...        0.014 sec (  0.1%)
Sigma-vector construction              ...        2.839 sec ( 28.8%)
  <D|H|D>(0-ext Fock)                  ...        0.005 sec (  0.2% of sigma)
  <D|H|D>(0-ext)                       ...        0.016 sec (  0.6% of sigma)
  <D|H|D>(2-ext Fock)                  ...        0.002 sec (  0.1% of sigma)
  <D|H|D>(2-ext)                       ...        0.076 sec (  2.7% of sigma)
  <D|H|D>(4-ext)                       ...        1.084 sec ( 38.2% of sigma)
  <S|H|0>                              ...        0.136 sec (  4.8% of sigma)
  <S|H|D>(1-ext)                       ...        0.002 sec (  0.1% of sigma)
  <D|H|S>(1-ext)                       ...        0.025 sec (  0.9% of sigma)
  Fock-dressing                        ...        0.604 sec ( 21.3% of sigma)
  (ik|jl)-dressing                     ...        0.023 sec (  0.8% of sigma)
  (ij|ab),(ia|jb)-dressing             ...        0.654 sec ( 23.0% of sigma)
  Pair energies                        ...        0.002 sec (  0.1% of sigma)
Total Time for computing (T)           ...        0.329 sec (  3.3% of ALL)
  I/O of integral and amplitudes       ...        0.068 sec ( 20.6% of (T))
  External N**7 contributions          ...        0.093 sec ( 28.3% of (T))
  Internal N**7 contributions          ...        0.045 sec ( 13.6% of (T))
  N**6 triples energy contributions    ...        0.116 sec ( 35.2% of (T))


-------------------------   --------------------
FINAL SINGLE POINT ENERGY     -1639.667354939063
-------------------------   --------------------


                            ***************************************
                            *     ORCA property calculations      *
                            ***************************************

                                    ---------------------
                                    Active property flags
                                    ---------------------
   (+) Dipole Moment


------------------------------------------------------------------------------
                       ORCA ELECTRIC PROPERTIES CALCULATION
------------------------------------------------------------------------------

Dipole Moment Calculation                       ... on
Quadrupole Moment Calculation                   ... off
Polarizability Calculation                      ... off
GBWName                                         ... 29_Cu.gbw
Electron density file                           ... 29_Cu.scfp
The origin for moment calculation is the CENTER OF MASS  = ( 0.000000,  0.000000  0.000000)

-------------
DIPOLE MOMENT
-------------
                                X             Y             Z
Electronic contribution:      0.00000       0.00000       0.00000
Nuclear contribution   :      0.00000       0.00000       0.00000
                        -----------------------------------------
Total Dipole Moment    :      0.00000       0.00000       0.00000
                        -----------------------------------------
Magnitude (a.u.)       :      0.00000
Magnitude (Debye)      :      0.00000



--------------------
Rotational spectrum 
--------------------
 
Rotational constants in cm-1:     0.000000     0.000000     0.000000 
Rotational constants in MHz :     0.000000     0.000000     0.000000 

 Dipole components along the rotational axes: 
x,y,z [a.u.] :     0.000000     0.000000     0.000000 
x,y,z [Debye]:     0.000000     0.000000     0.000000 

 

                           *** MDCI DENSITY ***

------------------------------------------------------------------------------
                       ORCA ELECTRIC PROPERTIES CALCULATION
------------------------------------------------------------------------------

Dipole Moment Calculation                       ... on
Quadrupole Moment Calculation                   ... off
Polarizability Calculation                      ... off
GBWName                                         ... 29_Cu.gbw
Electron density file                           ... 29_Cu.mdcip
The origin for moment calculation is the CENTER OF MASS  = ( 0.000000,  0.000000  0.000000)

-------------
DIPOLE MOMENT
-------------
                                X             Y             Z
Electronic contribution:     -0.00000       0.00000      -0.00000
Nuclear contribution   :      0.00000       0.00000       0.00000
                        -----------------------------------------
Total Dipole Moment    :     -0.00000       0.00000      -0.00000
                        -----------------------------------------
Magnitude (a.u.)       :      0.00000
Magnitude (Debye)      :      0.00000



--------------------
Rotational spectrum 
--------------------
 
Rotational constants in cm-1:     0.000000     0.000000     0.000000 
Rotational constants in MHz :     0.000000     0.000000     0.000000 

 Dipole components along the rotational axes: 
x,y,z [a.u.] :    -0.000000     0.000000    -0.000000 
x,y,z [Debye]:    -0.000000     0.000000    -0.000000 

 

Timings for individual modules:

Sum of individual times         ...       15.182 sec (=   0.253 min)
GTO integral calculation        ...        0.925 sec (=   0.015 min)   6.1 %
SCF iterations                  ...        3.857 sec (=   0.064 min)  25.4 %
MDCI module                     ...       10.400 sec (=   0.173 min)  68.5 %
                             ****ORCA TERMINATED NORMALLY****
TOTAL RUN TIME: 0 days 0 hours 0 minutes 15 seconds 948 msec
