
                                 *****************
                                 * O   R   C   A *
                                 *****************

           --- An Ab Initio, DFT and Semiempirical electronic structure package ---

                  #######################################################
                  #                        -***-                        #
                  #          Department of theory and spectroscopy      #
                  #               Directorship: Frank Neese             #
                  #        Max Planck Institute fuer Kohlenforschung    #
                  #                Kaiser Wilhelm Platz 1               #
                  #                 D-45470 Muelheim/Ruhr               #
                  #                      Germany                        #
                  #                                                     #
                  #                  All rights reserved                #
                  #                        -***-                        #
                  #######################################################


                         Program Version 4.2.0 -  RELEASE  -


 With contributions from (in alphabetic order):
   Daniel Aravena         : Magnetic Suceptibility
   Michael Atanasov       : Ab Initio Ligand Field Theory (pilot matlab implementation)
   Alexander A. Auer      : GIAO ZORA, VPT2
   Ute Becker             : Parallelization
   Giovanni Bistoni       : ED, misc. LED, open-shell LED, HFLED
   Martin Brehm           : Molecular dynamics
   Dmytro Bykov           : SCF Hessian
   Vijay G. Chilkuri      : MRCI spin determinant printing, contributions to CSF-ICE
   Dipayan Datta          : RHF DLPNO-CCSD density
   Achintya Kumar Dutta   : EOM-CC, STEOM-CC
   Dmitry Ganyushin       : Spin-Orbit,Spin-Spin,Magnetic field MRCI
   Miquel Garcia          : C-PCM Hessian, Gaussian charge scheme
   Yang Guo               : DLPNO-NEVPT2, CIM, IAO-localization
   Andreas Hansen         : Spin unrestricted coupled pair/coupled cluster methods
   Benjamin Helmich-Paris : CASSCF linear response (MC-RPA)
   Lee Huntington         : MR-EOM, pCC
   Robert Izsak           : Overlap fitted RIJCOSX, COSX-SCS-MP3, EOM
   Christian Kollmar      : KDIIS, OOCD, Brueckner-CCSD(T), CCSD density
   Simone Kossmann        : Meta GGA functionals, TD-DFT gradient, OOMP2, MP2 Hessian
   Martin Krupicka        : AUTO-CI
   Lucas Lang             : DCDCAS
   Dagmar Lenk            : GEPOL surface, SMD
   Dimitrios Liakos       : Extrapolation schemes; Compound Job, initial MDCI parallelization
   Dimitrios Manganas     : Further ROCIS development; embedding schemes
   Dimitrios Pantazis     : SARC Basis sets
   Taras Petrenko         : DFT Hessian,TD-DFT gradient, ASA, ECA, R-Raman, ABS, FL, XAS/XES, NRVS
   Peter Pinski           : DLPNO-MP2, DLPNO-MP2 Gradient
   Christoph Reimann      : Effective Core Potentials
   Marius Retegan         : Local ZFS, SOC
   Christoph Riplinger    : Optimizer, TS searches, QM/MM, DLPNO-CCSD(T), (RO)-DLPNO pert. Triples
   Tobias Risthaus        : Range-separated hybrids, TD-DFT gradient, RPA, STAB
   Michael Roemelt        : Original ROCIS implementation
   Masaaki Saitow         : Open-shell DLPNO-CCSD energy and density
   Barbara Sandhoefer     : DKH picture change effects
   Avijit Sen             : IP-ROCIS
   Kantharuban Sivalingam : CASSCF convergence, NEVPT2, FIC-MRCI
   Bernardo de Souza      : ESD, SOC TD-DFT
   Georgi Stoychev        : AutoAux, RI-MP2 NMR
   Willem Van den Heuvel  : Paramagnetic NMR
   Boris Wezisla          : Elementary symmetry handling
   Frank Wennmohs         : Technical directorship


 We gratefully acknowledge several colleagues who have allowed us to
 interface, adapt or use parts of their codes:
   Stefan Grimme, W. Hujo, H. Kruse,             : VdW corrections, initial TS optimization,
                  C. Bannwarth                     DFT functionals, gCP, sTDA/sTD-DF
   Ed Valeev, F. Pavosevic, A. Kumar             : LibInt (2-el integral package), F12 methods
   Garnet Chan, S. Sharma, J. Yang, R. Olivares  : DMRG
   Ulf Ekstrom                                   : XCFun DFT Library
   Mihaly Kallay                                 : mrcc  (arbitrary order and MRCC methods)
   Andreas Klamt, Michael Diedenhofen            : otool_cosmo (COSMO solvation model)
   Jiri Pittner, Ondrej Demel                    : Mk-CCSD
   Frank Weinhold                                : gennbo (NPA and NBO analysis)
   Christopher J. Cramer and Donald G. Truhlar   : smd solvation model
   Lars Goerigk                                  : TD-DFT with DH, B97 family of functionals
   V. Asgeirsson, H. Jonsson                     : NEB implementation
   FAccTs GmbH                                   : IRC, NEB, NEB-TS, Multilevel, MM, QM/MM, CI optimization
   S Lehtola, MJT Oliveira, MAL Marques          : LibXC Library


 Your calculation uses the libint2 library for the computation of 2-el integrals
 For citations please refer to: http://libint.valeyev.net

 Your ORCA version has been built with support for libXC version: 4.2.3
 For citations please refer to: https://tddft.org/programs/libxc/

 This ORCA versions uses:
   CBLAS   interface :  Fast vector & matrix operations
   LAPACKE interface :  Fast linear algebra routines
   SCALAPACK package :  Parallel linear algebra routines


----- Orbital basis set information -----
Your calculation utilizes the basis: def2-TZVPPD
   F. Weigend and R. Ahlrichs, Phys. Chem. Chem. Phys. 7, 3297 (2005).
   D. Rappoport and F. Furche, J. Chem. Phys. 133 134105 (2010).

================================================================================
                                        WARNINGS
                       Please study these warnings very carefully!
================================================================================


WARNING: your system is open-shell and RHF/RKS was chosen
  ===> : WILL SWITCH to UHF/UKS


WARNING: MDCI localization with Augmented Hessian Foster-Boys
  ===> : Switching off randomization!

WARNING: Post HF methods need fully converged wavefunctions
  ===> : Setting SCFConvForced true
         You can overwrite this default with %scf ConvForced false 


INFO   : the flag for use of LIBINT has been found!

================================================================================
                                       INPUT FILE
================================================================================
NAME = 33_As.in
|  1> #
|  2> # 33_As CCSD(T)/Def2-TZVPPD
|  3> #
|  4> ! CCSD(T) Def2-TZVPPD tightscf
|  5> 
|  6> *xyz 0 4
|  7>  As 0.0 0.0 0.0
|  8> *
|  9> 
| 10> %maxcore 5000 
| 11> 
| 12> %pal
| 13> nprocs 24
| 14> end
| 15> 
| 16> 
| 17>                          ****END OF INPUT****
================================================================================

                       ****************************
                       * Single Point Calculation *
                       ****************************

---------------------------------
CARTESIAN COORDINATES (ANGSTROEM)
---------------------------------
  As     0.000000    0.000000    0.000000

----------------------------
CARTESIAN COORDINATES (A.U.)
----------------------------
  NO LB      ZA    FRAG     MASS         X           Y           Z
   0 As   33.0000    0    74.920    0.000000    0.000000    0.000000

--------------------------------
INTERNAL COORDINATES (ANGSTROEM)
--------------------------------
 As     0   0   0     0.000000000000     0.00000000     0.00000000

---------------------------
INTERNAL COORDINATES (A.U.)
---------------------------
 As     0   0   0     0.000000000000     0.00000000     0.00000000

---------------------
BASIS SET INFORMATION
---------------------
There are 1 groups of distinct atoms

 Group   1 Type As  : 18s13p9d1f contracted to 7s5p5d1f pattern {8421111/64111/51111/1}

Atom   0As   basis set group =>   1


           ************************************************************
           *        Program running with 24 parallel MPI-processes    *
           *              working on a common directory               *
           ************************************************************
------------------------------------------------------------------------------
                           ORCA GTO INTEGRAL CALCULATION
------------------------------------------------------------------------------

                         BASIS SET STATISTICS AND STARTUP INFO

 # of primitive gaussian shells          ...   41
 # of primitive gaussian functions       ...  109
 # of contracted shells                  ...   18
 # of contracted basis functions         ...   54
 Highest angular momentum                ...    3
 Maximum contraction depth               ...    8
 Integral package used                   ... LIBINT
 Integral threshhold            Thresh   ...  2.500e-11
 Primitive cut-off              TCut     ...  2.500e-12


------------------------------ INTEGRAL EVALUATION ----------------------------


 * One electron integrals 
 Pre-screening matrix                    ... done
 Shell pair data                         ... done (   0.000 sec)



           ************************************************************
           *        Program running with 24 parallel MPI-processes    *
           *              working on a common directory               *
           ************************************************************
-------------------------------------------------------------------------------
                                 ORCA SCF
-------------------------------------------------------------------------------

------------
SCF SETTINGS
------------
Hamiltonian:
 Ab initio Hamiltonian  Method          .... Hartree-Fock(GTOs)


General Settings:
 Integral files         IntName         .... 33_As
 Hartree-Fock type      HFTyp           .... UHF
 Total Charge           Charge          ....    0
 Multiplicity           Mult            ....    4
 Number of Electrons    NEL             ....   33
 Basis Dimension        Dim             ....   54
 Nuclear Repulsion      ENuc            ....      0.0000000000 Eh

Convergence Acceleration:
 DIIS                   CNVDIIS         .... on
   Start iteration      DIISMaxIt       ....    12
   Startup error        DIISStart       ....  0.200000
   # of expansion vecs  DIISMaxEq       ....     5
   Bias factor          DIISBfac        ....   1.050
   Max. coefficient     DIISMaxC        ....  10.000
 Newton-Raphson         CNVNR           .... off
 SOSCF                  CNVSOSCF        .... off
 Level Shifting         CNVShift        .... on
   Level shift para.    LevelShift      ....    0.2500
   Turn off err/grad.   ShiftErr        ....    0.0010
 Zerner damping         CNVZerner       .... off
 Static damping         CNVDamp         .... on
   Fraction old density DampFac         ....    0.7000
   Max. Damping (<1)    DampMax         ....    0.9800
   Min. Damping (>=0)   DampMin         ....    0.0000
   Turn off err/grad.   DampErr         ....    0.1000
 Fernandez-Rico         CNVRico         .... off

SCF Procedure:
 Maximum # iterations   MaxIter         ....   125
 SCF integral mode      SCFMode         .... Direct
   Integral package                     .... LIBINT
 Reset frequency        DirectResetFreq ....    20
 Integral Threshold     Thresh          ....  2.500e-11 Eh
 Primitive CutOff       TCut            ....  2.500e-12 Eh

Convergence Tolerance:
 Convergence Check Mode ConvCheckMode   .... Total+1el-Energy
 Convergence forced     ConvForced      .... 1
 Energy Change          TolE            ....  1.000e-08 Eh
 1-El. energy change                    ....  1.000e-05 Eh
 DIIS Error             TolErr          ....  5.000e-07


Diagonalization of the overlap matrix:
Smallest eigenvalue                        ... 1.919e-02
Time for diagonalization                   ...    0.001 sec
Threshold for overlap eigenvalues          ... 1.000e-08
Number of eigenvalues below threshold      ... 0
Time for construction of square roots      ...    0.012 sec
Total time needed                          ...    0.014 sec

-------------------
DFT GRID GENERATION
-------------------

General Integration Accuracy     IntAcc      ...  4.340
Radial Grid Type                 RadialGrid  ... Gauss-Chebyshev
Angular Grid (max. acc.)         AngularGrid ... Lebedev-110
Angular grid pruning method      GridPruning ... 3 (G Style)
Weight generation scheme         WeightScheme... Becke
Basis function cutoff            BFCut       ...    1.0000e-11
Integration weight cutoff        WCut        ...    1.0000e-14
Grids for H and He will be reduced by one unit

# of grid points (after initial pruning)     ...   2912 (   0.0 sec)
# of grid points (after weights+screening)   ...   2912 (   0.0 sec)
Grid point division into batches done        ...    0.0 sec
Reduced shell lists constructed in    0.0 sec

Total number of grid points                  ...     2912
Total number of batches                      ...       46
Average number of points per batch           ...       63
Average number of grid points per atom       ...     2912
Average number of shells per batch           ...     7.33 (40.74%)
Average number of basis functions per batch  ...    26.00 (48.15%)
Average number of large shells per batch     ...     6.00 (81.82%)
Average number of large basis fcns per batch ...    20.67 (79.49%)
Maximum spatial batch extension              ...  14.23, 21.55, 21.55 au
Average spatial batch extension              ...   0.62,  0.94,  0.94 au

Time for grid setup =    0.058 sec

------------------------------
INITIAL GUESS: MODEL POTENTIAL
------------------------------
Loading Hartree-Fock densities                     ... done
Calculating cut-offs                               ... done
Setting up the integral package                    ... done
Initializing the effective Hamiltonian             ... done
Starting the Coulomb interaction                   ... done (   0.0 sec)
Reading the grid                                   ... done
Mapping shells                                     ... done
Starting the XC term evaluation                    ... done (   0.0 sec)
Transforming the Hamiltonian                       ... done (   0.0 sec)
Diagonalizing the Hamiltonian                      ... done (   0.0 sec)
Back transforming the eigenvectors                 ... done (   0.0 sec)
Now organizing SCF variables                       ... done
                      ------------------
                      INITIAL GUESS DONE (   0.2 sec)
                      ------------------
--------------
SCF ITERATIONS
--------------
ITER       Energy         Delta-E        Max-DP      RMS-DP      [F,P]     Damp
               ***  Starting incremental Fock matrix formation  ***
  0  -2234.1549931731   0.000000000000 0.01625632  0.00074253  0.2041438 0.7000
  1  -2234.1682597948  -0.013266621731 0.01740054  0.00056609  0.1190624 0.7000
                               ***Turning on DIIS***
  2  -2234.1763131864  -0.008053391625 0.05214705  0.00146856  0.0683595 0.0000
  3  -2234.4015428625  -0.225229676041 0.01715210  0.00058326  0.0263200 0.0000
  4  -2234.0936105948   0.307932267702 0.00812303  0.00019205  0.0078229 0.0000
  5  -2234.1837829819  -0.090172387181 0.00263534  0.00007075  0.0013912 0.0000
  6  -2234.1955213849  -0.011738403013 0.00100862  0.00003637  0.0005226 0.0000
  7  -2234.1950229974   0.000498387587 0.00045187  0.00001110  0.0001028 0.0000
  8  -2234.1945308951   0.000492102278 0.00013443  0.00000262  0.0000104 0.0000
  9  -2234.1944925704   0.000038324695 0.00003724  0.00000072  0.0000021 0.0000
                            ***DIIS convergence achieved***

               *****************************************************
               *                     SUCCESS                       *
               *           SCF CONVERGED AFTER  10 CYCLES          *
               *****************************************************


----------------
TOTAL SCF ENERGY
----------------

Total Energy       :        -2234.19449674 Eh          -60795.52304 eV

Components:
Nuclear Repulsion  :            0.00000000 Eh               0.00000 eV
Electronic Energy  :        -2234.19449674 Eh          -60795.52304 eV
One Electron Energy:        -3114.74904356 Eh          -84756.63042 eV
Two Electron Energy:          880.55454683 Eh           23961.10738 eV

Virial components:
Potential Energy   :        -4468.33359679 Eh         -121589.53866 eV
Kinetic Energy     :         2234.13910005 Eh           60794.01562 eV
Virial Ratio       :            2.00002480


---------------
SCF CONVERGENCE
---------------

  Last Energy change         ...   -4.1672e-06  Tolerance :   1.0000e-08
  Last MAX-Density change    ...    8.9293e-06  Tolerance :   1.0000e-07
  Last RMS-Density change    ...    1.7325e-07  Tolerance :   5.0000e-09
  Last DIIS Error            ...    4.4794e-07  Tolerance :   5.0000e-07

             **** THE GBW FILE WAS UPDATED (33_As.gbw) ****
             **** DENSITY FILE WAS UPDATED (33_As.scfp) ****
             **** ENERGY FILE WAS UPDATED (33_As.en.tmp) ****
----------------------
UHF SPIN CONTAMINATION
----------------------

Expectation value of <S**2>     :     3.751068
Ideal value S*(S+1) for S=1.5   :     3.750000
Deviation                       :     0.001068

             **** THE GBW FILE WAS UPDATED (33_As.gbw) ****
             **** DENSITY FILE WAS UPDATED (33_As.scfp) ****
----------------
ORBITAL ENERGIES
----------------
                 SPIN UP ORBITALS
  NO   OCC          E(Eh)            E(eV) 
   0   1.0000    -432.587951    -11771.3166 
   1   1.0000     -56.311054     -1532.3017 
   2   1.0000     -50.157415     -1364.8526 
   3   1.0000     -50.157415     -1364.8526 
   4   1.0000     -50.157415     -1364.8526 
   5   1.0000      -8.036169      -218.6753 
   6   1.0000      -5.890584      -160.2909 
   7   1.0000      -5.890584      -160.2909 
   8   1.0000      -5.890584      -160.2909 
   9   1.0000      -2.116323       -57.5881 
  10   1.0000      -2.116323       -57.5881 
  11   1.0000      -2.116323       -57.5881 
  12   1.0000      -2.116323       -57.5881 
  13   1.0000      -2.116323       -57.5881 
  14   1.0000      -0.814625       -22.1671 
  15   1.0000      -0.369314       -10.0495 
  16   1.0000      -0.369314       -10.0495 
  17   1.0000      -0.369314       -10.0495 
  18   0.0000       0.102852         2.7987 
  19   0.0000       0.171148         4.6572 
  20   0.0000       0.171148         4.6572 
  21   0.0000       0.171148         4.6572 
  22   0.0000       0.171148         4.6572 
  23   0.0000       0.171148         4.6572 
  24   0.0000       0.429657        11.6916 
  25   0.0000       0.429657        11.6916 
  26   0.0000       0.429657        11.6916 
  27   0.0000       0.478565        13.0224 
  28   0.0000       0.478565        13.0224 
  29   0.0000       0.478565        13.0224 
  30   0.0000       0.478565        13.0224 
  31   0.0000       0.478565        13.0224 
  32   0.0000       0.701523        19.0894 
  33   0.0000       1.390491        37.8372 
  34   0.0000       1.390491        37.8372 
  35   0.0000       1.390491        37.8372 
  36   0.0000       1.390491        37.8372 
  37   0.0000       1.390491        37.8372 
  38   0.0000       1.403684        38.1962 
  39   0.0000       1.403684        38.1962 
  40   0.0000       1.403684        38.1962 
  41   0.0000       1.403684        38.1962 
  42   0.0000       1.403684        38.1962 
  43   0.0000       1.403684        38.1962 
  44   0.0000       1.403684        38.1962 
  45   0.0000       2.519257        68.5525 
  46   0.0000       2.519257        68.5525 
  47   0.0000       2.519257        68.5525 
  48   0.0000       3.569331        97.1264 
  49   0.0000       3.569331        97.1264 
  50   0.0000       3.569331        97.1264 
  51   0.0000       3.569331        97.1264 
  52   0.0000       3.569331        97.1264 
  53   0.0000       6.128615       166.7681 

                 SPIN DOWN ORBITALS
  NO   OCC          E(Eh)            E(eV) 
   0   1.0000    -432.580054    -11771.1017 
   1   1.0000     -56.308157     -1532.2228 
   2   1.0000     -50.149429     -1364.6353 
   3   1.0000     -50.149429     -1364.6353 
   4   1.0000     -50.149429     -1364.6353 
   5   1.0000      -8.021774      -218.2836 
   6   1.0000      -5.870261      -159.7379 
   7   1.0000      -5.870261      -159.7379 
   8   1.0000      -5.870261      -159.7379 
   9   1.0000      -2.106536       -57.3218 
  10   1.0000      -2.106536       -57.3218 
  11   1.0000      -2.106536       -57.3218 
  12   1.0000      -2.106536       -57.3218 
  13   1.0000      -2.106536       -57.3218 
  14   1.0000      -0.554881       -15.0991 
  15   0.0000       0.050824         1.3830 
  16   0.0000       0.050824         1.3830 
  17   0.0000       0.050824         1.3830 
  18   0.0000       0.124598         3.3905 
  19   0.0000       0.199124         5.4184 
  20   0.0000       0.199124         5.4184 
  21   0.0000       0.199124         5.4184 
  22   0.0000       0.199124         5.4184 
  23   0.0000       0.199124         5.4184 
  24   0.0000       0.512043        13.9334 
  25   0.0000       0.512043        13.9334 
  26   0.0000       0.512043        13.9334 
  27   0.0000       0.564324        15.3560 
  28   0.0000       0.564324        15.3560 
  29   0.0000       0.564324        15.3560 
  30   0.0000       0.564324        15.3560 
  31   0.0000       0.564324        15.3560 
  32   0.0000       0.753441        20.5022 
  33   0.0000       1.458169        39.6788 
  34   0.0000       1.458169        39.6788 
  35   0.0000       1.458169        39.6788 
  36   0.0000       1.458169        39.6788 
  37   0.0000       1.458169        39.6788 
  38   0.0000       1.484981        40.4084 
  39   0.0000       1.484981        40.4084 
  40   0.0000       1.484981        40.4084 
  41   0.0000       1.484981        40.4084 
  42   0.0000       1.484981        40.4084 
  43   0.0000       1.484981        40.4084 
  44   0.0000       1.484981        40.4084 
  45   0.0000       2.571125        69.9639 
  46   0.0000       2.571125        69.9639 
  47   0.0000       2.571125        69.9639 
  48   0.0000       3.599669        97.9520 
  49   0.0000       3.599669        97.9520 
  50   0.0000       3.599669        97.9520 
  51   0.0000       3.599669        97.9520 
  52   0.0000       3.599669        97.9520 
  53   0.0000       6.154980       167.4855 

                    ********************************
                    * MULLIKEN POPULATION ANALYSIS *
                    ********************************

--------------------------------------------
MULLIKEN ATOMIC CHARGES AND SPIN POPULATIONS
--------------------------------------------
   0 As:   -0.000000    3.000000
Sum of atomic charges         :   -0.0000000
Sum of atomic spin populations:    3.0000000

-----------------------------------------------------
MULLIKEN REDUCED ORBITAL CHARGES AND SPIN POPULATIONS
-----------------------------------------------------
CHARGE
  0 Ass       :     8.000000  s :     8.000000
      pz      :     5.000000  p :    15.000000
      px      :     5.000000
      py      :     5.000000
      dz2     :     2.000000  d :    10.000000
      dxz     :     2.000000
      dyz     :     2.000000
      dx2y2   :     2.000000
      dxy     :     2.000000
      f0      :     0.000000  f :     0.000000
      f+1     :     0.000000
      f-1     :     0.000000
      f+2     :     0.000000
      f-2     :     0.000000
      f+3     :     0.000000
      f-3     :     0.000000

SPIN
  0 Ass       :    -0.000000  s :    -0.000000
      pz      :     1.000000  p :     3.000000
      px      :     1.000000
      py      :     1.000000
      dz2     :     0.000000  d :     0.000000
      dxz     :     0.000000
      dyz     :    -0.000000
      dx2y2   :     0.000000
      dxy     :    -0.000000
      f0      :     0.000000  f :     0.000000
      f+1     :     0.000000
      f-1     :     0.000000
      f+2     :     0.000000
      f-2     :    -0.000000
      f+3     :     0.000000
      f-3     :     0.000000


                     *******************************
                     * LOEWDIN POPULATION ANALYSIS *
                     *******************************

-------------------------------------------
LOEWDIN ATOMIC CHARGES AND SPIN POPULATIONS
-------------------------------------------
   0 As:   -0.000000    3.000000

----------------------------------------------------
LOEWDIN REDUCED ORBITAL CHARGES AND SPIN POPULATIONS
----------------------------------------------------
CHARGE
  0 Ass       :     8.000000  s :     8.000000
      pz      :     5.000000  p :    15.000000
      px      :     5.000000
      py      :     5.000000
      dz2     :     2.000000  d :    10.000000
      dxz     :     2.000000
      dyz     :     2.000000
      dx2y2   :     2.000000
      dxy     :     2.000000
      f0      :     0.000000  f :     0.000000
      f+1     :     0.000000
      f-1     :     0.000000
      f+2     :     0.000000
      f-2     :     0.000000
      f+3     :     0.000000
      f-3     :     0.000000

SPIN
  0 Ass       :    -0.000000  s :    -0.000000
      pz      :     1.000000  p :     3.000000
      px      :     1.000000
      py      :     1.000000
      dz2     :     0.000000  d :     0.000000
      dxz     :     0.000000
      dyz     :    -0.000000
      dx2y2   :     0.000000
      dxy     :    -0.000000
      f0      :     0.000000  f :     0.000000
      f+1     :     0.000000
      f-1     :     0.000000
      f+2     :     0.000000
      f-2     :    -0.000000
      f+3     :     0.000000
      f-3     :     0.000000


                      *****************************
                      * MAYER POPULATION ANALYSIS *
                      *****************************

  NA   - Mulliken gross atomic population
  ZA   - Total nuclear charge
  QA   - Mulliken gross atomic charge
  VA   - Mayer's total valence
  BVA  - Mayer's bonded valence
  FA   - Mayer's free valence

  ATOM       NA         ZA         QA         VA         BVA        FA
  0 As    33.0000    33.0000    -0.0000     3.0021     0.0000     3.0021

  Mayer bond orders larger than 0.100000


-------
TIMINGS
-------

Total SCF time: 0 days 0 hours 0 min 2 sec 

Total time                  ....       2.723 sec
Sum of individual times     ....       2.136 sec  ( 78.4%)

Fock matrix formation       ....       1.620 sec  ( 59.5%)
Diagonalization             ....       0.053 sec  (  2.0%)
Density matrix formation    ....       0.005 sec  (  0.2%)
Population analysis         ....       0.068 sec  (  2.5%)
Initial guess               ....       0.114 sec  (  4.2%)
Orbital Transformation      ....       0.000 sec  (  0.0%)
Orbital Orthonormalization  ....       0.000 sec  (  0.0%)
DIIS solution               ....       0.218 sec  (  8.0%)


           ************************************************************
           *        Program running with 24 parallel MPI-processes    *
           *              working on a common directory               *
           ************************************************************


------------------------------------------------------------------------------- 
                              ORCA-MATRIX DRIVEN CI                            
------------------------------------------------------------------------------- 

--------------------------------
AUTOMATIC CHOICE OF INCORE LEVEL
--------------------------------

Memory available                           ...   2500.00 MB
Memory needed for S+T                      ...      1.33 MB
Memory needed for J+K                      ...      2.69 MB
Memory needed for DIIS                     ...     18.69 MB
Memory needed for 3-ext                    ...      3.20 MB
Memory needed for 4-ext                    ...      6.59 MB
Memory needed for triples                  ...      1.78 MB
 -> Final InCoreLevel    ... 5
 -> check shows that triples correction can be computed


Wavefunction type
-----------------
Correlation treatment                      ...      CCSD     
Single excitations                         ... ON
Orbital optimization                       ... OFF
Calculation of Z vector                    ... OFF
Calculation of Brueckner orbitals          ... OFF
Perturbative triple excitations            ... ON
Calculation of F12 correction              ... OFF
Frozen core treatment                      ... chemical core (18 el)
Reference Wavefunction                     ... UHF
  Alpha-MOs occ    :     9 ...   17 (  9 MO's/  9 electrons)
  Beta-MOs occ     :     9 ...   14 (  6 MO's/  6 electrons)
  Alpha-MOs virt   :    18 ...   53 ( 36 MO's              )
  Beta-MOs virt    :    15 ...   53 ( 39 MO's              )
Number of AO's                             ...     54
Number of electrons                        ...     33
Number of correlated electrons             ...     15

Algorithmic settings
--------------------
Integral transformation                    ... AO direct full transformation
K(C) Formation                             ... FULL-MO TRAFO
Maximum number of iterations               ...        50
Convergence tolerance (max. residuum)      ... 1.000e-05
Level shift for amplitude update           ... 2.000e-01
Maximum number of DIIS vectors             ...         7
DIIS turned on at iteration                ...         0
Damping before turning on DIIS             ...     0.500
Damping after turning on DIIS              ...     0.000
Pair specific amplitude update             ... OFF
Natural orbital iterations                 ... OFF
Perturbative natural orbital generation    ... OFF
Printlevel                                 ... 2

Memory handling:
----------------
Maximum memory for working arrays          ...   2500 MB
Data storage in matrix containers          ... UNCOMPRESSED
Data type for integral storage             ... DOUBLE
In-Core Storage of quantities:
   Amplitudes+Sigma Vector      ... YES
   J+K operators                ... YES
   DIIS vectors                 ... YES
   3-external integrals         ... YES
   4-external integrals         ... YES


Initializing the integral package          ... done
Warning: reference  - re-canonicalizations have been set to INT 1 VIRT 1

--------------------------
UNRESTRICTED FOCK OPERATOR
--------------------------

<ss|ss>:          406 b            0 skpd (  0.0%)    0.000 s ( 0.001 ms/b)
<ss|sp>:          980 b            0 skpd (  0.0%)    0.001 s ( 0.001 ms/b)
<ss|sd>:          980 b            0 skpd (  0.0%)    0.001 s ( 0.001 ms/b)
<ss|sf>:          196 b            0 skpd (  0.0%)    0.000 s ( 0.001 ms/b)
<ss|pp>:          420 b            0 skpd (  0.0%)    0.001 s ( 0.002 ms/b)
<ss|pd>:          700 b            0 skpd (  0.0%)    0.001 s ( 0.001 ms/b)
<ss|pf>:          140 b            0 skpd (  0.0%)    0.000 s ( 0.002 ms/b)
<ss|dd>:          420 b            0 skpd (  0.0%)    0.001 s ( 0.002 ms/b)
<ss|df>:          140 b            0 skpd (  0.0%)    0.000 s ( 0.002 ms/b)
<ss|ff>:           28 b            0 skpd (  0.0%)    0.000 s ( 0.005 ms/b)
<sp|sp>:          630 b            0 skpd (  0.0%)    0.001 s ( 0.001 ms/b)
<sp|sd>:         1225 b            0 skpd (  0.0%)    0.001 s ( 0.001 ms/b)
<sp|sf>:          245 b            0 skpd (  0.0%)    0.000 s ( 0.001 ms/b)
<sp|pp>:          525 b            0 skpd (  0.0%)    0.001 s ( 0.002 ms/b)
<sp|pd>:          875 b            0 skpd (  0.0%)    0.002 s ( 0.002 ms/b)
<sp|pf>:          175 b            0 skpd (  0.0%)    0.001 s ( 0.004 ms/b)
<sp|dd>:          525 b            0 skpd (  0.0%)    0.002 s ( 0.004 ms/b)
<sp|df>: done
<sp|ff>: done
<sd|sd>:          630 b            1 skpd (  0.2%)    0.001 s ( 0.001 ms/b)
<sd|sf>:          245 b            0 skpd (  0.0%)    0.001 s ( 0.004 ms/b)
<sd|pp>:          525 b            0 skpd (  0.0%)    0.002 s ( 0.003 ms/b)
<sd|pd>:          875 b           20 skpd (  2.3%)    0.002 s ( 0.003 ms/b)
<sd|pf>: done
<sd|dd>:          525 b            0 skpd (  0.0%)    0.004 s ( 0.007 ms/b)
<sd|df>:          175 b            1 skpd (  0.6%)    0.002 s ( 0.009 ms/b)
<sd|ff>: done
<sf|sf>:           28 b            0 skpd (  0.0%)    0.000 s ( 0.005 ms/b)
<sf|pp>:          105 b            0 skpd (  0.0%)    0.000 s ( 0.004 ms/b)
<sf|pd>: done
<sf|pf>: done
<sf|dd>:          105 b            0 skpd (  0.0%)    0.001 s ( 0.009 ms/b)
<sf|df>: done
<sf|ff>: done
<pp|pp>:          120 b            0 skpd (  0.0%)    0.001 s ( 0.010 ms/b)
<pp|pd>:          375 b            0 skpd (  0.0%)    0.002 s ( 0.005 ms/b)
<pp|pf>:           75 b            0 skpd (  0.0%)    0.001 s ( 0.015 ms/b)
<pp|dd>:          225 b            0 skpd (  0.0%)    0.003 s ( 0.012 ms/b)
<pp|df>:           75 b            0 skpd (  0.0%)    0.001 s ( 0.015 ms/b)
<pp|ff>:           15 b            0 skpd (  0.0%)    0.001 s ( 0.037 ms/b)
<pd|pd>:          325 b            0 skpd (  0.0%)    0.003 s ( 0.010 ms/b)
<pd|pf>:          125 b            0 skpd (  0.0%)    0.002 s ( 0.015 ms/b)
<pd|dd>:          375 b            0 skpd (  0.0%)    0.006 s ( 0.017 ms/b)
<pd|df>:          125 b            0 skpd (  0.0%)    0.003 s ( 0.023 ms/b)
<pd|ff>: done
<pf|pf>:           15 b            0 skpd (  0.0%)    0.000 s ( 0.014 ms/b)
<pf|dd>:           75 b            0 skpd (  0.0%)    0.001 s ( 0.019 ms/b)
<pf|df>: done
<pf|ff>: done
<dd|dd>:          120 b            0 skpd (  0.0%)    0.006 s ( 0.050 ms/b)
<dd|df>:           75 b            0 skpd (  0.0%)    0.003 s ( 0.038 ms/b)
<dd|ff>:           15 b            0 skpd (  0.0%)    0.002 s ( 0.108 ms/b)
<df|df>:           15 b            0 skpd (  0.0%)    0.001 s ( 0.035 ms/b)
<df|ff>: done
<ff|ff>: done
Recanonicalizing the internal orbitals
Recanonicalizing the virtual orbitals
Time needed for Fock operator              ...            0.202 sec
Reference energy                           ...  -2234.194503050
Warning: for UHF the TrafoType has to be JK
Warning: for UHF the K(C)-option cannot be MO but must be AOX

-------------------------------
PARTIAL EXCHANGE TRANSFORMATION
-------------------------------

Transformation type                        ... two-operators
Generation of integrals (i,mue|j,nue)      ... ON
Generation of integrals (mue,kappa|nue,tau)... ON
Generation of integrals (i,mue|a,nue)      ... ON
Dimension of the basis                     ...   54
Number of internal alpha-MOs               ...    9 (   9-  17)
Number of internal beta-MOs                ...    6 (   9-  14)
Number of external alpha-MOs               ...   36 (  18-  53)
Number of external beta-MOs                ...   39 (  15-  53)
Pair cutoff                                ... 0.000e+00 Eh
Number of AO pairs in the trafo            ... 1485
Total Number of distinct AO pairs          ... 1485
Memory devoted for trafo                   ... 2500.0 MB 
Max. Number of MO pairs treated together   ... 112373      
Number Format for Storage                  ... Double (8 Byte)
Integral package used                      ... LIBINT

Starting integral evaluation:
    ... done with AO integral generation
Closing buffer AOK[aa] ( 0.00 GB; CompressionRatio= 0.00)
Closing buffer AOK[bb] ( 0.00 GB; CompressionRatio= 0.00)
Closing buffer AOK[ab] ( 0.00 GB; CompressionRatio= 0.00)
Closing buffer AOK[ba] ( 0.00 GB; CompressionRatio= 0.00)
Collecting buffer AOK 
Closing buffer IAAO1[aa] ( 0.00 GB; CompressionRatio= 0.00)
Closing buffer IAAO1[bb] ( 0.00 GB; CompressionRatio= 0.00)
Closing buffer IAAO1[ab] ( 0.00 GB; CompressionRatio= 0.00)
Closing buffer IAAO1[ba] ( 0.00 GB; CompressionRatio= 0.00)
Closing buffer IAAO2[aa] ( 0.00 GB; CompressionRatio= 0.00)
Closing buffer IAAO2[bb] ( 0.00 GB; CompressionRatio= 0.00)
Closing buffer IAAO2[ab] ( 0.00 GB; CompressionRatio= 0.00)
Closing buffer IAAO2[ba] ( 0.00 GB; CompressionRatio= 0.00)
Collecting buffer IAAO 
Closing buffer PRQS    ( 0.00 GB; CompressionRatio= 0.00)
Collecting buffer PRQS 
Number of alpha/alpha MO pairs in trafo    ...   45
Number of beta /beta  MO pairs in trafo    ...   21
Number of alpha/ beta MO pairs in trafo    ...   54
------------------------
SORTING OF (i,mue|j,nue)
------------------------

SORTING OF ALPHA/ALPHA PAIRS
IBATCH = 1 of  1
Closing buffer KAO[aa] ( 0.00 GB; CompressionRatio= 1.00)
Collecting buffer KAO 
SORTING OF BETA /BETA  PAIRS
IBATCH = 1 of  1
Closing buffer KAO[bb] ( 0.00 GB; CompressionRatio= 1.00)
Collecting buffer KAO 
SORTING OF ALPHA/BETA  PAIRS
IBATCH = 1 of  1
Closing buffer KAO[ab] ( 0.00 GB; CompressionRatio= 0.999485861183)
Collecting buffer KAO[ab] 
------------------------
SORTING OF (i,mue|a,nue)
------------------------

Number of alpha/alpha (i,a) pairs in trafo  ...  324
Number of beta /beta  (i,a) pairs in trafo  ...  234
Number of alpha/ beta (i,a) pairs in trafo  ...  351
Number of beta /alpha (i,a) pairs in trafo  ...  216
Setting up the alpha/alpha list             ... done
Setting up the beta /beta  list             ... done
Setting up the alpha/beta  list             ... done
Setting up the beta /alpha list             ... done
    ... Now sorting (i,mue|a,nue)integrals
    ... Integrals (i,b|a,c) will be made on the fly
SORTING OF ALPHA/ALPHA PAIRS
IBATCH = 1 of  1
Closing buffer IPAQ[aa]  0.00 GB; CompressionRatio= 1.00)
SORTING OF BETA /BETA  PAIRS
IBATCH = 1 of  1
Closing buffer IPAQ[bb]( 0.00 GB; CompressionRatio= 1.00)
SORTING OF ALPHA/BETA  PAIRS (NMatSort_ab=15)
IBATCH = 1 of  1
Closing buffer IPAQ[ab]( 0.00 GB; CompressionRatio= 1.00)
SORTING OF BETA/ALPHA  PAIRS
IBATCH = 1 of  1
Closing buffer IPAQ[ba]( 0.00 GB; CompressionRatio= 1.00)
N(AO-Batches) Done                         ...         0 
N(AO-Batches) Skipped                      ...         0 
N(IJ)-pairs Skipped                        ...         0 
TOTAL TIME for half transformation         ...     2.836 sec
AO-integral generation                     ...     0.000 sec
Half transformation                        ...     0.000 sec
K-integral sorting                         ...     0.761 sec
<ss|**>: 
------------------------------
PARTIAL COULOMB TRANSFORMATION
------------------------------

Transformation type                        ... two-operators
Dimension of the basis                     ...   54
Number of internal alpha-MOs               ...    9 (9-17)
Number of internal beta-MOs                ...    6 (9-14)
Pair cutoff                                ... 0.000e+00 Eh
Number of AO pairs included in the trafo   ... 1485
Total Number of distinct AO pairs          ... 1485
Memory devoted for trafo                   ... 2500.0 MB 
Max. Number of MO pairs treated together   ... 220659      
Max. Number of MOs treated per batch       ... 4086      
Number Format for Storage                  ... Double (8 Byte)
AO-integral source                         ... DIRECT
Integral package used                      ... LIBINT

Starting integral evaluation:
<sp|**>:         4788 b        0 skpd     0.006 s (  0.001 ms/b)
        5985 b        0 skpd     0.015 s (  0.003 ms/b)
<sd|**>:         5985 b        0 skpd     0.028 s (  0.005 ms/b)
<sf|**>:         1197 b        0 skpd     0.015 s (  0.012 ms/b)
<pp|**>:         2565 b        0 skpd     0.020 s (  0.008 ms/b)
<pd|**>:         4275 b        0 skpd     0.072 s (  0.017 ms/b)
<pf|**>:          855 b        0 skpd     0.025 s (  0.029 ms/b)
<dd|**>:         2565 b        0 skpd     0.054 s (  0.021 ms/b)
<df|**>:          855 b        0 skpd     0.045 s (  0.053 ms/b)
<ff|**>:          171 b        0 skpd     0.020 s (  0.114 ms/b)
Closing buffer AOJ[aa] ( 0.00 GB; CompressionRatio= 0.97)
Closing buffer AOJ[bb] ( 0.00 GB; CompressionRatio= 0.00)
Collecting buffer AOJ 
    ... done with AO integral generation
Number of Alpha-MO pairs included          ...   45
Number of Beta-MO pairs included           ...   21
    ... Now sorting integrals
SORTING ALPHA/ALPHA PAIRS
IBATCH = 1 of  1
Closing buffer JAO[aa] ( 0.00 GB; CompressionRatio= 1.00)
SORTING BETA/BETA PAIRS
IBATCH = 1 of  1
Closing buffer JAO[bb] ( 0.00 GB; CompressionRatio= 1.00)
Collecting buffer JAO 
TOTAL TIME for half transformation         ...     0.452 sec
AO-integral generation                     ...     0.156 sec
Half transformation                        ...     0.145 sec
J-integral sorting                         ...     0.112 sec

-------------------------- SECOND HALF TRANSFORMATION -------------------------
Formation of (ij|kl),(ij|ka), (ij|ab)      ... ok (     0.132 sec)
Formation of (ik|jl),(ik|ja), (ia|jb)      ... ok (     0.219 sec)


-----------------------
SPIN UNRESTRICTED GUESS
-----------------------

Entering MDCI_UHF_Guess, Tailored=0
Spin-components of the MP2 energy:
EMP2(aa)=     -0.046811563
EMP2(bb)=     -0.020214291
EMP2(ab)=     -0.129970224

Initial guess performed in     0.007 sec
E(0)                                       ...  -2234.194503050
E(MP2)                                     ...     -0.196996078
Initial E(tot)                             ...  -2234.391499128
<T|T>                                      ...      0.053250431
Number of pairs included                   ... 105

------------------------------------------------
                  UHF COUPLED CLUSTER ITERATIONS
------------------------------------------------

Number of amplitudes to be optimized       ...       110823

Iter       E(tot)           E(Corr)          Delta-E          Residual     Time      <S|S>**1/2
  0  -2234.391499128     -0.196996078      0.000000000      0.019660734    0.16      0.000000138
                           *** Turning on DIIS ***
  1  -2234.390579274     -0.196076223      0.000919854      0.004168646    0.14      0.020278635
  2  -2234.395640437     -0.201137386     -0.005061163      0.001526844    0.14      0.021506597
  3  -2234.397047151     -0.202544101     -0.001406715      0.000255212    0.14      0.023735182
  4  -2234.397162989     -0.202659939     -0.000115838      0.000074683    0.13      0.024013746
  5  -2234.397168633     -0.202665582     -0.000005643      0.000029680    0.14      0.024053977
  6  -2234.397171979     -0.202668929     -0.000003347      0.000012945    0.14      0.024052104
  7  -2234.397171911     -0.202668861      0.000000068      0.000004802    0.14      0.024048301
               --- The Coupled-Cluster iterations have converged ---

----------------------
COUPLED CLUSTER ENERGY
----------------------

E(0)                                       ...  -2234.194503050
E(CORR)                                    ...     -0.202668861
E(TOT)                                     ...  -2234.397171911
Singles norm <S|S>**1/2                    ...      0.024048301 ( 0.015270613, 0.008777688)  
T1 diagnostic                              ...      0.006209245                              

------------------
LARGEST AMPLITUDES
------------------
  15a-> 28a  14b-> 15b       0.033428
  17a-> 31a  14b-> 15b       0.032934
  15a-> 30a  14b-> 17b       0.028638
  16a-> 29a  14b-> 15b       0.028396
  17a-> 29a  14b-> 16b       0.027600
  15a-> 27a  14b-> 16b       0.026278
  16a-> 27a  14b-> 17b       0.025765
  17a-> 28a  14b-> 17b       0.025154
  17a-> 29a  14b-> 17b       0.024789
  15a-> 27a  14b-> 17b       0.024766
  16a-> 31a  14b-> 17b       0.024121
  17a-> 20a  14b-> 16b       0.023561
  17a-> 29a  16a-> 31a       0.023379
  17a-> 31a  16a-> 29a       0.023379
  15a-> 19a  14b-> 15b       0.023020
  16a-> 30a  15a-> 27a       0.022156

----------------------
UHF TRIPLES CORRECTION (Algorithm 1)
----------------------

Multiplier for the singles contribution    ...      1.000000000

SPIN-CASE Alpha-Alpha-Alpha:
10% done
20% done
30% done
40% done
50% done
60% done
70% done
80% done
90% done


SPIN-CASE Beta-Beta-Beta:
10% done
20% done
30% done
40% done
50% done
60% done
70% done
80% done
90% done


SPIN-CASE Alpha-Alpha-Beta:
10% done
20% done
30% done
40% done
50% done
60% done
70% done
80% done
90% done


SPIN-CASE Beta-Beta-Alpha:
10% done
20% done
30% done
40% done
50% done
60% done
70% done
80% done
90% done


Triples Correction (T)                     ...     -0.006356456
    alpha-alpha-alpha ... -0.000489843 (  7.7%)
    alpha-alpha-beta  ... -0.004305526 ( 67.7%)
    alpha-beta -beta  ... -0.001445275 ( 22.7%)
    beta -beta -beta  ... -0.000115812 (  1.8%)
Scaling of triples based on CCSD energies (Peterson et al. Molecular Physics 113, 1551 (2015))
E(T*) = f*E(T) where f = E(F12-CCSD)/E(CCSD) 
f = CCSD (with F12)/ CCSD (without F12)    ...      1.000000000
Scaled triples correction (T)              ...     -0.006356456

Final correlation energy                   ...     -0.209025317
E(CCSD)                                    ...  -2234.397171911
E(CCSD(T))                                 ...  -2234.403528367



        !!!!!!!!!!!!!!!!!!!!!!!!!!!!!!!!!!!!!!!!!!!!!!!!!!!!!!!!!!!!!!!!!!!!!!!!!! 
        !  Warning: Densities are linearized densities                           !
        !!!!!!!!!!!!!!!!!!!!!!!!!!!!!!!!!!!!!!!!!!!!!!!!!!!!!!!!!!!!!!!!!!!!!!!!!! 

NORM  =      1.069215404 sqrt=     1.034028725
W(HF) =      0.935265239
------------------------------------------------------------------------------
                           ORCA POPULATION ANALYSIS
------------------------------------------------------------------------------
Input electron density              ... 33_As.mdcip
Input spin density                  ... 33_As.mdcir
BaseName (.gbw .S,...)              ... 33_As

                    ********************************
                    * MULLIKEN POPULATION ANALYSIS *
                    ********************************

------------------------------------------
MULLIKEN ATOMIC CHARGES AND SPIN DENSITIES
------------------------------------------
   0 As:   -0.000000    3.000000
Sum of atomic charges       :   -0.0000000
Sum of atomic spin densities:    3.0000000

---------------------------------------------------
MULLIKEN REDUCED ORBITAL CHARGES AND SPIN DENSITIES
---------------------------------------------------
CHARGE
  0 Ass       :     7.953874  s :     7.953874
      pz      :     4.995939  p :    14.987816
      px      :     4.995939
      py      :     4.995939
      dz2     :     2.010374  d :    10.051871
      dxz     :     2.010374
      dyz     :     2.010374
      dx2y2   :     2.010374
      dxy     :     2.010374
      f0      :     0.000920  f :     0.006440
      f+1     :     0.000920
      f-1     :     0.000920
      f+2     :     0.000920
      f-2     :     0.000920
      f+3     :     0.000920
      f-3     :     0.000920

SPIN
  0 Ass       :     0.034390  s :     0.034390
      pz      :     0.971798  p :     2.915394
      px      :     0.971798
      py      :     0.971798
      dz2     :     0.009672  d :     0.048359
      dxz     :     0.009672
      dyz     :     0.009672
      dx2y2   :     0.009672
      dxy     :     0.009672
      f0      :     0.000265  f :     0.001856
      f+1     :     0.000265
      f-1     :     0.000265
      f+2     :     0.000265
      f-2     :     0.000265
      f+3     :     0.000265
      f-3     :     0.000265


                     *******************************
                     * LOEWDIN POPULATION ANALYSIS *
                     *******************************

-----------------------------------------
LOEWDIN ATOMIC CHARGES AND SPIN DENSITIES
-----------------------------------------
   0 As:   -0.000000    3.000000

--------------------------------------------------
LOEWDIN REDUCED ORBITAL CHARGES AND SPIN DENSITIES
--------------------------------------------------
CHARGE
  0 Ass       :     7.953874  s :     7.953874
      pz      :     4.995939  p :    14.987816
      px      :     4.995939
      py      :     4.995939
      dz2     :     2.010374  d :    10.051871
      dxz     :     2.010374
      dyz     :     2.010374
      dx2y2   :     2.010374
      dxy     :     2.010374
      f0      :     0.000920  f :     0.006440
      f+1     :     0.000920
      f-1     :     0.000920
      f+2     :     0.000920
      f-2     :     0.000920
      f+3     :     0.000920
      f-3     :     0.000920

SPIN
  0 Ass       :     0.034390  s :     0.034390
      pz      :     0.971798  p :     2.915394
      px      :     0.971798
      py      :     0.971798
      dz2     :     0.009672  d :     0.048359
      dxz     :     0.009672
      dyz     :     0.009672
      dx2y2   :     0.009672
      dxy     :     0.009672
      f0      :     0.000265  f :     0.001856
      f+1     :     0.000265
      f-1     :     0.000265
      f+2     :     0.000265
      f-2     :     0.000265
      f+3     :     0.000265
      f-3     :     0.000265


                      *****************************
                      * MAYER POPULATION ANALYSIS *
                      *****************************

  NA   - Mulliken gross atomic population
  ZA   - Total nuclear charge
  QA   - Mulliken gross atomic charge
  VA   - Mayer's total valence
  BVA  - Mayer's bonded valence
  FA   - Mayer's free valence

  ATOM       NA         ZA         QA         VA         BVA        FA
  0 As    33.0000    33.0000    -0.0000     3.3578     0.0000     3.3578





------------------------------------------------------------------------------- 
                                     TIMINGS                                   
------------------------------------------------------------------------------- 


Total execution time                   ...        5.592 sec

Fock Matrix Formation                  ...        0.202 sec (  3.6%)
Initial Guess                          ...        0.007 sec (  0.1%)
DIIS Solver                            ...        0.068 sec (  1.2%)
State Vector Update                    ...        0.005 sec (  0.1%)
Sigma-vector construction              ...        1.059 sec ( 18.9%)
  <D|H|D>(0-ext Fock)                  ...        0.001 sec (  0.1% of sigma)
  <D|H|D>(0-ext)                       ...        0.003 sec (  0.3% of sigma)
  <D|H|D>(2-ext)                       ...        0.013 sec (  1.2% of sigma)
  <D|H|D>(4-ext)                       ...        0.378 sec ( 35.7% of sigma)
  <S|H|0>                              ...        0.025 sec (  2.3% of sigma)
  <D|H|S>(1-ext)                       ...        0.007 sec (  0.6% of sigma)
  Fock-dressing                        ...        0.366 sec ( 34.5% of sigma)
  (ik|jl)-dressing                     ...        0.005 sec (  0.4% of sigma)
  (ij|ab),(ia|jb)-dressing             ...        0.192 sec ( 18.1% of sigma)
Total Time for computing (T)           ...        0.052 sec (  0.9% of ALL)
  I/O of integral and amplitudes       ...        0.012 sec ( 23.3% of (T))
  External N**7 contributions          ...        0.012 sec ( 23.3% of (T))
  Internal N**7 contributions          ...        0.004 sec (  7.8% of (T))
  N**6 triples energy contributions    ...        0.021 sec ( 41.4% of (T))


-------------------------   --------------------
FINAL SINGLE POINT ENERGY     -2234.403528367153
-------------------------   --------------------


                            ***************************************
                            *     ORCA property calculations      *
                            ***************************************

                                    ---------------------
                                    Active property flags
                                    ---------------------
   (+) Dipole Moment


------------------------------------------------------------------------------
                       ORCA ELECTRIC PROPERTIES CALCULATION
------------------------------------------------------------------------------

Dipole Moment Calculation                       ... on
Quadrupole Moment Calculation                   ... off
Polarizability Calculation                      ... off
GBWName                                         ... 33_As.gbw
Electron density file                           ... 33_As.scfp
The origin for moment calculation is the CENTER OF MASS  = ( 0.000000,  0.000000  0.000000)

-------------
DIPOLE MOMENT
-------------
                                X             Y             Z
Electronic contribution:     -0.00000       0.00000      -0.00000
Nuclear contribution   :      0.00000       0.00000       0.00000
                        -----------------------------------------
Total Dipole Moment    :     -0.00000       0.00000      -0.00000
                        -----------------------------------------
Magnitude (a.u.)       :      0.00000
Magnitude (Debye)      :      0.00000



--------------------
Rotational spectrum 
--------------------
 
Rotational constants in cm-1:     0.000000     0.000000     0.000000 
Rotational constants in MHz :     0.000000     0.000000     0.000000 

 Dipole components along the rotational axes: 
x,y,z [a.u.] :    -0.000000     0.000000    -0.000000 
x,y,z [Debye]:    -0.000000     0.000000    -0.000000 

 

                           *** MDCI DENSITY ***

------------------------------------------------------------------------------
                       ORCA ELECTRIC PROPERTIES CALCULATION
------------------------------------------------------------------------------

Dipole Moment Calculation                       ... on
Quadrupole Moment Calculation                   ... off
Polarizability Calculation                      ... off
GBWName                                         ... 33_As.gbw
Electron density file                           ... 33_As.mdcip
The origin for moment calculation is the CENTER OF MASS  = ( 0.000000,  0.000000  0.000000)

-------------
DIPOLE MOMENT
-------------
                                X             Y             Z
Electronic contribution:      0.00000      -0.00000       0.00000
Nuclear contribution   :      0.00000       0.00000       0.00000
                        -----------------------------------------
Total Dipole Moment    :      0.00000      -0.00000       0.00000
                        -----------------------------------------
Magnitude (a.u.)       :      0.00000
Magnitude (Debye)      :      0.00000



--------------------
Rotational spectrum 
--------------------
 
Rotational constants in cm-1:     0.000000     0.000000     0.000000 
Rotational constants in MHz :     0.000000     0.000000     0.000000 

 Dipole components along the rotational axes: 
x,y,z [a.u.] :     0.000000    -0.000000     0.000000 
x,y,z [Debye]:     0.000000    -0.000000     0.000000 

 

Timings for individual modules:

Sum of individual times         ...        9.980 sec (=   0.166 min)
GTO integral calculation        ...        0.814 sec (=   0.014 min)   8.2 %
SCF iterations                  ...        3.130 sec (=   0.052 min)  31.4 %
MDCI module                     ...        6.036 sec (=   0.101 min)  60.5 %
                             ****ORCA TERMINATED NORMALLY****
TOTAL RUN TIME: 0 days 0 hours 0 minutes 10 seconds 762 msec
