
                                 *****************
                                 * O   R   C   A *
                                 *****************

           --- An Ab Initio, DFT and Semiempirical electronic structure package ---

                  #######################################################
                  #                        -***-                        #
                  #          Department of theory and spectroscopy      #
                  #               Directorship: Frank Neese             #
                  #        Max Planck Institute fuer Kohlenforschung    #
                  #                Kaiser Wilhelm Platz 1               #
                  #                 D-45470 Muelheim/Ruhr               #
                  #                      Germany                        #
                  #                                                     #
                  #                  All rights reserved                #
                  #                        -***-                        #
                  #######################################################


                         Program Version 4.2.0 -  RELEASE  -


 With contributions from (in alphabetic order):
   Daniel Aravena         : Magnetic Suceptibility
   Michael Atanasov       : Ab Initio Ligand Field Theory (pilot matlab implementation)
   Alexander A. Auer      : GIAO ZORA, VPT2
   Ute Becker             : Parallelization
   Giovanni Bistoni       : ED, misc. LED, open-shell LED, HFLED
   Martin Brehm           : Molecular dynamics
   Dmytro Bykov           : SCF Hessian
   Vijay G. Chilkuri      : MRCI spin determinant printing, contributions to CSF-ICE
   Dipayan Datta          : RHF DLPNO-CCSD density
   Achintya Kumar Dutta   : EOM-CC, STEOM-CC
   Dmitry Ganyushin       : Spin-Orbit,Spin-Spin,Magnetic field MRCI
   Miquel Garcia          : C-PCM Hessian, Gaussian charge scheme
   Yang Guo               : DLPNO-NEVPT2, CIM, IAO-localization
   Andreas Hansen         : Spin unrestricted coupled pair/coupled cluster methods
   Benjamin Helmich-Paris : CASSCF linear response (MC-RPA)
   Lee Huntington         : MR-EOM, pCC
   Robert Izsak           : Overlap fitted RIJCOSX, COSX-SCS-MP3, EOM
   Christian Kollmar      : KDIIS, OOCD, Brueckner-CCSD(T), CCSD density
   Simone Kossmann        : Meta GGA functionals, TD-DFT gradient, OOMP2, MP2 Hessian
   Martin Krupicka        : AUTO-CI
   Lucas Lang             : DCDCAS
   Dagmar Lenk            : GEPOL surface, SMD
   Dimitrios Liakos       : Extrapolation schemes; Compound Job, initial MDCI parallelization
   Dimitrios Manganas     : Further ROCIS development; embedding schemes
   Dimitrios Pantazis     : SARC Basis sets
   Taras Petrenko         : DFT Hessian,TD-DFT gradient, ASA, ECA, R-Raman, ABS, FL, XAS/XES, NRVS
   Peter Pinski           : DLPNO-MP2, DLPNO-MP2 Gradient
   Christoph Reimann      : Effective Core Potentials
   Marius Retegan         : Local ZFS, SOC
   Christoph Riplinger    : Optimizer, TS searches, QM/MM, DLPNO-CCSD(T), (RO)-DLPNO pert. Triples
   Tobias Risthaus        : Range-separated hybrids, TD-DFT gradient, RPA, STAB
   Michael Roemelt        : Original ROCIS implementation
   Masaaki Saitow         : Open-shell DLPNO-CCSD energy and density
   Barbara Sandhoefer     : DKH picture change effects
   Avijit Sen             : IP-ROCIS
   Kantharuban Sivalingam : CASSCF convergence, NEVPT2, FIC-MRCI
   Bernardo de Souza      : ESD, SOC TD-DFT
   Georgi Stoychev        : AutoAux, RI-MP2 NMR
   Willem Van den Heuvel  : Paramagnetic NMR
   Boris Wezisla          : Elementary symmetry handling
   Frank Wennmohs         : Technical directorship


 We gratefully acknowledge several colleagues who have allowed us to
 interface, adapt or use parts of their codes:
   Stefan Grimme, W. Hujo, H. Kruse,             : VdW corrections, initial TS optimization,
                  C. Bannwarth                     DFT functionals, gCP, sTDA/sTD-DF
   Ed Valeev, F. Pavosevic, A. Kumar             : LibInt (2-el integral package), F12 methods
   Garnet Chan, S. Sharma, J. Yang, R. Olivares  : DMRG
   Ulf Ekstrom                                   : XCFun DFT Library
   Mihaly Kallay                                 : mrcc  (arbitrary order and MRCC methods)
   Andreas Klamt, Michael Diedenhofen            : otool_cosmo (COSMO solvation model)
   Jiri Pittner, Ondrej Demel                    : Mk-CCSD
   Frank Weinhold                                : gennbo (NPA and NBO analysis)
   Christopher J. Cramer and Donald G. Truhlar   : smd solvation model
   Lars Goerigk                                  : TD-DFT with DH, B97 family of functionals
   V. Asgeirsson, H. Jonsson                     : NEB implementation
   FAccTs GmbH                                   : IRC, NEB, NEB-TS, Multilevel, MM, QM/MM, CI optimization
   S Lehtola, MJT Oliveira, MAL Marques          : LibXC Library


 Your calculation uses the libint2 library for the computation of 2-el integrals
 For citations please refer to: http://libint.valeyev.net

 Your ORCA version has been built with support for libXC version: 4.2.3
 For citations please refer to: https://tddft.org/programs/libxc/

 This ORCA versions uses:
   CBLAS   interface :  Fast vector & matrix operations
   LAPACKE interface :  Fast linear algebra routines
   SCALAPACK package :  Parallel linear algebra routines


----- Orbital basis set information -----
Your calculation utilizes the basis: def2-TZVPPD
   F. Weigend and R. Ahlrichs, Phys. Chem. Chem. Phys. 7, 3297 (2005).
   D. Rappoport and F. Furche, J. Chem. Phys. 133 134105 (2010).

================================================================================
                                        WARNINGS
                       Please study these warnings very carefully!
================================================================================


WARNING: your system is open-shell and RHF/RKS was chosen
  ===> : WILL SWITCH to UHF/UKS


WARNING: MDCI localization with Augmented Hessian Foster-Boys
  ===> : Switching off randomization!

WARNING: Post HF methods need fully converged wavefunctions
  ===> : Setting SCFConvForced true
         You can overwrite this default with %scf ConvForced false 


INFO   : the flag for use of LIBINT has been found!

================================================================================
                                       INPUT FILE
================================================================================
NAME = 34_Se.in
|  1> #
|  2> # 34_Se CCSD(T)/Def2-TZVPPD
|  3> #
|  4> ! CCSD(T) Def2-TZVPPD tightscf
|  5> 
|  6> *xyz 0 3
|  7>  Se 0.0 0.0 0.0
|  8> *
|  9> 
| 10> %maxcore 5000 
| 11> 
| 12> %pal
| 13> nprocs 24
| 14> end
| 15> 
| 16> 
| 17>                          ****END OF INPUT****
================================================================================

                       ****************************
                       * Single Point Calculation *
                       ****************************

---------------------------------
CARTESIAN COORDINATES (ANGSTROEM)
---------------------------------
  Se     0.000000    0.000000    0.000000

----------------------------
CARTESIAN COORDINATES (A.U.)
----------------------------
  NO LB      ZA    FRAG     MASS         X           Y           Z
   0 Se   34.0000    0    78.960    0.000000    0.000000    0.000000

--------------------------------
INTERNAL COORDINATES (ANGSTROEM)
--------------------------------
 Se     0   0   0     0.000000000000     0.00000000     0.00000000

---------------------------
INTERNAL COORDINATES (A.U.)
---------------------------
 Se     0   0   0     0.000000000000     0.00000000     0.00000000

---------------------
BASIS SET INFORMATION
---------------------
There are 1 groups of distinct atoms

 Group   1 Type Se  : 18s14p9d1f contracted to 7s6p5d1f pattern {8421111/641111/51111/1}

Atom   0Se   basis set group =>   1


           ************************************************************
           *        Program running with 24 parallel MPI-processes    *
           *              working on a common directory               *
           ************************************************************
------------------------------------------------------------------------------
                           ORCA GTO INTEGRAL CALCULATION
------------------------------------------------------------------------------

                         BASIS SET STATISTICS AND STARTUP INFO

 # of primitive gaussian shells          ...   42
 # of primitive gaussian functions       ...  112
 # of contracted shells                  ...   19
 # of contracted basis functions         ...   57
 Highest angular momentum                ...    3
 Maximum contraction depth               ...    8
 Integral package used                   ... LIBINT
 Integral threshhold            Thresh   ...  2.500e-11
 Primitive cut-off              TCut     ...  2.500e-12


------------------------------ INTEGRAL EVALUATION ----------------------------


 * One electron integrals 
 Pre-screening matrix                    ... done
 Shell pair data                         ... done (   0.000 sec)



           ************************************************************
           *        Program running with 24 parallel MPI-processes    *
           *              working on a common directory               *
           ************************************************************
-------------------------------------------------------------------------------
                                 ORCA SCF
-------------------------------------------------------------------------------

------------
SCF SETTINGS
------------
Hamiltonian:
 Ab initio Hamiltonian  Method          .... Hartree-Fock(GTOs)


General Settings:
 Integral files         IntName         .... 34_Se
 Hartree-Fock type      HFTyp           .... UHF
 Total Charge           Charge          ....    0
 Multiplicity           Mult            ....    3
 Number of Electrons    NEL             ....   34
 Basis Dimension        Dim             ....   57
 Nuclear Repulsion      ENuc            ....      0.0000000000 Eh

Convergence Acceleration:
 DIIS                   CNVDIIS         .... on
   Start iteration      DIISMaxIt       ....    12
   Startup error        DIISStart       ....  0.200000
   # of expansion vecs  DIISMaxEq       ....     5
   Bias factor          DIISBfac        ....   1.050
   Max. coefficient     DIISMaxC        ....  10.000
 Newton-Raphson         CNVNR           .... off
 SOSCF                  CNVSOSCF        .... off
 Level Shifting         CNVShift        .... on
   Level shift para.    LevelShift      ....    0.2500
   Turn off err/grad.   ShiftErr        ....    0.0010
 Zerner damping         CNVZerner       .... off
 Static damping         CNVDamp         .... on
   Fraction old density DampFac         ....    0.7000
   Max. Damping (<1)    DampMax         ....    0.9800
   Min. Damping (>=0)   DampMin         ....    0.0000
   Turn off err/grad.   DampErr         ....    0.1000
 Fernandez-Rico         CNVRico         .... off

SCF Procedure:
 Maximum # iterations   MaxIter         ....   125
 SCF integral mode      SCFMode         .... Direct
   Integral package                     .... LIBINT
 Reset frequency        DirectResetFreq ....    20
 Integral Threshold     Thresh          ....  2.500e-11 Eh
 Primitive CutOff       TCut            ....  2.500e-12 Eh

Convergence Tolerance:
 Convergence Check Mode ConvCheckMode   .... Total+1el-Energy
 Convergence forced     ConvForced      .... 1
 Energy Change          TolE            ....  1.000e-08 Eh
 1-El. energy change                    ....  1.000e-05 Eh
 DIIS Error             TolErr          ....  5.000e-07


Diagonalization of the overlap matrix:
Smallest eigenvalue                        ... 2.191e-02
Time for diagonalization                   ...    0.002 sec
Threshold for overlap eigenvalues          ... 1.000e-08
Number of eigenvalues below threshold      ... 0
Time for construction of square roots      ...    0.012 sec
Total time needed                          ...    0.014 sec

-------------------
DFT GRID GENERATION
-------------------

General Integration Accuracy     IntAcc      ...  4.340
Radial Grid Type                 RadialGrid  ... Gauss-Chebyshev
Angular Grid (max. acc.)         AngularGrid ... Lebedev-110
Angular grid pruning method      GridPruning ... 3 (G Style)
Weight generation scheme         WeightScheme... Becke
Basis function cutoff            BFCut       ...    1.0000e-11
Integration weight cutoff        WCut        ...    1.0000e-14
Grids for H and He will be reduced by one unit

# of grid points (after initial pruning)     ...   2950 (   0.0 sec)
# of grid points (after weights+screening)   ...   2950 (   0.0 sec)
Grid point division into batches done        ...    0.0 sec
Reduced shell lists constructed in    0.0 sec

Total number of grid points                  ...     2950
Total number of batches                      ...       47
Average number of points per batch           ...       62
Average number of grid points per atom       ...     2950
Average number of shells per batch           ...     8.00 (42.11%)
Average number of basis functions per batch  ...    28.00 (49.12%)
Average number of large shells per batch     ...     7.33 (91.67%)
Average number of large basis fcns per batch ...    24.67 (88.10%)
Maximum spatial batch extension              ...  14.66, 21.55, 21.55 au
Average spatial batch extension              ...   0.62,  0.92,  0.92 au

Time for grid setup =    0.070 sec

------------------------------
INITIAL GUESS: MODEL POTENTIAL
------------------------------
Loading Hartree-Fock densities                     ... done
Calculating cut-offs                               ... done
Setting up the integral package                    ... done
Initializing the effective Hamiltonian             ... done
Starting the Coulomb interaction                   ... done (   0.0 sec)
Reading the grid                                   ... done
Mapping shells                                     ... done
Starting the XC term evaluation                    ... done (   0.0 sec)
Transforming the Hamiltonian                       ... done (   0.0 sec)
Diagonalizing the Hamiltonian                      ... done (   0.0 sec)
Back transforming the eigenvectors                 ... done (   0.0 sec)
Now organizing SCF variables                       ... done
                      ------------------
                      INITIAL GUESS DONE (   0.2 sec)
                      ------------------
--------------
SCF ITERATIONS
--------------
ITER       Energy         Delta-E        Max-DP      RMS-DP      [F,P]     Damp
               ***  Starting incremental Fock matrix formation  ***
  0  -2399.7895784971   0.000000000000 0.01392923  0.00063765  0.1856869 0.7000
  1  -2399.8011316859  -0.011553188866 0.01428270  0.00050586  0.1121837 0.7000
                               ***Turning on DIIS***
  2  -2399.8087642070  -0.007632521021 0.04123541  0.00132281  0.0664368 0.0000
  3  -2399.9464378649  -0.137673657896 0.01205080  0.00047407  0.0213641 0.0000
  4  -2399.7647951915   0.181642673341 0.00466829  0.00016413  0.0061913 0.0000
  5  -2399.8296695650  -0.064874373514 0.00273703  0.00008716  0.0013719 0.0000
  6  -2399.8298246565  -0.000155091464 0.00161236  0.00005184  0.0006625 0.0000
  7  -2399.8281881863   0.001636470232 0.00025142  0.00000898  0.0001185 0.0000
  8  -2399.8276751706   0.000513015614 0.00009131  0.00000264  0.0000244 0.0000
  9  -2399.8276356194   0.000039551279 0.00002825  0.00000105  0.0000050 0.0000
                            ***DIIS convergence achieved***

               *****************************************************
               *                     SUCCESS                       *
               *           SCF CONVERGED AFTER  10 CYCLES          *
               *****************************************************


----------------
TOTAL SCF ENERGY
----------------

Total Energy       :        -2399.82759788 Eh          -65302.62886 eV

Components:
Nuclear Repulsion  :            0.00000000 Eh               0.00000 eV
Electronic Energy  :        -2399.82759788 Eh          -65302.62886 eV
One Electron Energy:        -3343.34940477 Eh          -90977.16249 eV
Two Electron Energy:          943.52180690 Eh           25674.53363 eV

Virial components:
Potential Energy   :        -4799.60431177 Eh         -130603.87310 eV
Kinetic Energy     :         2399.77671389 Eh           65301.24424 eV
Virial Ratio       :            2.00002120


---------------
SCF CONVERGENCE
---------------

  Last Energy change         ...    3.7742e-05  Tolerance :   1.0000e-08
  Last MAX-Density change    ...    6.6673e-06  Tolerance :   1.0000e-07
  Last RMS-Density change    ...    3.2767e-07  Tolerance :   5.0000e-09
  Last DIIS Error            ...    9.3660e-07  Tolerance :   5.0000e-07

             **** THE GBW FILE WAS UPDATED (34_Se.gbw) ****
             **** DENSITY FILE WAS UPDATED (34_Se.scfp) ****
             **** ENERGY FILE WAS UPDATED (34_Se.en.tmp) ****
----------------------
UHF SPIN CONTAMINATION
----------------------

Expectation value of <S**2>     :     2.010583
Ideal value S*(S+1) for S=1.0   :     2.000000
Deviation                       :     0.010583

             **** THE GBW FILE WAS UPDATED (34_Se.gbw) ****
             **** DENSITY FILE WAS UPDATED (34_Se.scfp) ****
----------------
ORBITAL ENERGIES
----------------
                 SPIN UP ORBITALS
  NO   OCC          E(Eh)            E(eV) 
   0   1.0000    -460.868248    -12540.8626 
   1   1.0000     -60.669893     -1650.9117 
   2   1.0000     -54.273858     -1476.8668 
   3   1.0000     -54.273858     -1476.8668 
   4   1.0000     -54.267650     -1476.6978 
   5   1.0000      -8.938404      -243.2263 
   6   1.0000      -6.677365      -181.7004 
   7   1.0000      -6.677365      -181.7004 
   8   1.0000      -6.657238      -181.1526 
   9   1.0000      -2.662825       -72.4591 
  10   1.0000      -2.662825       -72.4591 
  11   1.0000      -2.648675       -72.0741 
  12   1.0000      -2.648675       -72.0741 
  13   1.0000      -2.644053       -71.9483 
  14   1.0000      -0.936284       -25.4776 
  15   1.0000      -0.448100       -12.1934 
  16   1.0000      -0.448100       -12.1934 
  17   1.0000      -0.384491       -10.4625 
  18   0.0000       0.069262         1.8847 
  19   0.0000       0.069262         1.8847 
  20   0.0000       0.075842         2.0638 
  21   0.0000       0.095914         2.6100 
  22   0.0000       0.167370         4.5544 
  23   0.0000       0.167370         4.5544 
  24   0.0000       0.178630         4.8608 
  25   0.0000       0.178630         4.8608 
  26   0.0000       0.183140         4.9835 
  27   0.0000       0.396689        10.7945 
  28   0.0000       0.396689        10.7945 
  29   0.0000       0.423348        11.5199 
  30   0.0000       0.474947        12.9240 
  31   0.0000       0.474947        12.9240 
  32   0.0000       0.503010        13.6876 
  33   0.0000       0.503010        13.6876 
  34   0.0000       0.513128        13.9629 
  35   0.0000       0.770887        20.9769 
  36   0.0000       1.455808        39.6146 
  37   0.0000       1.455808        39.6146 
  38   0.0000       1.489193        40.5230 
  39   0.0000       1.489193        40.5230 
  40   0.0000       1.501540        40.8590 
  41   0.0000       1.516387        41.2630 
  42   0.0000       1.516387        41.2630 
  43   0.0000       1.548044        42.1244 
  44   0.0000       1.548044        42.1244 
  45   0.0000       1.567904        42.6648 
  46   0.0000       1.567904        42.6648 
  47   0.0000       1.574736        42.8507 
  48   0.0000       1.704932        46.3936 
  49   0.0000       1.704932        46.3936 
  50   0.0000       1.746952        47.5370 
  51   0.0000       3.915819       106.5549 
  52   0.0000       3.915819       106.5549 
  53   0.0000       3.944534       107.3362 
  54   0.0000       3.944534       107.3362 
  55   0.0000       3.954374       107.6040 
  56   0.0000       6.866646       186.8509 

                 SPIN DOWN ORBITALS
  NO   OCC          E(Eh)            E(eV) 
   0   1.0000    -460.861406    -12540.6764 
   1   1.0000     -60.666718     -1650.8253 
   2   1.0000     -54.265817     -1476.6480 
   3   1.0000     -54.263818     -1476.5936 
   4   1.0000     -54.263818     -1476.5936 
   5   1.0000      -8.925285      -242.8693 
   6   1.0000      -6.654422      -181.0760 
   7   1.0000      -6.651933      -181.0083 
   8   1.0000      -6.651933      -181.0083 
   9   1.0000      -2.649619       -72.0998 
  10   1.0000      -2.649619       -72.0998 
  11   1.0000      -2.641925       -71.8904 
  12   1.0000      -2.641925       -71.8904 
  13   1.0000      -2.639495       -71.8243 
  14   1.0000      -0.741746       -20.1839 
  15   1.0000      -0.348422        -9.4810 
  16   0.0000      -0.006946        -0.1890 
  17   0.0000      -0.006946        -0.1890 
  18   0.0000       0.077065         2.0970 
  19   0.0000       0.088443         2.4067 
  20   0.0000       0.088443         2.4067 
  21   0.0000       0.108257         2.9458 
  22   0.0000       0.189666         5.1611 
  23   0.0000       0.189666         5.1611 
  24   0.0000       0.189895         5.1673 
  25   0.0000       0.189895         5.1673 
  26   0.0000       0.190474         5.1831 
  27   0.0000       0.432469        11.7681 
  28   0.0000       0.452646        12.3171 
  29   0.0000       0.452646        12.3171 
  30   0.0000       0.548424        14.9234 
  31   0.0000       0.552417        15.0320 
  32   0.0000       0.552417        15.0320 
  33   0.0000       0.567668        15.4470 
  34   0.0000       0.567668        15.4470 
  35   0.0000       0.809781        22.0353 
  36   0.0000       1.530222        41.6395 
  37   0.0000       1.530577        41.6491 
  38   0.0000       1.530577        41.6491 
  39   0.0000       1.531930        41.6859 
  40   0.0000       1.531930        41.6859 
  41   0.0000       1.605335        43.6834 
  42   0.0000       1.605335        43.6834 
  43   0.0000       1.608346        43.7653 
  44   0.0000       1.608346        43.7653 
  45   0.0000       1.609760        43.8038 
  46   0.0000       1.609760        43.8038 
  47   0.0000       1.610170        43.8150 
  48   0.0000       1.760014        47.8924 
  49   0.0000       1.765726        48.0478 
  50   0.0000       1.765726        48.0478 
  51   0.0000       3.949845       107.4807 
  52   0.0000       3.949845       107.4807 
  53   0.0000       3.963613       107.8554 
  54   0.0000       3.963613       107.8554 
  55   0.0000       3.968173       107.9795 
  56   0.0000       6.888751       187.4524 

                    ********************************
                    * MULLIKEN POPULATION ANALYSIS *
                    ********************************

--------------------------------------------
MULLIKEN ATOMIC CHARGES AND SPIN POPULATIONS
--------------------------------------------
   0 Se:   -0.000000    2.000000
Sum of atomic charges         :   -0.0000000
Sum of atomic spin populations:    2.0000000

-----------------------------------------------------
MULLIKEN REDUCED ORBITAL CHARGES AND SPIN POPULATIONS
-----------------------------------------------------
CHARGE
  0 Ses       :     7.995494  s :     7.995494
      pz      :     5.015032  p :    15.998753
      px      :     5.593560
      py      :     5.390161
      dz2     :     2.001025  d :    10.004506
      dxz     :     2.000123
      dyz     :     2.000081
      dx2y2   :     2.000140
      dxy     :     2.003136
      f0      :     0.000126  f :     0.001247
      f+1     :     0.000138
      f-1     :     0.000097
      f+2     :     0.000022
      f-2     :     0.000213
      f+3     :     0.000316
      f-3     :     0.000336

SPIN
  0 Ses       :     0.001667  s :     0.001667
      pz      :     0.984283  p :     1.998816
      px      :     0.405528
      py      :     0.609006
      dz2     :    -0.000379  d :    -0.001667
      dxz     :    -0.000046
      dyz     :    -0.000030
      dx2y2   :    -0.000052
      dxy     :    -0.001160
      f0      :     0.000123  f :     0.001184
      f+1     :     0.000126
      f-1     :     0.000089
      f+2     :     0.000022
      f-2     :     0.000210
      f+3     :     0.000308
      f-3     :     0.000306


                     *******************************
                     * LOEWDIN POPULATION ANALYSIS *
                     *******************************

-------------------------------------------
LOEWDIN ATOMIC CHARGES AND SPIN POPULATIONS
-------------------------------------------
   0 Se:   -0.000000    2.000000

----------------------------------------------------
LOEWDIN REDUCED ORBITAL CHARGES AND SPIN POPULATIONS
----------------------------------------------------
CHARGE
  0 Ses       :     7.995494  s :     7.995494
      pz      :     5.015032  p :    15.998753
      px      :     5.593560
      py      :     5.390161
      dz2     :     2.001025  d :    10.004506
      dxz     :     2.000123
      dyz     :     2.000081
      dx2y2   :     2.000140
      dxy     :     2.003136
      f0      :     0.000126  f :     0.001247
      f+1     :     0.000138
      f-1     :     0.000097
      f+2     :     0.000022
      f-2     :     0.000213
      f+3     :     0.000316
      f-3     :     0.000336

SPIN
  0 Ses       :     0.001667  s :     0.001667
      pz      :     0.984283  p :     1.998816
      px      :     0.405528
      py      :     0.609006
      dz2     :    -0.000379  d :    -0.001667
      dxz     :    -0.000046
      dyz     :    -0.000030
      dx2y2   :    -0.000052
      dxy     :    -0.001160
      f0      :     0.000123  f :     0.001184
      f+1     :     0.000126
      f-1     :     0.000089
      f+2     :     0.000022
      f-2     :     0.000210
      f+3     :     0.000308
      f-3     :     0.000306


                      *****************************
                      * MAYER POPULATION ANALYSIS *
                      *****************************

  NA   - Mulliken gross atomic population
  ZA   - Total nuclear charge
  QA   - Mulliken gross atomic charge
  VA   - Mayer's total valence
  BVA  - Mayer's bonded valence
  FA   - Mayer's free valence

  ATOM       NA         ZA         QA         VA         BVA        FA
  0 Se    34.0000    34.0000    -0.0000     2.0212     0.0000     2.0212

  Mayer bond orders larger than 0.100000


-------
TIMINGS
-------

Total SCF time: 0 days 0 hours 0 min 2 sec 

Total time                  ....       2.858 sec
Sum of individual times     ....       2.287 sec  ( 80.0%)

Fock matrix formation       ....       1.750 sec  ( 61.2%)
Diagonalization             ....       0.055 sec  (  1.9%)
Density matrix formation    ....       0.005 sec  (  0.2%)
Population analysis         ....       0.158 sec  (  5.5%)
Initial guess               ....       0.109 sec  (  3.8%)
Orbital Transformation      ....       0.000 sec  (  0.0%)
Orbital Orthonormalization  ....       0.000 sec  (  0.0%)
DIIS solution               ....       0.141 sec  (  4.9%)


           ************************************************************
           *        Program running with 24 parallel MPI-processes    *
           *              working on a common directory               *
           ************************************************************


------------------------------------------------------------------------------- 
                              ORCA-MATRIX DRIVEN CI                            
------------------------------------------------------------------------------- 

--------------------------------
AUTOMATIC CHOICE OF INCORE LEVEL
--------------------------------

Memory available                           ...   2500.00 MB
Memory needed for S+T                      ...      1.57 MB
Memory needed for J+K                      ...      3.16 MB
Memory needed for DIIS                     ...     21.93 MB
Memory needed for 3-ext                    ...      4.07 MB
Memory needed for 4-ext                    ...      9.05 MB
Memory needed for triples                  ...      2.26 MB
 -> Final InCoreLevel    ... 5
 -> check shows that triples correction can be computed


Wavefunction type
-----------------
Correlation treatment                      ...      CCSD     
Single excitations                         ... ON
Orbital optimization                       ... OFF
Calculation of Z vector                    ... OFF
Calculation of Brueckner orbitals          ... OFF
Perturbative triple excitations            ... ON
Calculation of F12 correction              ... OFF
Frozen core treatment                      ... chemical core (18 el)
Reference Wavefunction                     ... UHF
  Alpha-MOs occ    :     9 ...   17 (  9 MO's/  9 electrons)
  Beta-MOs occ     :     9 ...   15 (  7 MO's/  7 electrons)
  Alpha-MOs virt   :    18 ...   56 ( 39 MO's              )
  Beta-MOs virt    :    16 ...   56 ( 41 MO's              )
Number of AO's                             ...     57
Number of electrons                        ...     34
Number of correlated electrons             ...     16

Algorithmic settings
--------------------
Integral transformation                    ... AO direct full transformation
K(C) Formation                             ... FULL-MO TRAFO
Maximum number of iterations               ...        50
Convergence tolerance (max. residuum)      ... 1.000e-05
Level shift for amplitude update           ... 2.000e-01
Maximum number of DIIS vectors             ...         7
DIIS turned on at iteration                ...         0
Damping before turning on DIIS             ...     0.500
Damping after turning on DIIS              ...     0.000
Pair specific amplitude update             ... OFF
Natural orbital iterations                 ... OFF
Perturbative natural orbital generation    ... OFF
Printlevel                                 ... 2

Memory handling:
----------------
Maximum memory for working arrays          ...   2500 MB
Data storage in matrix containers          ... UNCOMPRESSED
Data type for integral storage             ... DOUBLE
In-Core Storage of quantities:
   Amplitudes+Sigma Vector      ... YES
   J+K operators                ... YES
   DIIS vectors                 ... YES
   3-external integrals         ... YES
   4-external integrals         ... YES


Initializing the integral package          ... done
Warning: reference  - re-canonicalizations have been set to INT 1 VIRT 1

--------------------------
UNRESTRICTED FOCK OPERATOR
--------------------------

<ss|ss>:          406 b            0 skpd (  0.0%)    0.001 s ( 0.001 ms/b)
<ss|sp>:         1176 b            0 skpd (  0.0%)    0.001 s ( 0.001 ms/b)
<ss|sd>:          980 b            0 skpd (  0.0%)    0.001 s ( 0.001 ms/b)
<ss|sf>:          196 b            0 skpd (  0.0%)    0.000 s ( 0.001 ms/b)
<ss|pp>:          588 b            0 skpd (  0.0%)    0.001 s ( 0.002 ms/b)
<ss|pd>:          840 b            0 skpd (  0.0%)    0.001 s ( 0.001 ms/b)
<ss|pf>:          168 b            0 skpd (  0.0%)    0.000 s ( 0.001 ms/b)
<ss|dd>:          420 b            0 skpd (  0.0%)    0.001 s ( 0.003 ms/b)
<ss|df>:          140 b            0 skpd (  0.0%)    0.000 s ( 0.002 ms/b)
<ss|ff>:           28 b            0 skpd (  0.0%)    0.000 s ( 0.006 ms/b)
<sp|sp>:          903 b            0 skpd (  0.0%)    0.001 s ( 0.001 ms/b)
<sp|sd>:         1470 b            0 skpd (  0.0%)    0.001 s ( 0.001 ms/b)
<sp|sf>:          294 b            0 skpd (  0.0%)    0.000 s ( 0.001 ms/b)
<sp|pp>:          882 b            0 skpd (  0.0%)    0.001 s ( 0.002 ms/b)
<sp|pd>:         1260 b            0 skpd (  0.0%)    0.002 s ( 0.002 ms/b)
<sp|pf>:          252 b            0 skpd (  0.0%)    0.001 s ( 0.002 ms/b)
<sp|dd>:          630 b            0 skpd (  0.0%)    0.003 s ( 0.004 ms/b)
<sp|df>:          210 b            0 skpd (  0.0%)    0.001 s ( 0.004 ms/b)
<sp|ff>:           42 b            0 skpd (  0.0%)    0.000 s ( 0.011 ms/b)
<sd|sd>:          630 b            1 skpd (  0.2%)    0.001 s ( 0.001 ms/b)
<sd|sf>:          245 b            0 skpd (  0.0%)    0.001 s ( 0.002 ms/b)
<sd|pp>:          735 b            1 skpd (  0.1%)    0.002 s ( 0.002 ms/b)
<sd|pd>:         1050 b            8 skpd (  0.8%)    0.003 s ( 0.003 ms/b)
<sd|pf>:          210 b            1 skpd (  0.5%)    0.001 s ( 0.004 ms/b)
<sd|dd>:          525 b            0 skpd (  0.0%)    0.004 s ( 0.007 ms/b)
<sd|df>:          175 b            0 skpd (  0.0%)    0.002 s ( 0.009 ms/b)
<sd|ff>:           35 b            0 skpd (  0.0%)    0.001 s ( 0.023 ms/b)
<sf|sf>:           28 b            0 skpd (  0.0%)    0.000 s ( 0.002 ms/b)
<sf|pp>:          147 b            1 skpd (  0.7%)    0.000 s ( 0.003 ms/b)
<sf|pd>:          210 b            2 skpd (  1.0%)    0.001 s ( 0.003 ms/b)
<sf|pf>:           42 b            1 skpd (  2.4%)    0.000 s ( 0.005 ms/b)
<sf|dd>:          105 b            0 skpd (  0.0%)    0.001 s ( 0.009 ms/b)
<sf|df>:           35 b            0 skpd (  0.0%)    0.000 s ( 0.012 ms/b)
<sf|ff>:            7 b            0 skpd (  0.0%)    0.000 s ( 0.036 ms/b)
<pp|pp>:          231 b            0 skpd (  0.0%)    0.001 s ( 0.006 ms/b)
<pp|pd>:          630 b            0 skpd (  0.0%)    0.002 s ( 0.004 ms/b)
<pp|pf>:          126 b            0 skpd (  0.0%)    0.001 s ( 0.006 ms/b)
<pp|dd>:          315 b            0 skpd (  0.0%)    0.003 s ( 0.010 ms/b)
<pp|df>:          105 b            0 skpd (  0.0%)    0.001 s ( 0.012 ms/b)
<pp|ff>:           21 b            0 skpd (  0.0%)    0.001 s ( 0.032 ms/b)
<pd|pd>:          465 b            0 skpd (  0.0%)    0.004 s ( 0.008 ms/b)
<pd|pf>:          180 b            0 skpd (  0.0%)    0.002 s ( 0.010 ms/b)
<pd|dd>:          450 b            0 skpd (  0.0%)    0.007 s ( 0.016 ms/b)
<pd|df>:          150 b            0 skpd (  0.0%)    0.003 s ( 0.022 ms/b)
<pd|ff>:           30 b            0 skpd (  0.0%)    0.002 s ( 0.059 ms/b)
<pf|pf>:           21 b            0 skpd (  0.0%)    0.000 s ( 0.010 ms/b)
<pf|dd>:           90 b            0 skpd (  0.0%)    0.002 s ( 0.017 ms/b)
<pf|df>:           30 b            0 skpd (  0.0%)    0.001 s ( 0.028 ms/b)
<pf|ff>:            6 b            0 skpd (  0.0%)    0.000 s ( 0.082 ms/b)
<dd|dd>:          120 b            0 skpd (  0.0%)    0.006 s ( 0.050 ms/b)
<dd|df>:           75 b            0 skpd (  0.0%)    0.003 s ( 0.038 ms/b)
<dd|ff>:           15 b            0 skpd (  0.0%)    0.002 s ( 0.107 ms/b)
<df|df>:           15 b            0 skpd (  0.0%)    0.001 s ( 0.035 ms/b)
<df|ff>:            5 b            0 skpd (  0.0%)    0.001 s ( 0.147 ms/b)
<ff|ff>:            1 b            0 skpd (  0.0%)    0.000 s ( 0.251 ms/b)
Recanonicalizing the internal orbitals
Recanonicalizing the virtual orbitals
Time needed for Fock operator              ...            0.217 sec
Reference energy                           ...  -2399.827602623
Warning: for UHF the TrafoType has to be JK
Warning: for UHF the K(C)-option cannot be MO but must be AOX

-------------------------------
PARTIAL EXCHANGE TRANSFORMATION
-------------------------------

Transformation type                        ... two-operators
Generation of integrals (i,mue|j,nue)      ... ON
Generation of integrals (mue,kappa|nue,tau)... ON
Generation of integrals (i,mue|a,nue)      ... ON
Dimension of the basis                     ...   57
Number of internal alpha-MOs               ...    9 (   9-  17)
Number of internal beta-MOs                ...    7 (   9-  15)
Number of external alpha-MOs               ...   39 (  18-  56)
Number of external beta-MOs                ...   41 (  16-  56)
Pair cutoff                                ... 0.000e+00 Eh
Number of AO pairs in the trafo            ... 1653
Total Number of distinct AO pairs          ... 1653
Memory devoted for trafo                   ... 2500.0 MB 
Max. Number of MO pairs treated together   ... 100855      
Number Format for Storage                  ... Double (8 Byte)
Integral package used                      ... LIBINT

Starting integral evaluation:
    ... done with AO integral generation
Closing buffer AOK[aa] ( 0.00 GB; CompressionRatio= 0.00)
Closing buffer AOK[bb] ( 0.00 GB; CompressionRatio= 0.00)
Closing buffer AOK[ab] ( 0.00 GB; CompressionRatio= 0.00)
Closing buffer AOK[ba] ( 0.00 GB; CompressionRatio= 0.00)
Collecting buffer AOK 
Closing buffer IAAO1[aa] ( 0.00 GB; CompressionRatio= 0.00)
Closing buffer IAAO1[bb] ( 0.00 GB; CompressionRatio= 0.00)
Closing buffer IAAO1[ab] ( 0.00 GB; CompressionRatio= 0.00)
Closing buffer IAAO1[ba] ( 0.00 GB; CompressionRatio= 0.00)
Closing buffer IAAO2[aa] ( 0.00 GB; CompressionRatio= 0.00)
Closing buffer IAAO2[bb] ( 0.00 GB; CompressionRatio= 0.00)
Closing buffer IAAO2[ab] ( 0.00 GB; CompressionRatio= 0.00)
Closing buffer IAAO2[ba] ( 0.00 GB; CompressionRatio= 0.00)
Collecting buffer IAAO 
Closing buffer PRQS    ( 0.00 GB; CompressionRatio= 0.00)
Collecting buffer PRQS 
Number of alpha/alpha MO pairs in trafo    ...   45
Number of beta /beta  MO pairs in trafo    ...   28
Number of alpha/ beta MO pairs in trafo    ...   63
------------------------
SORTING OF (i,mue|j,nue)
------------------------

SORTING OF ALPHA/ALPHA PAIRS
IBATCH = 1 of  1
Closing buffer KAO[aa] ( 0.00 GB; CompressionRatio= 1.00)
Collecting buffer KAO 
SORTING OF BETA /BETA  PAIRS
IBATCH = 1 of  1
Closing buffer KAO[bb] ( 0.00 GB; CompressionRatio= 1.00)
Collecting buffer KAO 
SORTING OF ALPHA/BETA  PAIRS
IBATCH = 1 of  1
Closing buffer KAO[ab] ( 0.00 GB; CompressionRatio= 0.999538532533)
Collecting buffer KAO[ab] 
------------------------
SORTING OF (i,mue|a,nue)
------------------------

Number of alpha/alpha (i,a) pairs in trafo  ...  351
Number of beta /beta  (i,a) pairs in trafo  ...  287
Number of alpha/ beta (i,a) pairs in trafo  ...  369
Number of beta /alpha (i,a) pairs in trafo  ...  273
Setting up the alpha/alpha list             ... done
Setting up the beta /beta  list             ... done
Setting up the alpha/beta  list             ... done
Setting up the beta /alpha list             ... done
    ... Now sorting (i,mue|a,nue)integrals
    ... Integrals (i,b|a,c) will be made on the fly
SORTING OF ALPHA/ALPHA PAIRS
IBATCH = 1 of  1
Closing buffer IPAQ[aa]  0.00 GB; CompressionRatio= 1.00)
SORTING OF BETA /BETA  PAIRS
IBATCH = 1 of  1
Closing buffer IPAQ[bb]( 0.00 GB; CompressionRatio= 1.00)
SORTING OF ALPHA/BETA  PAIRS (NMatSort_ab=16)
IBATCH = 1 of  1
Closing buffer IPAQ[ab]( 0.00 GB; CompressionRatio= 1.00)
SORTING OF BETA/ALPHA  PAIRS
IBATCH = 1 of  1
Closing buffer IPAQ[ba]( 0.00 GB; CompressionRatio= 1.00)
N(AO-Batches) Done                         ...         0 
N(AO-Batches) Skipped                      ...         0 
N(IJ)-pairs Skipped                        ...         0 
TOTAL TIME for half transformation         ...     2.941 sec
AO-integral generation                     ...     0.000 sec
Half transformation                        ...     0.000 sec
K-integral sorting                         ...     0.790 sec
<ss|**>: 
------------------------------
PARTIAL COULOMB TRANSFORMATION
------------------------------

Transformation type                        ... two-operators
Dimension of the basis                     ...   57
Number of internal alpha-MOs               ...    9 (9-17)
Number of internal beta-MOs                ...    7 (9-15)
Pair cutoff                                ... 0.000e+00 Eh
Number of AO pairs included in the trafo   ... 1653
Total Number of distinct AO pairs          ... 1653
Memory devoted for trafo                   ... 2500.0 MB 
Max. Number of MO pairs treated together   ... 198233      
Max. Number of MOs treated per batch       ... 3477      
Number Format for Storage                  ... Double (8 Byte)
AO-integral source                         ... DIRECT
Integral package used                      ... LIBINT

Starting integral evaluation:
<sp|**>:         5320 b        0 skpd     0.006 s (  0.001 ms/b)
        7980 b        0 skpd     0.018 s (  0.002 ms/b)
<sd|**>:         6650 b        0 skpd     0.031 s (  0.005 ms/b)
<sf|**>:         1330 b        0 skpd     0.016 s (  0.012 ms/b)
<pp|**>:         3990 b        0 skpd     0.032 s (  0.008 ms/b)
<pd|**>:         5700 b        0 skpd     0.087 s (  0.015 ms/b)
<pf|**>:         1140 b        0 skpd     0.030 s (  0.027 ms/b)
<dd|**>:         2850 b        0 skpd     0.054 s (  0.019 ms/b)
<df|**>:          950 b        0 skpd     0.048 s (  0.051 ms/b)
<ff|**>:          190 b        0 skpd     0.024 s (  0.127 ms/b)
Closing buffer AOJ[aa] ( 0.00 GB; CompressionRatio= 0.97)
Closing buffer AOJ[bb] ( 0.00 GB; CompressionRatio= 0.00)
Collecting buffer AOJ 
    ... done with AO integral generation
Number of Alpha-MO pairs included          ...   45
Number of Beta-MO pairs included           ...   28
    ... Now sorting integrals
SORTING ALPHA/ALPHA PAIRS
IBATCH = 1 of  1
Closing buffer JAO[aa] ( 0.00 GB; CompressionRatio= 1.00)
SORTING BETA/BETA PAIRS
IBATCH = 1 of  1
Closing buffer JAO[bb] ( 0.00 GB; CompressionRatio= 1.00)
Collecting buffer JAO 
TOTAL TIME for half transformation         ...     0.590 sec
AO-integral generation                     ...     0.179 sec
Half transformation                        ...     0.171 sec
J-integral sorting                         ...     0.112 sec

-------------------------- SECOND HALF TRANSFORMATION -------------------------
Formation of (ij|kl),(ij|ka), (ij|ab)      ... ok (     0.142 sec)
Formation of (ik|jl),(ik|ja), (ia|jb)      ... ok (     0.232 sec)


-----------------------
SPIN UNRESTRICTED GUESS
-----------------------

Entering MDCI_UHF_Guess, Tailored=0
Spin-components of the MP2 energy:
EMP2(aa)=     -0.043987846
EMP2(bb)=     -0.022886504
EMP2(ab)=     -0.147605920

Initial guess performed in     0.008 sec
E(0)                                       ...  -2399.827602623
E(MP2)                                     ...     -0.214480270
Initial E(tot)                             ...  -2400.042082892
<T|T>                                      ...      0.056906306
Number of pairs included                   ... 120

------------------------------------------------
                  UHF COUPLED CLUSTER ITERATIONS
------------------------------------------------

Number of amplitudes to be optimized       ...       146055

Iter       E(tot)           E(Corr)          Delta-E          Residual     Time      <S|S>**1/2
  0  -2400.042082892     -0.214480270     -0.000000000      0.020472998    0.19      0.000005894
                           *** Turning on DIIS ***
  1  -2400.045641537     -0.218038914     -0.003558644      0.007595904    0.17      0.018699376
  2  -2400.051182891     -0.223580268     -0.005541354      0.003775774    0.17      0.021869914
  3  -2400.052922691     -0.225320069     -0.001739801      0.001005618    0.17      0.024922634
  4  -2400.053117477     -0.225514854     -0.000194785      0.000190700    0.17      0.025700631
  5  -2400.053131497     -0.225528875     -0.000014021      0.000106116    0.17      0.025831840
  6  -2400.053136636     -0.225534013     -0.000005139      0.000050152    0.18      0.025846496
  7  -2400.053136675     -0.225534052     -0.000000039      0.000015465    0.18      0.025838395
  8  -2400.053136640     -0.225534017      0.000000035      0.000004542    0.17      0.025833149
               --- The Coupled-Cluster iterations have converged ---

----------------------
COUPLED CLUSTER ENERGY
----------------------

E(0)                                       ...  -2399.827602623
E(CORR)                                    ...     -0.225534017
E(TOT)                                     ...  -2400.053136640
Singles norm <S|S>**1/2                    ...      0.025833149 ( 0.011364555, 0.014468594)  
T1 diagnostic                              ...      0.006458287                              

------------------
LARGEST AMPLITUDES
------------------
  17a-> 34a  15b-> 30b       0.037416
  15a-> 31a  14b-> 16b       0.033489
  15a-> 30a  14b-> 17b       0.033489
  16a-> 30a  14b-> 16b       0.033489
  16a-> 31a  14b-> 17b       0.033489
  17a-> 33a  14b-> 16b       0.032587
  17a-> 32a  14b-> 17b       0.032587
  17a-> 32a  15b-> 32b       0.029530
  17a-> 33a  15b-> 31b       0.029530
  17a-> 29a  15b-> 27b       0.027444
  16a-> 30a  15a-> 31a       0.024802
  16a-> 31a  15a-> 30a       0.024802
  17a-> 34a  16a-> 33a       0.023496
  17a-> 33a  16a-> 34a       0.023496
  17a-> 32a  15a-> 34a       0.023496
  17a-> 34a  15a-> 32a       0.023496

----------------------
UHF TRIPLES CORRECTION (Algorithm 1)
----------------------

Multiplier for the singles contribution    ...      1.000000000

SPIN-CASE Alpha-Alpha-Alpha:
10% done
20% done
30% done
40% done
50% done
60% done
70% done
80% done
90% done


SPIN-CASE Beta-Beta-Beta:
10% done
20% done
30% done
40% done
50% done
60% done
70% done
80% done
90% done


SPIN-CASE Alpha-Alpha-Beta:
10% done
20% done
30% done
40% done
50% done
60% done
70% done
80% done
90% done


SPIN-CASE Beta-Beta-Alpha:
10% done
20% done
30% done
40% done
50% done
60% done
70% done
80% done
90% done


Triples Correction (T)                     ...     -0.006424393
    alpha-alpha-alpha ... -0.000391784 (  6.1%)
    alpha-alpha-beta  ... -0.003913549 ( 60.9%)
    alpha-beta -beta  ... -0.001999605 ( 31.1%)
    beta -beta -beta  ... -0.000119455 (  1.9%)
Scaling of triples based on CCSD energies (Peterson et al. Molecular Physics 113, 1551 (2015))
E(T*) = f*E(T) where f = E(F12-CCSD)/E(CCSD) 
f = CCSD (with F12)/ CCSD (without F12)    ...      1.000000000
Scaled triples correction (T)              ...     -0.006424393

Final correlation energy                   ...     -0.231958410
E(CCSD)                                    ...  -2400.053136640
E(CCSD(T))                                 ...  -2400.059561033



        !!!!!!!!!!!!!!!!!!!!!!!!!!!!!!!!!!!!!!!!!!!!!!!!!!!!!!!!!!!!!!!!!!!!!!!!!! 
        !  Warning: Densities are linearized densities                           !
        !!!!!!!!!!!!!!!!!!!!!!!!!!!!!!!!!!!!!!!!!!!!!!!!!!!!!!!!!!!!!!!!!!!!!!!!!! 

NORM  =      1.075928378 sqrt=     1.037269675
W(HF) =      0.929429895
------------------------------------------------------------------------------
                           ORCA POPULATION ANALYSIS
------------------------------------------------------------------------------
Input electron density              ... 34_Se.mdcip
Input spin density                  ... 34_Se.mdcir
BaseName (.gbw .S,...)              ... 34_Se

                    ********************************
                    * MULLIKEN POPULATION ANALYSIS *
                    ********************************

------------------------------------------
MULLIKEN ATOMIC CHARGES AND SPIN DENSITIES
------------------------------------------
   0 Se:    0.000000    2.000000
Sum of atomic charges       :    0.0000000
Sum of atomic spin densities:    2.0000000

---------------------------------------------------
MULLIKEN REDUCED ORBITAL CHARGES AND SPIN DENSITIES
---------------------------------------------------
CHARGE
  0 Ses       :     7.965453  s :     7.965453
      pz      :     5.011425  p :    15.952035
      px      :     5.568176
      py      :     5.372434
      dz2     :     2.012815  d :    10.070735
      dxz     :     2.013902
      dyz     :     2.013048
      dx2y2   :     2.015475
      dxy     :     2.015495
      f0      :     0.001386  f :     0.011777
      f+1     :     0.001553
      f-1     :     0.001363
      f+2     :     0.001680
      f-2     :     0.001685
      f+3     :     0.002058
      f-3     :     0.002052

SPIN
  0 Ses       :     0.019810  s :     0.019810
      pz      :     0.956804  p :     1.943703
      px      :     0.394624
      py      :     0.592275
      dz2     :     0.008168  d :     0.032306
      dxz     :     0.006726
      dyz     :     0.007811
      dx2y2   :     0.004720
      dxy     :     0.004881
      f0      :     0.000487  f :     0.004181
      f+1     :     0.000551
      f-1     :     0.000481
      f+2     :     0.000604
      f-2     :     0.000596
      f+3     :     0.000732
      f-3     :     0.000731


                     *******************************
                     * LOEWDIN POPULATION ANALYSIS *
                     *******************************

-----------------------------------------
LOEWDIN ATOMIC CHARGES AND SPIN DENSITIES
-----------------------------------------
   0 Se:   -0.000000    2.000000

--------------------------------------------------
LOEWDIN REDUCED ORBITAL CHARGES AND SPIN DENSITIES
--------------------------------------------------
CHARGE
  0 Ses       :     7.965453  s :     7.965453
      pz      :     5.011425  p :    15.952035
      px      :     5.568176
      py      :     5.372434
      dz2     :     2.012815  d :    10.070735
      dxz     :     2.013902
      dyz     :     2.013048
      dx2y2   :     2.015475
      dxy     :     2.015495
      f0      :     0.001386  f :     0.011777
      f+1     :     0.001553
      f-1     :     0.001363
      f+2     :     0.001680
      f-2     :     0.001685
      f+3     :     0.002058
      f-3     :     0.002052

SPIN
  0 Ses       :     0.019810  s :     0.019810
      pz      :     0.956804  p :     1.943703
      px      :     0.394624
      py      :     0.592275
      dz2     :     0.008168  d :     0.032306
      dxz     :     0.006726
      dyz     :     0.007811
      dx2y2   :     0.004720
      dxy     :     0.004881
      f0      :     0.000487  f :     0.004181
      f+1     :     0.000551
      f-1     :     0.000481
      f+2     :     0.000604
      f-2     :     0.000596
      f+3     :     0.000732
      f-3     :     0.000731


                      *****************************
                      * MAYER POPULATION ANALYSIS *
                      *****************************

  NA   - Mulliken gross atomic population
  ZA   - Total nuclear charge
  QA   - Mulliken gross atomic charge
  VA   - Mayer's total valence
  BVA  - Mayer's bonded valence
  FA   - Mayer's free valence

  ATOM       NA         ZA         QA         VA         BVA        FA
  0 Se    34.0000    34.0000     0.0000     2.4761     0.0000     2.4761





------------------------------------------------------------------------------- 
                                     TIMINGS                                   
------------------------------------------------------------------------------- 


Total execution time                   ...        6.236 sec

Fock Matrix Formation                  ...        0.217 sec (  3.5%)
Initial Guess                          ...        0.008 sec (  0.1%)
DIIS Solver                            ...        0.111 sec (  1.8%)
State Vector Update                    ...        0.006 sec (  0.1%)
Sigma-vector construction              ...        1.438 sec ( 23.1%)
  <D|H|D>(0-ext Fock)                  ...        0.002 sec (  0.1% of sigma)
  <D|H|D>(0-ext)                       ...        0.004 sec (  0.3% of sigma)
  <D|H|D>(2-ext)                       ...        0.018 sec (  1.3% of sigma)
  <D|H|D>(4-ext)                       ...        0.540 sec ( 37.6% of sigma)
  <S|H|0>                              ...        0.036 sec (  2.5% of sigma)
  <D|H|S>(1-ext)                       ...        0.009 sec (  0.6% of sigma)
  Fock-dressing                        ...        0.483 sec ( 33.6% of sigma)
  (ik|jl)-dressing                     ...        0.006 sec (  0.4% of sigma)
  (ij|ab),(ia|jb)-dressing             ...        0.256 sec ( 17.8% of sigma)
Total Time for computing (T)           ...        0.073 sec (  1.2% of ALL)
  I/O of integral and amplitudes       ...        0.016 sec ( 22.4% of (T))
  External N**7 contributions          ...        0.019 sec ( 25.7% of (T))
  Internal N**7 contributions          ...        0.007 sec (  9.0% of (T))
  N**6 triples energy contributions    ...        0.028 sec ( 38.9% of (T))


-------------------------   --------------------
FINAL SINGLE POINT ENERGY     -2400.059561032755
-------------------------   --------------------


                            ***************************************
                            *     ORCA property calculations      *
                            ***************************************

                                    ---------------------
                                    Active property flags
                                    ---------------------
   (+) Dipole Moment


------------------------------------------------------------------------------
                       ORCA ELECTRIC PROPERTIES CALCULATION
------------------------------------------------------------------------------

Dipole Moment Calculation                       ... on
Quadrupole Moment Calculation                   ... off
Polarizability Calculation                      ... off
GBWName                                         ... 34_Se.gbw
Electron density file                           ... 34_Se.scfp
The origin for moment calculation is the CENTER OF MASS  = ( 0.000000,  0.000000  0.000000)

-------------
DIPOLE MOMENT
-------------
                                X             Y             Z
Electronic contribution:     -0.00000       0.00000       0.00000
Nuclear contribution   :      0.00000       0.00000       0.00000
                        -----------------------------------------
Total Dipole Moment    :     -0.00000       0.00000       0.00000
                        -----------------------------------------
Magnitude (a.u.)       :      0.00000
Magnitude (Debye)      :      0.00000



--------------------
Rotational spectrum 
--------------------
 
Rotational constants in cm-1:     0.000000     0.000000     0.000000 
Rotational constants in MHz :     0.000000     0.000000     0.000000 

 Dipole components along the rotational axes: 
x,y,z [a.u.] :    -0.000000     0.000000     0.000000 
x,y,z [Debye]:    -0.000000     0.000000     0.000000 

 

                           *** MDCI DENSITY ***

------------------------------------------------------------------------------
                       ORCA ELECTRIC PROPERTIES CALCULATION
------------------------------------------------------------------------------

Dipole Moment Calculation                       ... on
Quadrupole Moment Calculation                   ... off
Polarizability Calculation                      ... off
GBWName                                         ... 34_Se.gbw
Electron density file                           ... 34_Se.mdcip
The origin for moment calculation is the CENTER OF MASS  = ( 0.000000,  0.000000  0.000000)

-------------
DIPOLE MOMENT
-------------
                                X             Y             Z
Electronic contribution:      0.00000       0.00000       0.00000
Nuclear contribution   :      0.00000       0.00000       0.00000
                        -----------------------------------------
Total Dipole Moment    :      0.00000       0.00000       0.00000
                        -----------------------------------------
Magnitude (a.u.)       :      0.00000
Magnitude (Debye)      :      0.00000



--------------------
Rotational spectrum 
--------------------
 
Rotational constants in cm-1:     0.000000     0.000000     0.000000 
Rotational constants in MHz :     0.000000     0.000000     0.000000 

 Dipole components along the rotational axes: 
x,y,z [a.u.] :     0.000000     0.000000     0.000000 
x,y,z [Debye]:     0.000000     0.000000     0.000000 

 

Timings for individual modules:

Sum of individual times         ...       10.820 sec (=   0.180 min)
GTO integral calculation        ...        0.834 sec (=   0.014 min)   7.7 %
SCF iterations                  ...        3.256 sec (=   0.054 min)  30.1 %
MDCI module                     ...        6.730 sec (=   0.112 min)  62.2 %
                             ****ORCA TERMINATED NORMALLY****
TOTAL RUN TIME: 0 days 0 hours 0 minutes 11 seconds 566 msec
