
                                 *****************
                                 * O   R   C   A *
                                 *****************

           --- An Ab Initio, DFT and Semiempirical electronic structure package ---

                  #######################################################
                  #                        -***-                        #
                  #          Department of theory and spectroscopy      #
                  #               Directorship: Frank Neese             #
                  #        Max Planck Institute fuer Kohlenforschung    #
                  #                Kaiser Wilhelm Platz 1               #
                  #                 D-45470 Muelheim/Ruhr               #
                  #                      Germany                        #
                  #                                                     #
                  #                  All rights reserved                #
                  #                        -***-                        #
                  #######################################################


                         Program Version 4.2.0 -  RELEASE  -


 With contributions from (in alphabetic order):
   Daniel Aravena         : Magnetic Suceptibility
   Michael Atanasov       : Ab Initio Ligand Field Theory (pilot matlab implementation)
   Alexander A. Auer      : GIAO ZORA, VPT2
   Ute Becker             : Parallelization
   Giovanni Bistoni       : ED, misc. LED, open-shell LED, HFLED
   Martin Brehm           : Molecular dynamics
   Dmytro Bykov           : SCF Hessian
   Vijay G. Chilkuri      : MRCI spin determinant printing, contributions to CSF-ICE
   Dipayan Datta          : RHF DLPNO-CCSD density
   Achintya Kumar Dutta   : EOM-CC, STEOM-CC
   Dmitry Ganyushin       : Spin-Orbit,Spin-Spin,Magnetic field MRCI
   Miquel Garcia          : C-PCM Hessian, Gaussian charge scheme
   Yang Guo               : DLPNO-NEVPT2, CIM, IAO-localization
   Andreas Hansen         : Spin unrestricted coupled pair/coupled cluster methods
   Benjamin Helmich-Paris : CASSCF linear response (MC-RPA)
   Lee Huntington         : MR-EOM, pCC
   Robert Izsak           : Overlap fitted RIJCOSX, COSX-SCS-MP3, EOM
   Christian Kollmar      : KDIIS, OOCD, Brueckner-CCSD(T), CCSD density
   Simone Kossmann        : Meta GGA functionals, TD-DFT gradient, OOMP2, MP2 Hessian
   Martin Krupicka        : AUTO-CI
   Lucas Lang             : DCDCAS
   Dagmar Lenk            : GEPOL surface, SMD
   Dimitrios Liakos       : Extrapolation schemes; Compound Job, initial MDCI parallelization
   Dimitrios Manganas     : Further ROCIS development; embedding schemes
   Dimitrios Pantazis     : SARC Basis sets
   Taras Petrenko         : DFT Hessian,TD-DFT gradient, ASA, ECA, R-Raman, ABS, FL, XAS/XES, NRVS
   Peter Pinski           : DLPNO-MP2, DLPNO-MP2 Gradient
   Christoph Reimann      : Effective Core Potentials
   Marius Retegan         : Local ZFS, SOC
   Christoph Riplinger    : Optimizer, TS searches, QM/MM, DLPNO-CCSD(T), (RO)-DLPNO pert. Triples
   Tobias Risthaus        : Range-separated hybrids, TD-DFT gradient, RPA, STAB
   Michael Roemelt        : Original ROCIS implementation
   Masaaki Saitow         : Open-shell DLPNO-CCSD energy and density
   Barbara Sandhoefer     : DKH picture change effects
   Avijit Sen             : IP-ROCIS
   Kantharuban Sivalingam : CASSCF convergence, NEVPT2, FIC-MRCI
   Bernardo de Souza      : ESD, SOC TD-DFT
   Georgi Stoychev        : AutoAux, RI-MP2 NMR
   Willem Van den Heuvel  : Paramagnetic NMR
   Boris Wezisla          : Elementary symmetry handling
   Frank Wennmohs         : Technical directorship


 We gratefully acknowledge several colleagues who have allowed us to
 interface, adapt or use parts of their codes:
   Stefan Grimme, W. Hujo, H. Kruse,             : VdW corrections, initial TS optimization,
                  C. Bannwarth                     DFT functionals, gCP, sTDA/sTD-DF
   Ed Valeev, F. Pavosevic, A. Kumar             : LibInt (2-el integral package), F12 methods
   Garnet Chan, S. Sharma, J. Yang, R. Olivares  : DMRG
   Ulf Ekstrom                                   : XCFun DFT Library
   Mihaly Kallay                                 : mrcc  (arbitrary order and MRCC methods)
   Andreas Klamt, Michael Diedenhofen            : otool_cosmo (COSMO solvation model)
   Jiri Pittner, Ondrej Demel                    : Mk-CCSD
   Frank Weinhold                                : gennbo (NPA and NBO analysis)
   Christopher J. Cramer and Donald G. Truhlar   : smd solvation model
   Lars Goerigk                                  : TD-DFT with DH, B97 family of functionals
   V. Asgeirsson, H. Jonsson                     : NEB implementation
   FAccTs GmbH                                   : IRC, NEB, NEB-TS, Multilevel, MM, QM/MM, CI optimization
   S Lehtola, MJT Oliveira, MAL Marques          : LibXC Library


 Your calculation uses the libint2 library for the computation of 2-el integrals
 For citations please refer to: http://libint.valeyev.net

 Your ORCA version has been built with support for libXC version: 4.2.3
 For citations please refer to: https://tddft.org/programs/libxc/

 This ORCA versions uses:
   CBLAS   interface :  Fast vector & matrix operations
   LAPACKE interface :  Fast linear algebra routines
   SCALAPACK package :  Parallel linear algebra routines


----- Orbital basis set information -----
Your calculation utilizes the basis: def2-TZVPPD
   F. Weigend and R. Ahlrichs, Phys. Chem. Chem. Phys. 7, 3297 (2005).
   D. Rappoport and F. Furche, J. Chem. Phys. 133 134105 (2010).

cite the ECPs for Zr [Def2-ECP] as follows:
Ce-Yb(ecp-28): M. Dolg, H. Stoll, H.Preuss, J. Chem. Phys., 1989, 90, 1730-1734.
Y-Cd(ecp-28), Hf-Hg(ecp-46): D. Andrae,U. Haeussermann, M. Dolg, H. Stoll, H. Preuss, Theor. Chim. Acta, 1990, 77, 123-141.
In-Sb(ecp-28), Tl-Bi(ecp-46): B. Metz, H. Stoll, M. Dolg, J. Chem. Phys., 2000, 113, 2563-2569.
Te-Xe(ecp-28), Po-Rn(ecp-46): K. A. Peterson, D. Figgen, E. Goll, H. Stoll, M. Dolg, J. Chem. Phys., 2003, 119, 11113-11123.
Rb(ecp-28), Cs(ecp-46): T. Leininger, A. Nicklass, W. Kuechle, H. Stoll, M. Dolg, A. Bergner, Chem. Phys. Lett., 1996, 255, 274-280.
Sr(ecp-28), Ba(ecp-46): M. Kaupp, P. V. Schleyer, H. Stoll and H. Preuss, J. Chem. Phys., 1991, 94, 1360-1366.
La(ecp-46): M. Dolg, H. Stoll, A. Savin, H. Preuss, Theor. Chim. Acta, 1989, 75, 173-194.
Lu(ecp-28): X. Cao, M. Dolg, J. Chem. Phys., 2001, 115, 7348-7355.

ECP parameters for Zr [Def2-ECP] have been obtained from:
TURBOMOLE (7.0.2)

================================================================================
                                        WARNINGS
                       Please study these warnings very carefully!
================================================================================


WARNING: your system is open-shell and RHF/RKS was chosen
  ===> : WILL SWITCH to UHF/UKS


WARNING: MDCI localization with Augmented Hessian Foster-Boys
  ===> : Switching off randomization!

WARNING: Post HF methods need fully converged wavefunctions
  ===> : Setting SCFConvForced true
         You can overwrite this default with %scf ConvForced false 


INFO   : the flag for use of LIBINT has been found!

================================================================================
                                       INPUT FILE
================================================================================
NAME = 40_Zr.in
|  1> #
|  2> # 40_Zr CCSD(T)/Def2-TZVPPD
|  3> #
|  4> ! CCSD(T) Def2-TZVPPD verytightscf slowconv kdiis
|  5> 
|  6> *xyz 0 3
|  7>  Zr 0.0 0.0 0.0
|  8> *
|  9> 
| 10> %maxcore 5000 
| 11> 
| 12> %pal
| 13> nprocs 24
| 14> end
| 15> 
| 16> %mdci
| 17> maxiter 100
| 18> maxdiis 25
| 19> end
| 20> 
| 21> 
| 22>                          ****END OF INPUT****
================================================================================

                       ****************************
                       * Single Point Calculation *
                       ****************************

---------------------------------
CARTESIAN COORDINATES (ANGSTROEM)
---------------------------------
  Zr     0.000000    0.000000    0.000000

----------------------------
CARTESIAN COORDINATES (A.U.)
----------------------------
  NO LB      ZA    FRAG     MASS         X           Y           Z
   0 Zr   12.0000*   0    91.220    0.000000    0.000000    0.000000
* core charge reduced due to ECP

--------------------------------
INTERNAL COORDINATES (ANGSTROEM)
--------------------------------
 Zr     0   0   0     0.000000000000     0.00000000     0.00000000

---------------------------
INTERNAL COORDINATES (A.U.)
---------------------------
 Zr     0   0   0     0.000000000000     0.00000000     0.00000000

---------------------
BASIS SET INFORMATION
---------------------
There are 1 groups of distinct atoms

 Group   1 Type Zr  : 7s7p5d2f1g contracted to 6s4p3d2f1g pattern {211111/4111/311/11/1}

Atom   0Zr   basis set group =>   1
-------------------------
ECP PARAMETER INFORMATION
-------------------------

 Group 1, Type Zr ECP Def2-ECP (replacing 28 core electrons, lmax=3)

Atom   0Zr   ECP group =>   1



           ************************************************************
           *        Program running with 24 parallel MPI-processes    *
           *              working on a common directory               *
           ************************************************************
------------------------------------------------------------------------------
                           ORCA GTO INTEGRAL CALCULATION
------------------------------------------------------------------------------

                         BASIS SET STATISTICS AND STARTUP INFO

 # of primitive gaussian shells          ...   22
 # of primitive gaussian functions       ...   76
 # of contracted shells                  ...   16
 # of contracted basis functions         ...   56
 Highest angular momentum                ...    4
 Maximum contraction depth               ...    4
 Integral package used                   ... LIBINT
 Integral threshhold            Thresh   ...  1.000e-12
 Primitive cut-off              TCut     ...  1.000e-14


------------------------------ INTEGRAL EVALUATION ----------------------------


 * One electron integrals 

   ECP integrals                         ... done
 Pre-screening matrix                    ... done
 Shell pair data                         ... done (   0.000 sec)



           ************************************************************
           *        Program running with 24 parallel MPI-processes    *
           *              working on a common directory               *
           ************************************************************
-------------------------------------------------------------------------------
                                 ORCA SCF
-------------------------------------------------------------------------------

------------
SCF SETTINGS
------------
Hamiltonian:
 Ab initio Hamiltonian  Method          .... Hartree-Fock(GTOs)


General Settings:
 Integral files         IntName         .... 40_Zr
 Hartree-Fock type      HFTyp           .... UHF
 Total Charge           Charge          ....    0
 Multiplicity           Mult            ....    3
 Number of Electrons    NEL             ....   12
 Basis Dimension        Dim             ....   56
 Nuclear Repulsion      ENuc            ....      0.0000000000 Eh

Convergence Acceleration:
 DIIS                   CNVDIIS         .... off
 Newton-Raphson         CNVNR           .... off
 SOSCF                  CNVSOSCF        .... off
 Level Shifting         CNVShift        .... off
 Zerner damping         CNVZerner       .... off
 Static damping         CNVDamp         .... off
 Fernandez-Rico         CNVRico         .... off

SCF Procedure:
 Maximum # iterations   MaxIter         ....   125
 SCF integral mode      SCFMode         .... Direct
   Integral package                     .... LIBINT
 Reset frequency        DirectResetFreq ....    20
 Integral Threshold     Thresh          ....  1.000e-12 Eh
 Primitive CutOff       TCut            ....  1.000e-14 Eh

Convergence Tolerance:
 Convergence Check Mode ConvCheckMode   .... Total+1el-Energy
 Convergence forced     ConvForced      .... 1
 Energy Change          TolE            ....  1.000e-09 Eh
 1-El. energy change                    ....  1.000e-06 Eh


Diagonalization of the overlap matrix:
Smallest eigenvalue                        ... 2.006e-02
Time for diagonalization                   ...    0.002 sec
Threshold for overlap eigenvalues          ... 1.000e-08
Number of eigenvalues below threshold      ... 0
Time for construction of square roots      ...    0.013 sec
Total time needed                          ...    0.015 sec

-------------------
DFT GRID GENERATION
-------------------

General Integration Accuracy     IntAcc      ...  4.340
Radial Grid Type                 RadialGrid  ... Gauss-Chebyshev
Angular Grid (max. acc.)         AngularGrid ... Lebedev-110
Angular grid pruning method      GridPruning ... 3 (G Style)
Weight generation scheme         WeightScheme... Becke
Basis function cutoff            BFCut       ...    1.0000e-12
Integration weight cutoff        WCut        ...    1.0000e-14
Grids for H and He will be reduced by one unit

# of grid points (after initial pruning)     ...   3280 (   0.0 sec)
# of grid points (after weights+screening)   ...   3280 (   0.0 sec)
Grid point division into batches done        ...    0.0 sec
Reduced shell lists constructed in    0.0 sec

Total number of grid points                  ...     3280
Total number of batches                      ...       52
Average number of points per batch           ...       63
Average number of grid points per atom       ...     3280
Average number of shells per batch           ...     5.75 (35.94%)
Average number of basis functions per batch  ...    21.75 (38.84%)
Average number of large shells per batch     ...     4.00 (69.57%)
Average number of large basis fcns per batch ...    11.50 (52.87%)
Maximum spatial batch extension              ...  23.83, 37.49, 37.49 au
Average spatial batch extension              ...   1.37,  1.91,  2.16 au

Time for grid setup =    0.068 sec

------------------------------
INITIAL GUESS: MODEL POTENTIAL
------------------------------
Loading Hartree-Fock densities                     ... done
  calling /sw/apps/orca/orca_4_2_0_linux_x86-64_openmpi314/orca 40_Zr_atom40.inp > 40_Zr_atom40.out in order to generate an atomic fitting density for atom 0 (Zr with ECP) on-the-fly... 
    atom 0 (Zr), assumed electronic state with S=3: 1s2 2s2 2p6 3s2 3p6 4s2 3d10 4p6 4d2 5s2           ... done
Calculating cut-offs                               ... done
Setting up the integral package                    ... done
Initializing the effective Hamiltonian             ... done
Starting the Coulomb interaction                   ... done (   0.0 sec)
Reading the grid                                   ... done
Mapping shells                                     ... done
Starting the XC term evaluation                    ... done (   0.0 sec)
Transforming the Hamiltonian                       ... done (   0.0 sec)
Diagonalizing the Hamiltonian                      ... done (   0.0 sec)
Back transforming the eigenvectors                 ... done (   0.0 sec)
Now organizing SCF variables                       ... done
                      ------------------
                      INITIAL GUESS DONE (   2.4 sec)
                      ------------------
--------------
SCF ITERATIONS
--------------
ITER       Energy         Delta-E        Max-DP      RMS-DP      [F,P]   Gradient Norm
               ***  Starting incremental Fock matrix formation  ***
                             ****Resetting KDIIS****
                             ****Turning on KDIIS(Cayley)****
  0    -45.8708853997   0.000000000000 0.05017622  0.00181782  0.2636672   0.261392811
  1    -45.9761583577  -0.105272958015 0.07197783  0.00263269  0.2308649   0.223962578
  2    -46.1157005138  -0.139542156053 0.11403528  0.00473248  0.1833901   0.172944542
  3    -46.2669270669  -0.151226553110 0.08780107  0.00395010  0.1067826   0.083888862
  4    -46.2955948445  -0.028667777663 0.03053063  0.00114485  0.0242924   0.018105343
  5    -46.3019007944  -0.006305949907 0.00623038  0.00029774  0.0136613   0.009190552
  6    -46.3025429164  -0.000642121956 0.02357404  0.00101070  0.0138682   0.009216588
  7    -46.3060892728  -0.003546356424 0.00856823  0.00039755  0.0160759   0.007691650
  8    -46.3063169280  -0.000227655206 0.01098899  0.00037216  0.0159380   0.007549365
  9    -46.3078246274  -0.001507699425 0.04790020  0.00162192  0.0168353   0.007412838
 10    -46.3026311060   0.005193521398 0.00924553  0.00048988  0.0129435   0.005977635
 11    -46.3033993430  -0.000768236938 0.04155394  0.00105357  0.0130318   0.005553905
 12    -46.3001747311   0.003224611909 0.06913138  0.00182030  0.0093782   0.005546301
 13    -46.2978057847   0.002368946406 0.00851405  0.00028876  0.0038629   0.002457864
 14    -46.2979709156  -0.000165130955 0.00585672  0.00027907  0.0034381   0.001639653
 15    -46.2981759771  -0.000205061518 0.00371168  0.00018307  0.0029062   0.001236308
 16    -46.2983248391  -0.000148861938 0.00088940  0.00002623  0.0024764   0.001089749
 17    -46.2983240651   0.000000773963 0.00068907  0.00001883  0.0024849   0.001091316
 18    -46.2983281005  -0.000004035404 0.00100830  0.00003338  0.0024587   0.001098603
 19    -46.2983212421   0.000006858474 0.00150375  0.00005641  0.0025009   0.001106947
               *** Restarting incremental Fock matrix formation ***
                             ****Resetting KDIIS****
 20    -46.2983144628   0.000006779223 0.00015432  0.00000814  0.0025871   0.001122133
 21    -46.2983217349  -0.000007272119 0.00042876  0.00002229  0.0025719   0.001127915
 22    -46.2983059961   0.000015738837 0.00086614  0.00004337  0.0025947   0.001098372
 23    -46.2983066175  -0.000000621433 0.00257618  0.00012275  0.0025437   0.001030870
 24    -46.2983823049  -0.000075687394 0.00541950  0.00015785  0.0022456   0.000932414
 25    -46.2983467389   0.000035565995 0.00275667  0.00011180  0.0021888   0.000857822
 26    -46.2983980320  -0.000051293092 0.00857426  0.00028522  0.0018361   0.000742933
 27    -46.2985285569  -0.000130524894 0.00123745  0.00005119  0.0007752   0.000545975
 28    -46.2985480314  -0.000019474470 0.00018453  0.00001157  0.0006637   0.000511552
 29    -46.2985450620   0.000002969423 0.00086570  0.00005835  0.0006451   0.000512506
 30    -46.2985380765   0.000006985439 0.00150097  0.00007239  0.0005644   0.000472483
 31    -46.2985530771  -0.000015000561 0.00027711  0.00001052  0.0005586   0.000427049
 32    -46.2985552564  -0.000002179267 0.00115925  0.00004129  0.0005708   0.000431552
 33    -46.2985457037   0.000009552669 0.00030841  0.00001253  0.0005204   0.000426774
 34    -46.2985422654   0.000003438329 0.00069449  0.00003303  0.0005028   0.000422986
 35    -46.2985476324  -0.000005367066 0.00075082  0.00003997  0.0005596   0.000430547
 36    -46.2985513284  -0.000003695933 0.00062858  0.00003064  0.0005249   0.000423208
 37    -46.2985443759   0.000006952484 0.00058199  0.00002791  0.0005199   0.000432470
 38    -46.2985370302   0.000007345670 0.00054158  0.00002457  0.0005490   0.000430553
 39    -46.2985313104   0.000005719817 0.00051794  0.00002175  0.0005848   0.000423428
               *** Restarting incremental Fock matrix formation ***
                             ****Resetting KDIIS****
 40    -46.2985376812  -0.000006370774 0.00007786  0.00000331  0.0005676   0.000430383
 41    -46.2985387170  -0.000001035789 0.00032225  0.00001240  0.0005644   0.000432027
 42    -46.2985350897   0.000003627274 0.00050260  0.00002054  0.0005720   0.000421715
 43    -46.2985310975   0.000003992188 0.00064869  0.00003069  0.0005728   0.000400832
 44    -46.2985300305   0.000001067036 0.00235246  0.00010888  0.0005553   0.000384581
 45    -46.2985259441   0.000004086356 0.00031652  0.00001866  0.0004797   0.000311015
 46    -46.2985307674  -0.000004823347 0.00023179  0.00001521  0.0004427   0.000309954
 47    -46.2985267518   0.000004015652 0.00048960  0.00002938  0.0004696   0.000306201
 48    -46.2985222976   0.000004454167 0.00048539  0.00002629  0.0004758   0.000290787
 49    -46.2985227904  -0.000000492804 0.00084607  0.00003798  0.0004282   0.000269391
 50    -46.2985303523  -0.000007561871 0.00010458  0.00000422  0.0003951   0.000253919
 51    -46.2985305704  -0.000000218102 0.00060905  0.00002825  0.0003985   0.000255770
 52    -46.2985257640   0.000004806410 0.00018420  0.00001216  0.0003784   0.000249330
 53    -46.2985246583   0.000001105723 0.00012874  0.00000768  0.0003746   0.000243998
 54    -46.2985260819  -0.000001423577 0.00016048  0.00001117  0.0003778   0.000246594
 55    -46.2985248592   0.000001222632 0.00017411  0.00000781  0.0003671   0.000241135
 56    -46.2985241971   0.000000662095 0.00018439  0.00001102  0.0003697   0.000241937
 57    -46.2985233120   0.000000885143 0.00045961  0.00002133  0.0003752   0.000238618
 58    -46.2985246823  -0.000001370334 0.00012065  0.00000668  0.0003773   0.000232737
 59    -46.2985235246   0.000001157669 0.00045042  0.00003414  0.0003748   0.000232995
               *** Restarting incremental Fock matrix formation ***
                             ****Resetting KDIIS****
 60    -46.2985188885   0.000004636190 0.00002711  0.00000141  0.0003646   0.000219467
 61    -46.2985191403  -0.000000251831 0.00006095  0.00000331  0.0003654   0.000218768
 62    -46.2985197327  -0.000000592385 0.00003858  0.00000208  0.0003670   0.000217609
 63    -46.2985198834  -0.000000150704 0.00070956  0.00003464  0.0003682   0.000216445
Warning: badly conditioned DIIS matrix, 1 vectors out of 5 destroyed
 64    -46.2985227545  -0.000002871087 0.00023014  0.00001306  0.0003925   0.000199235
 65    -46.2985250127  -0.000002258233 0.00014650  0.00000981  0.0003963   0.000197577
 66    -46.2985233578   0.000001654921 0.00056460  0.00003034  0.0003944   0.000197968
 67    -46.2985275576  -0.000004199848 0.00014932  0.00000904  0.0004120   0.000192068
 68    -46.2985290413  -0.000001483696 0.00024133  0.00001438  0.0004192   0.000192751
 69    -46.2985267241   0.000002317172 0.00003016  0.00000154  0.0004088   0.000191454
 70    -46.2985267114   0.000000012751 0.00003631  0.00000148  0.0004096   0.000191439
 71    -46.2985266099   0.000000101543 0.00039564  0.00002436  0.0004090   0.000191526
 72    -46.2985233011   0.000003308736 0.00005309  0.00000327  0.0003994   0.000189530
 73    -46.2985236612  -0.000000360046 0.00031801  0.00001257  0.0004000   0.000189941
 74    -46.2985243770  -0.000000715805 0.00066386  0.00002840  0.0004064   0.000187360
 75    -46.2985282018  -0.000003824789 0.00000865  0.00000054  0.0004257   0.000185357
 76    -46.2985281191   0.000000082634 0.00007887  0.00000418  0.0004254   0.000185307
 77    -46.2985284948  -0.000000375686 0.00014293  0.00000600  0.0004246   0.000185090
 78    -46.2985283009   0.000000193933 0.00016256  0.00000758  0.0004231   0.000182924
 79    -46.2985274137   0.000000887165 0.00015808  0.00001029  0.0004190   0.000181676
               *** Restarting incremental Fock matrix formation ***
                             ****Resetting KDIIS****
 80    -46.2985285173  -0.000001103630 0.00001661  0.00000102  0.0004198   0.000180210
 81    -46.2985286733  -0.000000155913 0.00002328  0.00000140  0.0004204   0.000180227
 82    -46.2985284648   0.000000208443 0.00019986  0.00001207  0.0004196   0.000179767
 83    -46.2985266505   0.000001814310 0.00038391  0.00002168  0.0004113   0.000177611
 84    -46.2985240084   0.000002642145 0.00119440  0.00007188  0.0003946   0.000173790
 85    -46.2985139405   0.000010067878 0.00020342  0.00001020  0.0003385   0.000161226
 86    -46.2985153221  -0.000001381621 0.00099471  0.00005682  0.0003437   0.000161035
 87    -46.2985076579   0.000007664187 0.00142851  0.00008670  0.0003114   0.000157421
 88    -46.2984972799   0.000010378048 0.00182805  0.00011021  0.0002619   0.000150886
 89    -46.2984869355   0.000010344323 0.00072112  0.00004171  0.0002006   0.000134558
 90    -46.2984846525   0.000002283086 0.00015291  0.00000884  0.0001795   0.000127272
 91    -46.2984839510   0.000000701465 0.00013395  0.00000583  0.0001722   0.000126682
 92    -46.2984841328  -0.000000181814 0.00034973  0.00002175  0.0001777   0.000128033
 93    -46.2984859732  -0.000001840353 0.00020654  0.00001294  0.0001893   0.000128731
 94    -46.2984848959   0.000001077298 0.00136555  0.00008349  0.0001814   0.000129081
 95    -46.2984798913   0.000005004548 0.00015153  0.00000933  0.0001566   0.000119621
 96    -46.2984808199  -0.000000928630 0.00023931  0.00001494  0.0001409   0.000121854
 97    -46.2984794067   0.000001413192 0.00047240  0.00002850  0.0001692   0.000119542
 98    -46.2984775028   0.000001903965 0.00027155  0.00001664  0.0001807   0.000112397
 99    -46.2984776256  -0.000000122839 0.00014086  0.00000890  0.0001582   0.000109117
               *** Restarting incremental Fock matrix formation ***
                             ****Resetting KDIIS****
100    -46.2984771673   0.000000458335 0.00001160  0.00000065  0.0001606   0.000108923
101    -46.2984772288  -0.000000061476 0.00002664  0.00000137  0.0001593   0.000108900
102    -46.2984771096   0.000000119123 0.00007238  0.00000275  0.0001614   0.000108046
103    -46.2984769504   0.000000159193 0.00018323  0.00000991  0.0001633   0.000106751
104    -46.2984776920  -0.000000741516 0.00014862  0.00000693  0.0001434   0.000105703
105    -46.2984773930   0.000000298922 0.00016072  0.00000696  0.0001404   0.000105249
106    -46.2984774303  -0.000000037248 0.00027778  0.00001348  0.0001325   0.000102933
107    -46.2984781911  -0.000000760835 0.00003758  0.00000231  0.0001116   0.000092675
108    -46.2984781297   0.000000061472 0.00009712  0.00000409  0.0001130   0.000092475
109    -46.2984781676  -0.000000037908 0.00010572  0.00000577  0.0001092   0.000092051
110    -46.2984786222  -0.000000454616 0.00015357  0.00000939  0.0001129   0.000092615
111    -46.2984778779   0.000000744243 0.00026918  0.00001468  0.0001058   0.000089611
112    -46.2984771054   0.000000772525 0.00018775  0.00001048  0.0001018   0.000085011
113    -46.2984769925   0.000000112924 0.00007935  0.00000452  0.0001026   0.000079794
114    -46.2984771680  -0.000000175554 0.00004771  0.00000218  0.0001020   0.000075474
115    -46.2984771698  -0.000000001758 0.00006224  0.00000388  0.0001035   0.000076203
116    -46.2984773435  -0.000000173690 0.00002354  0.00000152  0.0001044   0.000077388
117    -46.2984772636   0.000000079865 0.00002966  0.00000170  0.0001039   0.000077404
118    -46.2984772233   0.000000040294 0.00006635  0.00000404  0.0001034   0.000077290
119    -46.2984770646   0.000000158687 0.00020054  0.00001228  0.0001000   0.000076741
               *** Restarting incremental Fock matrix formation ***
                             ****Resetting KDIIS****
120    -46.2984776946  -0.000000629938 0.00000935  0.00000049  0.0001141   0.000077914
121    -46.2984777232  -0.000000028618 0.00000396  0.00000028  0.0001144   0.000076868
122    -46.2984777271  -0.000000003923 0.00008141  0.00000330  0.0001144   0.000074403
123    -46.2984775775   0.000000149587 0.00010130  0.00000393  0.0001133   0.000071749
124    -46.2984775285   0.000000049032 0.00003938  0.00000226  0.0001138   0.000070535
                    *** KDIIS BlockDiag (48.878 sec) ***

               *****************************************************
               *                      ERROR                        *
               *        SCF NOT CONVERGED AFTER 125 CYCLES         *
               *****************************************************


---------------
SCF CONVERGENCE
---------------

  Last Energy change         ...    4.9032e-08  Tolerance :   1.0000e-09
  Last MAX-Density change    ...    3.9383e-05  Tolerance :   1.0000e-08
  Last RMS-Density change    ...    2.2615e-06  Tolerance :   1.0000e-09

     --------------------------------------------------------------------
                                      ERROR
     This wavefunction IS NOT CONVERGED! 
     But SCFConvergence was forced (by user or by method)
     Aborting ...
     --------------------------------------------------------------------



ORCA finished by error termination in SCF
Calling Command: mpirun -np 24  /sw/apps/orca/orca_4_2_0_linux_x86-64_openmpi314/orca_scf_mpi 40_Zr.gbw b 40_Zr 
[file orca_tools/qcmsg.cpp, line 458]: 
  .... aborting the run

