
                                 *****************
                                 * O   R   C   A *
                                 *****************

           --- An Ab Initio, DFT and Semiempirical electronic structure package ---

                  #######################################################
                  #                        -***-                        #
                  #          Department of theory and spectroscopy      #
                  #               Directorship: Frank Neese             #
                  #        Max Planck Institute fuer Kohlenforschung    #
                  #                Kaiser Wilhelm Platz 1               #
                  #                 D-45470 Muelheim/Ruhr               #
                  #                      Germany                        #
                  #                                                     #
                  #                  All rights reserved                #
                  #                        -***-                        #
                  #######################################################


                         Program Version 4.2.0 -  RELEASE  -


 With contributions from (in alphabetic order):
   Daniel Aravena         : Magnetic Suceptibility
   Michael Atanasov       : Ab Initio Ligand Field Theory (pilot matlab implementation)
   Alexander A. Auer      : GIAO ZORA, VPT2
   Ute Becker             : Parallelization
   Giovanni Bistoni       : ED, misc. LED, open-shell LED, HFLED
   Martin Brehm           : Molecular dynamics
   Dmytro Bykov           : SCF Hessian
   Vijay G. Chilkuri      : MRCI spin determinant printing, contributions to CSF-ICE
   Dipayan Datta          : RHF DLPNO-CCSD density
   Achintya Kumar Dutta   : EOM-CC, STEOM-CC
   Dmitry Ganyushin       : Spin-Orbit,Spin-Spin,Magnetic field MRCI
   Miquel Garcia          : C-PCM Hessian, Gaussian charge scheme
   Yang Guo               : DLPNO-NEVPT2, CIM, IAO-localization
   Andreas Hansen         : Spin unrestricted coupled pair/coupled cluster methods
   Benjamin Helmich-Paris : CASSCF linear response (MC-RPA)
   Lee Huntington         : MR-EOM, pCC
   Robert Izsak           : Overlap fitted RIJCOSX, COSX-SCS-MP3, EOM
   Christian Kollmar      : KDIIS, OOCD, Brueckner-CCSD(T), CCSD density
   Simone Kossmann        : Meta GGA functionals, TD-DFT gradient, OOMP2, MP2 Hessian
   Martin Krupicka        : AUTO-CI
   Lucas Lang             : DCDCAS
   Dagmar Lenk            : GEPOL surface, SMD
   Dimitrios Liakos       : Extrapolation schemes; Compound Job, initial MDCI parallelization
   Dimitrios Manganas     : Further ROCIS development; embedding schemes
   Dimitrios Pantazis     : SARC Basis sets
   Taras Petrenko         : DFT Hessian,TD-DFT gradient, ASA, ECA, R-Raman, ABS, FL, XAS/XES, NRVS
   Peter Pinski           : DLPNO-MP2, DLPNO-MP2 Gradient
   Christoph Reimann      : Effective Core Potentials
   Marius Retegan         : Local ZFS, SOC
   Christoph Riplinger    : Optimizer, TS searches, QM/MM, DLPNO-CCSD(T), (RO)-DLPNO pert. Triples
   Tobias Risthaus        : Range-separated hybrids, TD-DFT gradient, RPA, STAB
   Michael Roemelt        : Original ROCIS implementation
   Masaaki Saitow         : Open-shell DLPNO-CCSD energy and density
   Barbara Sandhoefer     : DKH picture change effects
   Avijit Sen             : IP-ROCIS
   Kantharuban Sivalingam : CASSCF convergence, NEVPT2, FIC-MRCI
   Bernardo de Souza      : ESD, SOC TD-DFT
   Georgi Stoychev        : AutoAux, RI-MP2 NMR
   Willem Van den Heuvel  : Paramagnetic NMR
   Boris Wezisla          : Elementary symmetry handling
   Frank Wennmohs         : Technical directorship


 We gratefully acknowledge several colleagues who have allowed us to
 interface, adapt or use parts of their codes:
   Stefan Grimme, W. Hujo, H. Kruse,             : VdW corrections, initial TS optimization,
                  C. Bannwarth                     DFT functionals, gCP, sTDA/sTD-DF
   Ed Valeev, F. Pavosevic, A. Kumar             : LibInt (2-el integral package), F12 methods
   Garnet Chan, S. Sharma, J. Yang, R. Olivares  : DMRG
   Ulf Ekstrom                                   : XCFun DFT Library
   Mihaly Kallay                                 : mrcc  (arbitrary order and MRCC methods)
   Andreas Klamt, Michael Diedenhofen            : otool_cosmo (COSMO solvation model)
   Jiri Pittner, Ondrej Demel                    : Mk-CCSD
   Frank Weinhold                                : gennbo (NPA and NBO analysis)
   Christopher J. Cramer and Donald G. Truhlar   : smd solvation model
   Lars Goerigk                                  : TD-DFT with DH, B97 family of functionals
   V. Asgeirsson, H. Jonsson                     : NEB implementation
   FAccTs GmbH                                   : IRC, NEB, NEB-TS, Multilevel, MM, QM/MM, CI optimization
   S Lehtola, MJT Oliveira, MAL Marques          : LibXC Library


 Your calculation uses the libint2 library for the computation of 2-el integrals
 For citations please refer to: http://libint.valeyev.net

 Your ORCA version has been built with support for libXC version: 4.2.3
 For citations please refer to: https://tddft.org/programs/libxc/

 This ORCA versions uses:
   CBLAS   interface :  Fast vector & matrix operations
   LAPACKE interface :  Fast linear algebra routines
   SCALAPACK package :  Parallel linear algebra routines


----- Orbital basis set information -----
Your calculation utilizes the basis: def2-TZVPPD
   F. Weigend and R. Ahlrichs, Phys. Chem. Chem. Phys. 7, 3297 (2005).
   D. Rappoport and F. Furche, J. Chem. Phys. 133 134105 (2010).

cite the ECPs for Mo [Def2-ECP] as follows:
Ce-Yb(ecp-28): M. Dolg, H. Stoll, H.Preuss, J. Chem. Phys., 1989, 90, 1730-1734.
Y-Cd(ecp-28), Hf-Hg(ecp-46): D. Andrae,U. Haeussermann, M. Dolg, H. Stoll, H. Preuss, Theor. Chim. Acta, 1990, 77, 123-141.
In-Sb(ecp-28), Tl-Bi(ecp-46): B. Metz, H. Stoll, M. Dolg, J. Chem. Phys., 2000, 113, 2563-2569.
Te-Xe(ecp-28), Po-Rn(ecp-46): K. A. Peterson, D. Figgen, E. Goll, H. Stoll, M. Dolg, J. Chem. Phys., 2003, 119, 11113-11123.
Rb(ecp-28), Cs(ecp-46): T. Leininger, A. Nicklass, W. Kuechle, H. Stoll, M. Dolg, A. Bergner, Chem. Phys. Lett., 1996, 255, 274-280.
Sr(ecp-28), Ba(ecp-46): M. Kaupp, P. V. Schleyer, H. Stoll and H. Preuss, J. Chem. Phys., 1991, 94, 1360-1366.
La(ecp-46): M. Dolg, H. Stoll, A. Savin, H. Preuss, Theor. Chim. Acta, 1989, 75, 173-194.
Lu(ecp-28): X. Cao, M. Dolg, J. Chem. Phys., 2001, 115, 7348-7355.

ECP parameters for Mo [Def2-ECP] have been obtained from:
TURBOMOLE (7.0.2)

================================================================================
                                        WARNINGS
                       Please study these warnings very carefully!
================================================================================


WARNING: your system is open-shell and RHF/RKS was chosen
  ===> : WILL SWITCH to UHF/UKS


WARNING: MDCI localization with Augmented Hessian Foster-Boys
  ===> : Switching off randomization!

WARNING: Post HF methods need fully converged wavefunctions
  ===> : Setting SCFConvForced true
         You can overwrite this default with %scf ConvForced false 


INFO   : the flag for use of LIBINT has been found!

================================================================================
                                       INPUT FILE
================================================================================
NAME = 42_Mo.in
|  1> #
|  2> # 42_Mo CCSD(T)/Def2-TZVPPD
|  3> #
|  4> ! CCSD(T) Def2-TZVPPD tightscf
|  5> 
|  6> *xyz 0 7
|  7>  Mo 0.0 0.0 0.0
|  8> *
|  9> 
| 10> %maxcore 5000 
| 11> 
| 12> %pal
| 13> nprocs 24
| 14> end
| 15> 
| 16> 
| 17>                          ****END OF INPUT****
================================================================================

                       ****************************
                       * Single Point Calculation *
                       ****************************

---------------------------------
CARTESIAN COORDINATES (ANGSTROEM)
---------------------------------
  Mo     0.000000    0.000000    0.000000

----------------------------
CARTESIAN COORDINATES (A.U.)
----------------------------
  NO LB      ZA    FRAG     MASS         X           Y           Z
   0 Mo   14.0000*   0    95.940    0.000000    0.000000    0.000000
* core charge reduced due to ECP

--------------------------------
INTERNAL COORDINATES (ANGSTROEM)
--------------------------------
 Mo     0   0   0     0.000000000000     0.00000000     0.00000000

---------------------------
INTERNAL COORDINATES (A.U.)
---------------------------
 Mo     0   0   0     0.000000000000     0.00000000     0.00000000

---------------------
BASIS SET INFORMATION
---------------------
There are 1 groups of distinct atoms

 Group   1 Type Mo  : 7s7p5d2f1g contracted to 6s4p3d2f1g pattern {211111/4111/311/11/1}

Atom   0Mo   basis set group =>   1
-------------------------
ECP PARAMETER INFORMATION
-------------------------

 Group 1, Type Mo ECP Def2-ECP (replacing 28 core electrons, lmax=3)

Atom   0Mo   ECP group =>   1



           ************************************************************
           *        Program running with 24 parallel MPI-processes    *
           *              working on a common directory               *
           ************************************************************
------------------------------------------------------------------------------
                           ORCA GTO INTEGRAL CALCULATION
------------------------------------------------------------------------------

                         BASIS SET STATISTICS AND STARTUP INFO

 # of primitive gaussian shells          ...   22
 # of primitive gaussian functions       ...   76
 # of contracted shells                  ...   16
 # of contracted basis functions         ...   56
 Highest angular momentum                ...    4
 Maximum contraction depth               ...    4
 Integral package used                   ... LIBINT
 Integral threshhold            Thresh   ...  2.500e-11
 Primitive cut-off              TCut     ...  2.500e-12


------------------------------ INTEGRAL EVALUATION ----------------------------


 * One electron integrals 

   ECP integrals                         ... done
 Pre-screening matrix                    ... done
 Shell pair data                         ... done (   0.000 sec)



           ************************************************************
           *        Program running with 24 parallel MPI-processes    *
           *              working on a common directory               *
           ************************************************************
-------------------------------------------------------------------------------
                                 ORCA SCF
-------------------------------------------------------------------------------

------------
SCF SETTINGS
------------
Hamiltonian:
 Ab initio Hamiltonian  Method          .... Hartree-Fock(GTOs)


General Settings:
 Integral files         IntName         .... 42_Mo
 Hartree-Fock type      HFTyp           .... UHF
 Total Charge           Charge          ....    0
 Multiplicity           Mult            ....    7
 Number of Electrons    NEL             ....   14
 Basis Dimension        Dim             ....   56
 Nuclear Repulsion      ENuc            ....      0.0000000000 Eh

Convergence Acceleration:
 DIIS                   CNVDIIS         .... on
   Start iteration      DIISMaxIt       ....    12
   Startup error        DIISStart       ....  0.200000
   # of expansion vecs  DIISMaxEq       ....     5
   Bias factor          DIISBfac        ....   1.050
   Max. coefficient     DIISMaxC        ....  10.000
 Newton-Raphson         CNVNR           .... off
 SOSCF                  CNVSOSCF        .... off
 Level Shifting         CNVShift        .... on
   Level shift para.    LevelShift      ....    0.2500
   Turn off err/grad.   ShiftErr        ....    0.0010
 Zerner damping         CNVZerner       .... off
 Static damping         CNVDamp         .... on
   Fraction old density DampFac         ....    0.7000
   Max. Damping (<1)    DampMax         ....    0.9800
   Min. Damping (>=0)   DampMin         ....    0.0000
   Turn off err/grad.   DampErr         ....    0.1000
 Fernandez-Rico         CNVRico         .... off

SCF Procedure:
 Maximum # iterations   MaxIter         ....   125
 SCF integral mode      SCFMode         .... Direct
   Integral package                     .... LIBINT
 Reset frequency        DirectResetFreq ....    20
 Integral Threshold     Thresh          ....  2.500e-11 Eh
 Primitive CutOff       TCut            ....  2.500e-12 Eh

Convergence Tolerance:
 Convergence Check Mode ConvCheckMode   .... Total+1el-Energy
 Convergence forced     ConvForced      .... 1
 Energy Change          TolE            ....  1.000e-08 Eh
 1-El. energy change                    ....  1.000e-05 Eh
 DIIS Error             TolErr          ....  5.000e-07


Diagonalization of the overlap matrix:
Smallest eigenvalue                        ... 1.942e-02
Time for diagonalization                   ...    0.001 sec
Threshold for overlap eigenvalues          ... 1.000e-08
Number of eigenvalues below threshold      ... 0
Time for construction of square roots      ...    0.010 sec
Total time needed                          ...    0.012 sec

-------------------
DFT GRID GENERATION
-------------------

General Integration Accuracy     IntAcc      ...  4.340
Radial Grid Type                 RadialGrid  ... Gauss-Chebyshev
Angular Grid (max. acc.)         AngularGrid ... Lebedev-110
Angular grid pruning method      GridPruning ... 3 (G Style)
Weight generation scheme         WeightScheme... Becke
Basis function cutoff            BFCut       ...    1.0000e-11
Integration weight cutoff        WCut        ...    1.0000e-14
Grids for H and He will be reduced by one unit

# of grid points (after initial pruning)     ...   3280 (   0.0 sec)
# of grid points (after weights+screening)   ...   3280 (   0.0 sec)
Grid point division into batches done        ...    0.0 sec
Reduced shell lists constructed in    0.0 sec

Total number of grid points                  ...     3280
Total number of batches                      ...       52
Average number of points per batch           ...       63
Average number of grid points per atom       ...     3280
Average number of shells per batch           ...     4.50 (28.12%)
Average number of basis functions per batch  ...    13.50 (24.11%)
Average number of large shells per batch     ...     3.75 (83.33%)
Average number of large basis fcns per batch ...     9.75 (72.22%)
Maximum spatial batch extension              ...  21.45, 33.74, 33.74 au
Average spatial batch extension              ...   1.24,  1.72,  1.95 au

Time for grid setup =    0.061 sec

------------------------------
INITIAL GUESS: MODEL POTENTIAL
------------------------------
Loading Hartree-Fock densities                     ... done
  calling /sw/apps/orca/orca_4_2_0_linux_x86-64_openmpi314/orca 42_Mo_atom42.inp > 42_Mo_atom42.out in order to generate an atomic fitting density for atom 0 (Mo with ECP) on-the-fly... 
    atom 0 (Mo), assumed electronic state with S=5: 1s2 2s2 2p6 3s2 3p6 4s2 3d10 4p6 5s2 4d4           ... done
Calculating cut-offs                               ... done
Setting up the integral package                    ... done
Initializing the effective Hamiltonian             ... done
Starting the Coulomb interaction                   ... done (   0.0 sec)
Reading the grid                                   ... done
Mapping shells                                     ... done
Starting the XC term evaluation                    ... done (   0.0 sec)
Transforming the Hamiltonian                       ... done (   0.0 sec)
Diagonalizing the Hamiltonian                      ... done (   0.0 sec)
Back transforming the eigenvectors                 ... done (   0.0 sec)
Now organizing SCF variables                       ... done
                      ------------------
                      INITIAL GUESS DONE (   2.3 sec)
                      ------------------
--------------
SCF ITERATIONS
--------------
ITER       Energy         Delta-E        Max-DP      RMS-DP      [F,P]     Damp
               ***  Starting incremental Fock matrix formation  ***
  0    -67.5042086182   0.000000000000 0.10827892  0.00228398  0.4314604 0.7000
  1    -67.5251891556  -0.020980537480 0.08143814  0.00182029  0.3015848 0.7000
  2    -67.5383119087  -0.013122753050 0.05592452  0.00131685  0.2090759 0.7000
                               ***Turning on DIIS***
  3    -67.5468201093  -0.008508200575 0.04132026  0.00095337  0.1454680 0.7000
  4    -67.6578157129  -0.110995603633 0.03649448  0.00073669  0.1017123 0.7000
  5    -67.6388880971   0.018927615795 0.10689676  0.00204554  0.0718250 0.0000
  6    -67.5677697679   0.071118329173 0.02244266  0.00038831  0.0016901 0.0000
  7    -67.5682738947  -0.000504126790 0.01882801  0.00031918  0.0012175 0.0000
  8    -67.5677190848   0.000554809923 0.02177833  0.00036893  0.0007684 0.0000
  9    -67.5670561244   0.000662960364 0.00522938  0.00008918  0.0001700 0.0000
 10    -67.5666917165   0.000364407982 0.00045751  0.00000793  0.0000175 0.0000
 11    -67.5666291819   0.000062534578 0.00005392  0.00000105  0.0000044 0.0000
                            ***DIIS convergence achieved***

               *****************************************************
               *                     SUCCESS                       *
               *           SCF CONVERGED AFTER  12 CYCLES          *
               *****************************************************


----------------
TOTAL SCF ENERGY
----------------

Total Energy       :          -67.56661613 Eh           -1838.58110 eV

Components:
Nuclear Repulsion  :            0.00000000 Eh               0.00000 eV
Electronic Energy  :          -67.56661613 Eh           -1838.58110 eV
One Electron Energy:         -116.64360831 Eh           -3174.03395 eV
Two Electron Energy:           49.07699218 Eh            1335.45285 eV

Virial components:
Potential Energy   :          -91.49859679 Eh           -2489.80340 eV
Kinetic Energy     :           23.93198066 Eh             651.22230 eV
Virial Ratio       :            3.82327723


---------------
SCF CONVERGENCE
---------------

  Last Energy change         ...    1.3048e-05  Tolerance :   1.0000e-08
  Last MAX-Density change    ...    2.8218e-05  Tolerance :   1.0000e-07
  Last RMS-Density change    ...    4.8605e-07  Tolerance :   5.0000e-09
  Last DIIS Error            ...    9.1925e-07  Tolerance :   5.0000e-07

             **** THE GBW FILE WAS UPDATED (42_Mo.gbw) ****
             **** DENSITY FILE WAS UPDATED (42_Mo.scfp) ****
             **** ENERGY FILE WAS UPDATED (42_Mo.en.tmp) ****
----------------------
UHF SPIN CONTAMINATION
----------------------

Expectation value of <S**2>     :    12.002774
Ideal value S*(S+1) for S=3.0   :    12.000000
Deviation                       :     0.002774

             **** THE GBW FILE WAS UPDATED (42_Mo.gbw) ****
             **** DENSITY FILE WAS UPDATED (42_Mo.scfp) ****
----------------
ORBITAL ENERGIES
----------------
                 SPIN UP ORBITALS
  NO   OCC          E(Eh)            E(eV) 
   0   1.0000      -3.047891       -82.9373 
   1   1.0000      -1.936022       -52.6818 
   2   1.0000      -1.936022       -52.6818 
   3   1.0000      -1.936022       -52.6818 
   4   1.0000      -0.341613        -9.2958 
   5   1.0000      -0.341613        -9.2958 
   6   1.0000      -0.341613        -9.2958 
   7   1.0000      -0.341613        -9.2958 
   8   1.0000      -0.341613        -9.2958 
   9   1.0000      -0.238238        -6.4828 
  10   0.0000       0.030962         0.8425 
  11   0.0000       0.030962         0.8425 
  12   0.0000       0.030962         0.8425 
  13   0.0000       0.166557         4.5322 
  14   0.0000       0.225124         6.1259 
  15   0.0000       0.225124         6.1259 
  16   0.0000       0.225124         6.1259 
  17   0.0000       0.401545        10.9266 
  18   0.0000       0.401545        10.9266 
  19   0.0000       0.401545        10.9266 
  20   0.0000       0.401545        10.9266 
  21   0.0000       0.401545        10.9266 
  22   0.0000       0.979204        26.6455 
  23   0.0000       0.979204        26.6455 
  24   0.0000       0.979204        26.6455 
  25   0.0000       0.979204        26.6455 
  26   0.0000       0.979204        26.6455 
  27   0.0000       0.979204        26.6455 
  28   0.0000       0.979204        26.6455 
  29   0.0000       1.409399        38.3517 
  30   0.0000       1.409399        38.3517 
  31   0.0000       1.409399        38.3517 
  32   0.0000       1.724449        46.9247 
  33   0.0000       1.724449        46.9247 
  34   0.0000       1.724449        46.9247 
  35   0.0000       1.724449        46.9247 
  36   0.0000       1.724449        46.9247 
  37   0.0000       1.736346        47.2484 
  38   0.0000       2.756656        75.0124 
  39   0.0000       2.756656        75.0124 
  40   0.0000       2.756656        75.0124 
  41   0.0000       2.756656        75.0124 
  42   0.0000       2.756656        75.0124 
  43   0.0000       2.756656        75.0124 
  44   0.0000       2.756656        75.0124 
  45   0.0000       2.756656        75.0124 
  46   0.0000       2.756656        75.0124 
  47   0.0000       2.967226        80.7423 
  48   0.0000       2.967226        80.7423 
  49   0.0000       2.967226        80.7423 
  50   0.0000       2.967226        80.7423 
  51   0.0000       2.967226        80.7423 
  52   0.0000       2.967226        80.7423 
  53   0.0000       2.967226        80.7423 
  54   0.0000      24.520281       667.2308 
  55   0.0000      85.867936      2336.5853 

                 SPIN DOWN ORBITALS
  NO   OCC          E(Eh)            E(eV) 
   0   1.0000      -2.812334       -76.5275 
   1   1.0000      -1.625011       -44.2188 
   2   1.0000      -1.625011       -44.2188 
   3   1.0000      -1.625011       -44.2188 
   4   0.0000       0.033288         0.9058 
   5   0.0000       0.070568         1.9203 
   6   0.0000       0.070568         1.9203 
   7   0.0000       0.070568         1.9203 
   8   0.0000       0.216428         5.8893 
   9   0.0000       0.216428         5.8893 
  10   0.0000       0.216428         5.8893 
  11   0.0000       0.216428         5.8893 
  12   0.0000       0.216428         5.8893 
  13   0.0000       0.258538         7.0352 
  14   0.0000       0.304977         8.2988 
  15   0.0000       0.304977         8.2988 
  16   0.0000       0.304977         8.2988 
  17   0.0000       0.520941        14.1755 
  18   0.0000       0.520941        14.1755 
  19   0.0000       0.520941        14.1755 
  20   0.0000       0.520941        14.1755 
  21   0.0000       0.520941        14.1755 
  22   0.0000       1.135674        30.9033 
  23   0.0000       1.135674        30.9033 
  24   0.0000       1.135674        30.9033 
  25   0.0000       1.135674        30.9033 
  26   0.0000       1.135674        30.9033 
  27   0.0000       1.135674        30.9033 
  28   0.0000       1.135674        30.9033 
  29   0.0000       1.508183        41.0397 
  30   0.0000       1.508183        41.0397 
  31   0.0000       1.508183        41.0397 
  32   0.0000       1.836994        49.9871 
  33   0.0000       1.836994        49.9871 
  34   0.0000       1.836994        49.9871 
  35   0.0000       1.836994        49.9871 
  36   0.0000       1.836994        49.9871 
  37   0.0000       1.842159        50.1277 
  38   0.0000       2.867143        78.0189 
  39   0.0000       2.867143        78.0189 
  40   0.0000       2.867143        78.0189 
  41   0.0000       2.867143        78.0189 
  42   0.0000       2.867143        78.0189 
  43   0.0000       2.867143        78.0189 
  44   0.0000       2.867143        78.0189 
  45   0.0000       2.867143        78.0189 
  46   0.0000       2.867143        78.0189 
  47   0.0000       3.120798        84.9212 
  48   0.0000       3.120798        84.9212 
  49   0.0000       3.120798        84.9212 
  50   0.0000       3.120798        84.9212 
  51   0.0000       3.120798        84.9212 
  52   0.0000       3.120798        84.9212 
  53   0.0000       3.120798        84.9212 
  54   0.0000      24.543122       667.8523 
  55   0.0000      85.870034      2336.6424 

                    ********************************
                    * MULLIKEN POPULATION ANALYSIS *
                    ********************************

--------------------------------------------
MULLIKEN ATOMIC CHARGES AND SPIN POPULATIONS
--------------------------------------------
   0 Mo:   -0.000000    6.000000
Sum of atomic charges         :   -0.0000000
Sum of atomic spin populations:    6.0000000

-----------------------------------------------------
MULLIKEN REDUCED ORBITAL CHARGES AND SPIN POPULATIONS
-----------------------------------------------------
CHARGE
  0 Mos       :     3.000000  s :     3.000000
      pz      :     2.000000  p :     6.000000
      px      :     2.000000
      py      :     2.000000
      dz2     :     1.000000  d :     5.000000
      dxz     :     1.000000
      dyz     :     1.000000
      dx2y2   :     1.000000
      dxy     :     1.000000
      f0      :     0.000000  f :     0.000000
      f+1     :     0.000000
      f-1     :     0.000000
      f+2     :     0.000000
      f-2     :     0.000000
      f+3     :     0.000000
      f-3     :     0.000000
      g0      :     0.000000  g :     0.000000
      g+1     :     0.000000
      g-1     :     0.000000
      g+2     :     0.000000
      g-2     :     0.000000
      g+3     :     0.000000
      g-3     :     0.000000
      g+4     :     0.000000
      g-4     :     0.000000

SPIN
  0 Mos       :     1.000000  s :     1.000000
      pz      :     0.000000  p :     0.000000
      px      :    -0.000000
      py      :    -0.000000
      dz2     :     1.000000  d :     5.000000
      dxz     :     1.000000
      dyz     :     1.000000
      dx2y2   :     1.000000
      dxy     :     1.000000
      f0      :     0.000000  f :     0.000000
      f+1     :     0.000000
      f-1     :     0.000000
      f+2     :     0.000000
      f-2     :     0.000000
      f+3     :     0.000000
      f-3     :     0.000000
      g0      :     0.000000  g :     0.000000
      g+1     :     0.000000
      g-1     :     0.000000
      g+2     :     0.000000
      g-2     :     0.000000
      g+3     :     0.000000
      g-3     :     0.000000
      g+4     :     0.000000
      g-4     :     0.000000


                     *******************************
                     * LOEWDIN POPULATION ANALYSIS *
                     *******************************

-------------------------------------------
LOEWDIN ATOMIC CHARGES AND SPIN POPULATIONS
-------------------------------------------
   0 Mo:   -0.000000    6.000000

----------------------------------------------------
LOEWDIN REDUCED ORBITAL CHARGES AND SPIN POPULATIONS
----------------------------------------------------
CHARGE
  0 Mos       :     3.000000  s :     3.000000
      pz      :     2.000000  p :     6.000000
      px      :     2.000000
      py      :     2.000000
      dz2     :     1.000000  d :     5.000000
      dxz     :     1.000000
      dyz     :     1.000000
      dx2y2   :     1.000000
      dxy     :     1.000000
      f0      :     0.000000  f :     0.000000
      f+1     :     0.000000
      f-1     :     0.000000
      f+2     :     0.000000
      f-2     :     0.000000
      f+3     :     0.000000
      f-3     :     0.000000
      g0      :     0.000000  g :     0.000000
      g+1     :     0.000000
      g-1     :     0.000000
      g+2     :     0.000000
      g-2     :     0.000000
      g+3     :     0.000000
      g-3     :     0.000000
      g+4     :     0.000000
      g-4     :     0.000000

SPIN
  0 Mos       :     1.000000  s :     1.000000
      pz      :     0.000000  p :     0.000000
      px      :    -0.000000
      py      :     0.000000
      dz2     :     1.000000  d :     5.000000
      dxz     :     1.000000
      dyz     :     1.000000
      dx2y2   :     1.000000
      dxy     :     1.000000
      f0      :     0.000000  f :     0.000000
      f+1     :     0.000000
      f-1     :     0.000000
      f+2     :     0.000000
      f-2     :     0.000000
      f+3     :     0.000000
      f-3     :     0.000000
      g0      :     0.000000  g :     0.000000
      g+1     :     0.000000
      g-1     :     0.000000
      g+2     :     0.000000
      g-2     :     0.000000
      g+3     :     0.000000
      g-3     :     0.000000
      g+4     :     0.000000
      g-4     :     0.000000


                      *****************************
                      * MAYER POPULATION ANALYSIS *
                      *****************************

  NA   - Mulliken gross atomic population
  ZA   - Total nuclear charge
  QA   - Mulliken gross atomic charge
  VA   - Mayer's total valence
  BVA  - Mayer's bonded valence
  FA   - Mayer's free valence

  ATOM       NA         ZA         QA         VA         BVA        FA
  0 Mo    14.0000    14.0000    -0.0000     6.0055     0.0000     6.0055

  Mayer bond orders larger than 0.100000


-------
TIMINGS
-------

Total SCF time: 0 days 0 hours 0 min 5 sec 

Total time                  ....       5.135 sec
Sum of individual times     ....       4.640 sec  ( 90.4%)

Fock matrix formation       ....       1.919 sec  ( 37.4%)
Diagonalization             ....       0.106 sec  (  2.1%)
Density matrix formation    ....       0.005 sec  (  0.1%)
Population analysis         ....       0.168 sec  (  3.3%)
Initial guess               ....       2.238 sec  ( 43.6%)
Orbital Transformation      ....       0.000 sec  (  0.0%)
Orbital Orthonormalization  ....       0.000 sec  (  0.0%)
DIIS solution               ....       0.142 sec  (  2.8%)


           ************************************************************
           *        Program running with 24 parallel MPI-processes    *
           *              working on a common directory               *
           ************************************************************


------------------------------------------------------------------------------- 
                              ORCA-MATRIX DRIVEN CI                            
------------------------------------------------------------------------------- 

--------------------------------
AUTOMATIC CHOICE OF INCORE LEVEL
--------------------------------

Memory available                           ...   2500.00 MB
Memory needed for S+T                      ...      2.66 MB
Memory needed for J+K                      ...      5.37 MB
Memory needed for DIIS                     ...     37.29 MB
Memory needed for 3-ext                    ...      7.43 MB
Memory needed for 4-ext                    ...     17.45 MB
Memory needed for triples                  ...      3.71 MB
 -> Final InCoreLevel    ... 5
 -> check shows that triples correction can be computed


Wavefunction type
-----------------
Correlation treatment                      ...      CCSD     
Single excitations                         ... ON
Orbital optimization                       ... OFF
Calculation of Z vector                    ... OFF
Calculation of Brueckner orbitals          ... OFF
Perturbative triple excitations            ... ON
Calculation of F12 correction              ... OFF
Frozen core treatment                      ... chemical core (0 el)
Reference Wavefunction                     ... UHF
  Alpha-MOs occ    :     0 ...    9 ( 10 MO's/ 10 electrons)
  Beta-MOs occ     :     0 ...    3 (  4 MO's/  4 electrons)
  Alpha-MOs virt   :    10 ...   55 ( 46 MO's              )
  Beta-MOs virt    :     4 ...   55 ( 52 MO's              )
Number of AO's                             ...     56
Number of electrons                        ...     14
Number of correlated electrons             ...     14

Algorithmic settings
--------------------
Integral transformation                    ... AO direct full transformation
K(C) Formation                             ... FULL-MO TRAFO
Maximum number of iterations               ...        50
Convergence tolerance (max. residuum)      ... 1.000e-05
Level shift for amplitude update           ... 2.000e-01
Maximum number of DIIS vectors             ...         7
DIIS turned on at iteration                ...         0
Damping before turning on DIIS             ...     0.500
Damping after turning on DIIS              ...     0.000
Pair specific amplitude update             ... OFF
Natural orbital iterations                 ... OFF
Perturbative natural orbital generation    ... OFF
Printlevel                                 ... 2

Memory handling:
----------------
Maximum memory for working arrays          ...   2500 MB
Data storage in matrix containers          ... UNCOMPRESSED
Data type for integral storage             ... DOUBLE
In-Core Storage of quantities:
   Amplitudes+Sigma Vector      ... YES
   J+K operators                ... YES
   DIIS vectors                 ... YES
   3-external integrals         ... YES
   4-external integrals         ... YES


Initializing the integral package          ... done
Warning: reference  - re-canonicalizations have been set to INT 1 VIRT 1

--------------------------
UNRESTRICTED FOCK OPERATOR
--------------------------

<ss|ss>:          231 b            0 skpd (  0.0%)    0.000 s ( 0.000 ms/b)
<ss|sp>:          504 b            0 skpd (  0.0%)    0.000 s ( 0.000 ms/b)
<ss|sd>:          378 b            0 skpd (  0.0%)    0.000 s ( 0.000 ms/b)
<ss|sf>:          252 b            0 skpd (  0.0%)    0.000 s ( 0.000 ms/b)
<ss|sg>:          126 b            0 skpd (  0.0%)    0.000 s ( 0.000 ms/b)
<ss|pp>:          210 b            0 skpd (  0.0%)    0.000 s ( 0.000 ms/b)
<ss|pd>:          252 b            0 skpd (  0.0%)    0.000 s ( 0.000 ms/b)
<ss|pf>:          168 b            0 skpd (  0.0%)    0.000 s ( 0.000 ms/b)
<ss|pg>:           84 b            0 skpd (  0.0%)    0.000 s ( 0.002 ms/b)
<ss|dd>:          126 b            0 skpd (  0.0%)    0.000 s ( 0.001 ms/b)
<ss|df>:          126 b            0 skpd (  0.0%)    0.000 s ( 0.001 ms/b)
<ss|dg>:           63 b            0 skpd (  0.0%)    0.000 s ( 0.004 ms/b)
<ss|ff>:           63 b            0 skpd (  0.0%)    0.000 s ( 0.002 ms/b)
<ss|fg>:           42 b            0 skpd (  0.0%)    0.000 s ( 0.006 ms/b)
<ss|gg>:           21 b            0 skpd (  0.0%)    0.000 s ( 0.006 ms/b)
<sp|sp>:          300 b            0 skpd (  0.0%)    0.000 s ( 0.000 ms/b)
<sp|sd>:          432 b            0 skpd (  0.0%)    0.000 s ( 0.000 ms/b)
<sp|sf>:          288 b            0 skpd (  0.0%)    0.000 s ( 0.000 ms/b)
<sp|sg>:          144 b            0 skpd (  0.0%)    0.000 s ( 0.001 ms/b)
<sp|pp>:          240 b            0 skpd (  0.0%)    0.000 s ( 0.001 ms/b)
<sp|pd>:          288 b            0 skpd (  0.0%)    0.000 s ( 0.001 ms/b)
<sp|pf>:          192 b            0 skpd (  0.0%)    0.000 s ( 0.001 ms/b)
<sp|pg>:           96 b            0 skpd (  0.0%)    0.001 s ( 0.006 ms/b)
<sp|dd>:          144 b            0 skpd (  0.0%)    0.000 s ( 0.002 ms/b)
<sp|df>: done
<sp|dg>: done
<sp|ff>: done
<sp|fg>: done
<sp|gg>: done
<sd|sd>:          171 b            0 skpd (  0.0%)    0.000 s ( 0.001 ms/b)
<sd|sf>:          216 b            0 skpd (  0.0%)    0.000 s ( 0.001 ms/b)
<sd|sg>:          108 b            0 skpd (  0.0%)    0.000 s ( 0.002 ms/b)
<sd|pp>:          180 b            0 skpd (  0.0%)    0.000 s ( 0.001 ms/b)
<sd|pd>:          216 b            0 skpd (  0.0%)    0.000 s ( 0.001 ms/b)
<sd|pf>: done
<sd|pg>: done
<sd|dd>:          108 b            0 skpd (  0.0%)    0.000 s ( 0.003 ms/b)
<sd|df>:          108 b            0 skpd (  0.0%)    0.001 s ( 0.006 ms/b)
<sd|dg>:           54 b            0 skpd (  0.0%)    0.001 s ( 0.025 ms/b)
<sd|ff>: done
<sd|fg>: done
<sd|gg>: done
<sf|sf>:           78 b            0 skpd (  0.0%)    0.000 s ( 0.002 ms/b)
<sf|sg>:           72 b            0 skpd (  0.0%)    0.000 s ( 0.002 ms/b)
<sf|pp>:          120 b            0 skpd (  0.0%)    0.000 s ( 0.001 ms/b)
<sf|pd>: done
<sf|pf>: done
<sf|pg>: done
<sf|dd>:           72 b            0 skpd (  0.0%)    0.000 s ( 0.006 ms/b)
<sf|df>: done
<sf|dg>: done
<sf|ff>: done
<sf|fg>: done
<sf|gg>: done
<sg|sg>:           21 b            0 skpd (  0.0%)    0.000 s ( 0.006 ms/b)
<sg|pp>:           60 b            0 skpd (  0.0%)    0.000 s ( 0.003 ms/b)
<sg|pd>: done
<sg|pf>: done
<sg|pg>: done
<sg|dd>:           36 b            0 skpd (  0.0%)    0.000 s ( 0.012 ms/b)
<sg|df>: done
<sg|dg>: done
<sg|ff>: done
<sg|fg>: done
<sg|gg>: done
<pp|pp>:           55 b            0 skpd (  0.0%)    0.000 s ( 0.003 ms/b)
<pp|pd>:          120 b            0 skpd (  0.0%)    0.000 s ( 0.003 ms/b)
<pp|pf>:           80 b            0 skpd (  0.0%)    0.000 s ( 0.004 ms/b)
<pp|pg>:           40 b            0 skpd (  0.0%)    0.001 s ( 0.014 ms/b)
<pp|dd>:           60 b            0 skpd (  0.0%)    0.001 s ( 0.009 ms/b)
<pp|df>:           60 b            0 skpd (  0.0%)    0.001 s ( 0.009 ms/b)
<pp|dg>:           30 b            0 skpd (  0.0%)    0.001 s ( 0.028 ms/b)
<pp|ff>:           30 b            0 skpd (  0.0%)    0.000 s ( 0.017 ms/b)
<pp|fg>:           20 b            0 skpd (  0.0%)    0.001 s ( 0.039 ms/b)
<pp|gg>:           10 b            0 skpd (  0.0%)    0.001 s ( 0.053 ms/b)
<pd|pd>:           78 b            0 skpd (  0.0%)    0.001 s ( 0.008 ms/b)
<pd|pf>:           96 b            0 skpd (  0.0%)    0.001 s ( 0.007 ms/b)
<pd|pg>:           48 b            0 skpd (  0.0%)    0.001 s ( 0.029 ms/b)
<pd|dd>:           72 b            0 skpd (  0.0%)    0.001 s ( 0.019 ms/b)
<pd|df>:           72 b            0 skpd (  0.0%)    0.001 s ( 0.012 ms/b)
<pd|dg>:           36 b            0 skpd (  0.0%)    0.001 s ( 0.039 ms/b)
<pd|ff>: done
<pd|fg>: done
<pd|gg>: done
<pf|pf>:           36 b            0 skpd (  0.0%)    0.000 s ( 0.010 ms/b)
<pf|pg>:           32 b            0 skpd (  0.0%)    0.001 s ( 0.025 ms/b)
<pf|dd>:           48 b            0 skpd (  0.0%)    0.001 s ( 0.014 ms/b)
<pf|df>: done
<pf|dg>: done
<pf|ff>: done
<pf|fg>: done
<pf|gg>: done
<pg|pg>:           10 b            0 skpd (  0.0%)    0.001 s ( 0.060 ms/b)
<pg|dd>:           24 b            0 skpd (  0.0%)    0.001 s ( 0.027 ms/b)
<pg|df>: done
<pg|dg>: done
<pg|ff>: done
<pg|fg>: done
<pg|gg>: done
<dd|dd>:           21 b            0 skpd (  0.0%)    0.001 s ( 0.038 ms/b)
<dd|df>:           36 b            0 skpd (  0.0%)    0.001 s ( 0.022 ms/b)
<dd|dg>:           18 b            0 skpd (  0.0%)    0.001 s ( 0.079 ms/b)
<dd|ff>:           18 b            0 skpd (  0.0%)    0.001 s ( 0.043 ms/b)
<dd|fg>:           12 b            0 skpd (  0.0%)    0.001 s ( 0.089 ms/b)
<dd|gg>:            6 b            0 skpd (  0.0%)    0.001 s ( 0.208 ms/b)
<df|df>:           21 b            0 skpd (  0.0%)    0.001 s ( 0.042 ms/b)
<df|dg>:           18 b            0 skpd (  0.0%)    0.001 s ( 0.072 ms/b)
<df|ff>: done
<df|fg>: done
<df|gg>: done
<dg|dg>:            6 b            0 skpd (  0.0%)    0.001 s ( 0.136 ms/b)
<dg|ff>: done
<dg|fg>: done
<dg|gg>: done
<ff|ff>: done
<ff|fg>: done
<ff|gg>: done
<fg|fg>: done
<fg|gg>: done
<gg|gg>: done
Recanonicalizing the internal orbitals
Recanonicalizing the virtual orbitals
Time needed for Fock operator              ...            0.073 sec
Reference energy                           ...    -67.566616393
Warning: for UHF the TrafoType has to be JK
Warning: for UHF the K(C)-option cannot be MO but must be AOX

-------------------------------
PARTIAL EXCHANGE TRANSFORMATION
-------------------------------

Transformation type                        ... two-operators
Generation of integrals (i,mue|j,nue)      ... ON
Generation of integrals (mue,kappa|nue,tau)... ON
Generation of integrals (i,mue|a,nue)      ... ON
Dimension of the basis                     ...   56
Number of internal alpha-MOs               ...   10 (   0-   9)
Number of internal beta-MOs                ...    4 (   0-   3)
Number of external alpha-MOs               ...   46 (  10-  55)
Number of external beta-MOs                ...   52 (   4-  55)
Pair cutoff                                ... 0.000e+00 Eh
Number of AO pairs in the trafo            ... 1596
Total Number of distinct AO pairs          ... 1596
Memory devoted for trafo                   ... 2500.0 MB 
Max. Number of MO pairs treated together   ... 104489      
Number Format for Storage                  ... Double (8 Byte)
Integral package used                      ... LIBINT

Starting integral evaluation:
    ... done with AO integral generation
Closing buffer AOK[aa] ( 0.00 GB; CompressionRatio= 0.00)
Closing buffer AOK[bb] ( 0.00 GB; CompressionRatio= 0.00)
Closing buffer AOK[ab] ( 0.00 GB; CompressionRatio= 0.00)
Closing buffer AOK[ba] ( 0.00 GB; CompressionRatio= 0.00)
Collecting buffer AOK 
Closing buffer IAAO1[aa] ( 0.00 GB; CompressionRatio= 0.00)
Closing buffer IAAO1[bb] ( 0.00 GB; CompressionRatio= 0.00)
Closing buffer IAAO1[ab] ( 0.00 GB; CompressionRatio= 0.00)
Closing buffer IAAO1[ba] ( 0.00 GB; CompressionRatio= 0.00)
Closing buffer IAAO2[aa] ( 0.00 GB; CompressionRatio= 0.00)
Closing buffer IAAO2[bb] ( 0.00 GB; CompressionRatio= 0.00)
Closing buffer IAAO2[ab] ( 0.00 GB; CompressionRatio= 0.00)
Closing buffer IAAO2[ba] ( 0.00 GB; CompressionRatio= 0.00)
Collecting buffer IAAO 
Closing buffer PRQS    ( 0.00 GB; CompressionRatio= 0.00)
Collecting buffer PRQS 
Number of alpha/alpha MO pairs in trafo    ...   55
Number of beta /beta  MO pairs in trafo    ...   10
Number of alpha/ beta MO pairs in trafo    ...   40
------------------------
SORTING OF (i,mue|j,nue)
------------------------

SORTING OF ALPHA/ALPHA PAIRS
IBATCH = 1 of  1
Closing buffer KAO[aa] ( 0.00 GB; CompressionRatio= 1.00)
Collecting buffer KAO 
SORTING OF BETA /BETA  PAIRS
IBATCH = 1 of  1
Closing buffer KAO[bb] ( 0.00 GB; CompressionRatio= 1.00)
Collecting buffer KAO 
SORTING OF ALPHA/BETA  PAIRS
IBATCH = 1 of  1
Closing buffer KAO[ab] ( 0.00 GB; CompressionRatio= 0.999521912351)
Collecting buffer KAO[ab] 
------------------------
SORTING OF (i,mue|a,nue)
------------------------

Number of alpha/alpha (i,a) pairs in trafo  ...  460
Number of beta /beta  (i,a) pairs in trafo  ...  208
Number of alpha/ beta (i,a) pairs in trafo  ...  520
Number of beta /alpha (i,a) pairs in trafo  ...  184
Setting up the alpha/alpha list             ... done
Setting up the beta /beta  list             ... done
Setting up the alpha/beta  list             ... done
Setting up the beta /alpha list             ... done
    ... Now sorting (i,mue|a,nue)integrals
    ... Integrals (i,b|a,c) will be made on the fly
SORTING OF ALPHA/ALPHA PAIRS
IBATCH = 1 of  1
Closing buffer IPAQ[aa]  0.00 GB; CompressionRatio= 1.00)
SORTING OF BETA /BETA  PAIRS
IBATCH = 1 of  1
Closing buffer IPAQ[bb]( 0.00 GB; CompressionRatio= 1.00)
SORTING OF ALPHA/BETA  PAIRS (NMatSort_ab=22)
IBATCH = 1 of  1
Closing buffer IPAQ[ab]( 0.00 GB; CompressionRatio= 1.00)
SORTING OF BETA/ALPHA  PAIRS
IBATCH = 1 of  1
Closing buffer IPAQ[ba]( 0.00 GB; CompressionRatio= 1.00)
N(AO-Batches) Done                         ...         0 
N(AO-Batches) Skipped                      ...         0 
N(IJ)-pairs Skipped                        ...         0 
TOTAL TIME for half transformation         ...     3.150 sec
AO-integral generation                     ...     0.000 sec
Half transformation                        ...     0.000 sec
K-integral sorting                         ...     0.852 sec
<ss|**>: 
------------------------------
PARTIAL COULOMB TRANSFORMATION
------------------------------

Transformation type                        ... two-operators
Dimension of the basis                     ...   56
Number of internal alpha-MOs               ...   10 (0-9)
Number of internal beta-MOs                ...    4 (0-3)
Pair cutoff                                ... 0.000e+00 Eh
Number of AO pairs included in the trafo   ... 1596
Total Number of distinct AO pairs          ... 1596
Memory devoted for trafo                   ... 2500.0 MB 
Max. Number of MO pairs treated together   ... 205313      
Max. Number of MOs treated per batch       ... 3666      
Number Format for Storage                  ... Double (8 Byte)
AO-integral source                         ... DIRECT
Integral package used                      ... LIBINT

Starting integral evaluation:
<sp|**>:         2856 b        0 skpd     0.001 s (  0.000 ms/b)
<sd|**>:         3264 b        0 skpd     0.014 s (  0.004 ms/b)
        2448 b        0 skpd     0.013 s (  0.005 ms/b)
<sf|**>: <sg|**>:         1632 b        0 skpd     0.014 s (  0.008 ms/b)
<pp|**>:          816 b        0 skpd     0.012 s (  0.015 ms/b)
        1360 b        0 skpd     0.017 s (  0.012 ms/b)
<pd|**>: <pf|**>:         1632 b        0 skpd     0.031 s (  0.019 ms/b)
        1088 b        0 skpd     0.033 s (  0.031 ms/b)
<pg|**>:          544 b        0 skpd     0.034 s (  0.063 ms/b)
<dd|**>:          816 b        0 skpd     0.030 s (  0.037 ms/b)
<df|**>:          816 b        0 skpd     0.049 s (  0.060 ms/b)
<dg|**>:          408 b        0 skpd     0.051 s (  0.126 ms/b)
<ff|**>:          408 b        0 skpd     0.049 s (  0.119 ms/b)
<fg|**>:          272 b        0 skpd     0.051 s (  0.187 ms/b)
<gg|**>:          136 b        0 skpd     0.040 s (  0.292 ms/b)
Closing buffer AOJ[aa] ( 0.00 GB; CompressionRatio= 0.97)
Closing buffer AOJ[bb] ( 0.00 GB; CompressionRatio= 0.00)
Collecting buffer AOJ 
    ... done with AO integral generation
Number of Alpha-MO pairs included          ...   55
Number of Beta-MO pairs included           ...   10
    ... Now sorting integrals
SORTING ALPHA/ALPHA PAIRS
IBATCH = 1 of  1
Closing buffer JAO[aa] ( 0.00 GB; CompressionRatio= 1.00)
SORTING BETA/BETA PAIRS
IBATCH = 1 of  1
Closing buffer JAO[bb] ( 0.00 GB; CompressionRatio= 1.00)
Collecting buffer JAO 
TOTAL TIME for half transformation         ...     0.598 sec
AO-integral generation                     ...     0.358 sec
Half transformation                        ...     0.082 sec
J-integral sorting                         ...     0.116 sec

-------------------------- SECOND HALF TRANSFORMATION -------------------------
Formation of (ij|kl),(ij|ka), (ij|ab)      ... ok (     0.139 sec)
Formation of (ik|jl),(ik|ja), (ia|jb)      ... ok (     0.218 sec)


-----------------------
SPIN UNRESTRICTED GUESS
-----------------------

Entering MDCI_UHF_Guess, Tailored=0
Spin-components of the MP2 energy:
EMP2(aa)=     -0.117321450
EMP2(bb)=     -0.025269422
EMP2(ab)=     -0.211694403

Initial guess performed in     0.008 sec
E(0)                                       ...    -67.566616393
E(MP2)                                     ...     -0.354285276
Initial E(tot)                             ...    -67.920901669
<T|T>                                      ...      0.085269828
Number of pairs included                   ... 91

------------------------------------------------
                  UHF COUPLED CLUSTER ITERATIONS
------------------------------------------------

Number of amplitudes to be optimized       ...       151736

Iter       E(tot)           E(Corr)          Delta-E          Residual     Time      <S|S>**1/2
  0    -67.920901669     -0.354285276     -0.000000000      0.017068141    0.16      0.000000175
                           *** Turning on DIIS ***
  1    -67.918075238     -0.351458844      0.002826432      0.006621134    0.13      0.021632017
  2    -67.922400174     -0.355783781     -0.004324936      0.004074605    0.14      0.031054264
  3    -67.922975488     -0.356359095     -0.000575315      0.002196891    0.14      0.037633491
  4    -67.923209715     -0.356593322     -0.000234227      0.000643685    0.14      0.042786125
  5    -67.923252086     -0.356635693     -0.000042371      0.000136226    0.14      0.044399765
  6    -67.923256971     -0.356640578     -0.000004885      0.000031752    0.14      0.044698530
  7    -67.923257400     -0.356641006     -0.000000428      0.000005026    0.15      0.044769689
               --- The Coupled-Cluster iterations have converged ---

----------------------
COUPLED CLUSTER ENERGY
----------------------

E(0)                                       ...    -67.566616393
E(CORR)                                    ...     -0.356641006
E(TOT)                                     ...    -67.923257400
Singles norm <S|S>**1/2                    ...      0.044769689 ( 0.041344138, 0.003425551)  
T1 diagnostic                              ...      0.011965203                              

------------------
LARGEST AMPLITUDES
------------------
   9a-> 13a  -1a-> -1a       0.051733
   8a-> 18a   6a-> 21a       0.022087
   8a-> 21a   6a-> 18a       0.022087
   7a-> 17a   4a-> 20a       0.021640
   7a-> 20a   4a-> 17a       0.021640
   7a-> 19a   5a-> 17a       0.020093
   7a-> 17a   5a-> 19a       0.020093
   8a-> 18a   5a-> 19a       0.019651
   8a-> 19a   5a-> 18a       0.019651
   5a-> 19a   4a-> 20a       0.019638
   5a-> 20a   4a-> 19a       0.019638
   6a-> 20a   4a-> 21a       0.019455
   6a-> 21a   4a-> 20a       0.019455
   6a-> 21a   5a-> 19a       0.019367
   6a-> 19a   5a-> 21a       0.019367
   9a-> 21a   6a-> 13a       0.018950

----------------------
UHF TRIPLES CORRECTION (Algorithm 1)
----------------------

Multiplier for the singles contribution    ...      1.000000000

SPIN-CASE Alpha-Alpha-Alpha:
10% done
20% done
30% done
40% done
50% done
60% done
70% done
80% done
90% done


SPIN-CASE Beta-Beta-Beta:
10% done
20% done
30% done
40% done
50% done
60% done
70% done
80% done
90% done


SPIN-CASE Alpha-Alpha-Beta:
10% done
20% done
30% done
40% done
50% done
60% done
70% done
80% done
90% done


SPIN-CASE Beta-Beta-Alpha:
10% done
20% done
30% done
40% done
50% done
60% done
70% done
80% done
90% done


Triples Correction (T)                     ...     -0.010249463
    alpha-alpha-alpha ... -0.002376927 ( 23.2%)
    alpha-alpha-beta  ... -0.005854603 ( 57.1%)
    alpha-beta -beta  ... -0.001918341 ( 18.7%)
    beta -beta -beta  ... -0.000099592 (  1.0%)
Scaling of triples based on CCSD energies (Peterson et al. Molecular Physics 113, 1551 (2015))
E(T*) = f*E(T) where f = E(F12-CCSD)/E(CCSD) 
f = CCSD (with F12)/ CCSD (without F12)    ...      1.000000000
Scaled triples correction (T)              ...     -0.010249463

Final correlation energy                   ...     -0.366890469
E(CCSD)                                    ...    -67.923257400
E(CCSD(T))                                 ...    -67.933506863



        !!!!!!!!!!!!!!!!!!!!!!!!!!!!!!!!!!!!!!!!!!!!!!!!!!!!!!!!!!!!!!!!!!!!!!!!!! 
        !  Warning: Densities are linearized densities                           !
        !!!!!!!!!!!!!!!!!!!!!!!!!!!!!!!!!!!!!!!!!!!!!!!!!!!!!!!!!!!!!!!!!!!!!!!!!! 

NORM  =      1.089976049 sqrt=     1.044019180
W(HF) =      0.917451352
------------------------------------------------------------------------------
                           ORCA POPULATION ANALYSIS
------------------------------------------------------------------------------
Input electron density              ... 42_Mo.mdcip
Input spin density                  ... 42_Mo.mdcir
BaseName (.gbw .S,...)              ... 42_Mo

                    ********************************
                    * MULLIKEN POPULATION ANALYSIS *
                    ********************************

------------------------------------------
MULLIKEN ATOMIC CHARGES AND SPIN DENSITIES
------------------------------------------
   0 Mo:   -0.000000    6.000000
Sum of atomic charges       :   -0.0000000
Sum of atomic spin densities:    6.0000000

---------------------------------------------------
MULLIKEN REDUCED ORBITAL CHARGES AND SPIN DENSITIES
---------------------------------------------------
CHARGE
  0 Mos       :     2.983084  s :     2.983084
      pz      :     1.987686  p :     5.963059
      px      :     1.987686
      py      :     1.987686
      dz2     :     0.997837  d :     4.989184
      dxz     :     0.997837
      dyz     :     0.997837
      dx2y2   :     0.997837
      dxy     :     0.997837
      f0      :     0.008513  f :     0.059593
      f+1     :     0.008513
      f-1     :     0.008513
      f+2     :     0.008513
      f-2     :     0.008513
      f+3     :     0.008513
      f-3     :     0.008513
      g0      :     0.000564  g :     0.005080
      g+1     :     0.000564
      g-1     :     0.000564
      g+2     :     0.000564
      g-2     :     0.000564
      g+3     :     0.000564
      g-3     :     0.000564
      g+4     :     0.000564
      g-4     :     0.000564

SPIN
  0 Mos       :     0.990749  s :     0.990749
      pz      :     0.015742  p :     0.047226
      px      :     0.015742
      py      :     0.015742
      dz2     :     0.982224  d :     4.911120
      dxz     :     0.982224
      dyz     :     0.982224
      dx2y2   :     0.982224
      dxy     :     0.982224
      f0      :     0.006763  f :     0.047344
      f+1     :     0.006763
      f-1     :     0.006763
      f+2     :     0.006763
      f-2     :     0.006763
      f+3     :     0.006763
      f-3     :     0.006763
      g0      :     0.000396  g :     0.003560
      g+1     :     0.000396
      g-1     :     0.000396
      g+2     :     0.000396
      g-2     :     0.000396
      g+3     :     0.000396
      g-3     :     0.000396
      g+4     :     0.000396
      g-4     :     0.000396


                     *******************************
                     * LOEWDIN POPULATION ANALYSIS *
                     *******************************

-----------------------------------------
LOEWDIN ATOMIC CHARGES AND SPIN DENSITIES
-----------------------------------------
   0 Mo:   -0.000000    6.000000

--------------------------------------------------
LOEWDIN REDUCED ORBITAL CHARGES AND SPIN DENSITIES
--------------------------------------------------
CHARGE
  0 Mos       :     2.983084  s :     2.983084
      pz      :     1.987686  p :     5.963059
      px      :     1.987686
      py      :     1.987686
      dz2     :     0.997837  d :     4.989184
      dxz     :     0.997837
      dyz     :     0.997837
      dx2y2   :     0.997837
      dxy     :     0.997837
      f0      :     0.008513  f :     0.059593
      f+1     :     0.008513
      f-1     :     0.008513
      f+2     :     0.008513
      f-2     :     0.008513
      f+3     :     0.008513
      f-3     :     0.008513
      g0      :     0.000564  g :     0.005080
      g+1     :     0.000564
      g-1     :     0.000564
      g+2     :     0.000564
      g-2     :     0.000564
      g+3     :     0.000564
      g-3     :     0.000564
      g+4     :     0.000564
      g-4     :     0.000564

SPIN
  0 Mos       :     0.990749  s :     0.990749
      pz      :     0.015742  p :     0.047226
      px      :     0.015742
      py      :     0.015742
      dz2     :     0.982224  d :     4.911120
      dxz     :     0.982224
      dyz     :     0.982224
      dx2y2   :     0.982224
      dxy     :     0.982224
      f0      :     0.006763  f :     0.047344
      f+1     :     0.006763
      f-1     :     0.006763
      f+2     :     0.006763
      f-2     :     0.006763
      f+3     :     0.006763
      f-3     :     0.006763
      g0      :     0.000396  g :     0.003560
      g+1     :     0.000396
      g-1     :     0.000396
      g+2     :     0.000396
      g-2     :     0.000396
      g+3     :     0.000396
      g-3     :     0.000396
      g+4     :     0.000396
      g-4     :     0.000396


                      *****************************
                      * MAYER POPULATION ANALYSIS *
                      *****************************

  NA   - Mulliken gross atomic population
  ZA   - Total nuclear charge
  QA   - Mulliken gross atomic charge
  VA   - Mayer's total valence
  BVA  - Mayer's bonded valence
  FA   - Mayer's free valence

  ATOM       NA         ZA         QA         VA         BVA        FA
  0 Mo    14.0000    14.0000    -0.0000     6.4364     0.0000     6.4364





------------------------------------------------------------------------------- 
                                     TIMINGS                                   
------------------------------------------------------------------------------- 


Total execution time                   ...        6.029 sec

Fock Matrix Formation                  ...        0.073 sec (  1.2%)
Initial Guess                          ...        0.008 sec (  0.1%)
DIIS Solver                            ...        0.095 sec (  1.6%)
State Vector Update                    ...        0.005 sec (  0.1%)
Sigma-vector construction              ...        1.050 sec ( 17.4%)
  <D|H|D>(0-ext Fock)                  ...        0.002 sec (  0.2% of sigma)
  <D|H|D>(0-ext)                       ...        0.005 sec (  0.5% of sigma)
  <D|H|D>(2-ext)                       ...        0.018 sec (  1.7% of sigma)
  <D|H|D>(4-ext)                       ...        0.486 sec ( 46.3% of sigma)
  <S|H|0>                              ...        0.031 sec (  3.0% of sigma)
  <D|H|S>(1-ext)                       ...        0.010 sec (  0.9% of sigma)
  Fock-dressing                        ...        0.146 sec ( 14.0% of sigma)
  (ik|jl)-dressing                     ...        0.007 sec (  0.7% of sigma)
  (ij|ab),(ia|jb)-dressing             ...        0.261 sec ( 24.9% of sigma)
Total Time for computing (T)           ...        0.113 sec (  1.9% of ALL)
  I/O of integral and amplitudes       ...        0.028 sec ( 24.7% of (T))
  External N**7 contributions          ...        0.028 sec ( 24.9% of (T))
  Internal N**7 contributions          ...        0.010 sec (  9.0% of (T))
  N**6 triples energy contributions    ...        0.042 sec ( 37.6% of (T))


-------------------------   --------------------
FINAL SINGLE POINT ENERGY       -67.933506862770
-------------------------   --------------------


                            ***************************************
                            *     ORCA property calculations      *
                            ***************************************

                                    ---------------------
                                    Active property flags
                                    ---------------------
   (+) Dipole Moment


------------------------------------------------------------------------------
                       ORCA ELECTRIC PROPERTIES CALCULATION
------------------------------------------------------------------------------

Dipole Moment Calculation                       ... on
Quadrupole Moment Calculation                   ... off
Polarizability Calculation                      ... off
GBWName                                         ... 42_Mo.gbw
Electron density file                           ... 42_Mo.scfp
The origin for moment calculation is the CENTER OF MASS  = ( 0.000000,  0.000000  0.000000)

-------------
DIPOLE MOMENT
-------------
                                X             Y             Z
Electronic contribution:     -0.00000       0.00000       0.00000
Nuclear contribution   :      0.00000       0.00000       0.00000
                        -----------------------------------------
Total Dipole Moment    :     -0.00000       0.00000       0.00000
                        -----------------------------------------
Magnitude (a.u.)       :      0.00000
Magnitude (Debye)      :      0.00000



--------------------
Rotational spectrum 
--------------------
 
Rotational constants in cm-1:     0.000000     0.000000     0.000000 
Rotational constants in MHz :     0.000000     0.000000     0.000000 

 Dipole components along the rotational axes: 
x,y,z [a.u.] :    -0.000000     0.000000     0.000000 
x,y,z [Debye]:    -0.000000     0.000000     0.000000 

 

                           *** MDCI DENSITY ***

------------------------------------------------------------------------------
                       ORCA ELECTRIC PROPERTIES CALCULATION
------------------------------------------------------------------------------

Dipole Moment Calculation                       ... on
Quadrupole Moment Calculation                   ... off
Polarizability Calculation                      ... off
GBWName                                         ... 42_Mo.gbw
Electron density file                           ... 42_Mo.mdcip
The origin for moment calculation is the CENTER OF MASS  = ( 0.000000,  0.000000  0.000000)

-------------
DIPOLE MOMENT
-------------
                                X             Y             Z
Electronic contribution:     -0.00000       0.00000       0.00000
Nuclear contribution   :      0.00000       0.00000       0.00000
                        -----------------------------------------
Total Dipole Moment    :     -0.00000       0.00000       0.00000
                        -----------------------------------------
Magnitude (a.u.)       :      0.00000
Magnitude (Debye)      :      0.00000



--------------------
Rotational spectrum 
--------------------
 
Rotational constants in cm-1:     0.000000     0.000000     0.000000 
Rotational constants in MHz :     0.000000     0.000000     0.000000 

 Dipole components along the rotational axes: 
x,y,z [a.u.] :    -0.000000     0.000000     0.000000 
x,y,z [Debye]:    -0.000000     0.000000     0.000000 

 

Timings for individual modules:

Sum of individual times         ...       12.879 sec (=   0.215 min)
GTO integral calculation        ...        0.874 sec (=   0.015 min)   6.8 %
SCF iterations                  ...        5.505 sec (=   0.092 min)  42.7 %
MDCI module                     ...        6.501 sec (=   0.108 min)  50.5 %
                             ****ORCA TERMINATED NORMALLY****
TOTAL RUN TIME: 0 days 0 hours 0 minutes 13 seconds 695 msec
