
                                 *****************
                                 * O   R   C   A *
                                 *****************

           --- An Ab Initio, DFT and Semiempirical electronic structure package ---

                  #######################################################
                  #                        -***-                        #
                  #          Department of theory and spectroscopy      #
                  #               Directorship: Frank Neese             #
                  #        Max Planck Institute fuer Kohlenforschung    #
                  #                Kaiser Wilhelm Platz 1               #
                  #                 D-45470 Muelheim/Ruhr               #
                  #                      Germany                        #
                  #                                                     #
                  #                  All rights reserved                #
                  #                        -***-                        #
                  #######################################################


                         Program Version 4.2.0 -  RELEASE  -


 With contributions from (in alphabetic order):
   Daniel Aravena         : Magnetic Suceptibility
   Michael Atanasov       : Ab Initio Ligand Field Theory (pilot matlab implementation)
   Alexander A. Auer      : GIAO ZORA, VPT2
   Ute Becker             : Parallelization
   Giovanni Bistoni       : ED, misc. LED, open-shell LED, HFLED
   Martin Brehm           : Molecular dynamics
   Dmytro Bykov           : SCF Hessian
   Vijay G. Chilkuri      : MRCI spin determinant printing, contributions to CSF-ICE
   Dipayan Datta          : RHF DLPNO-CCSD density
   Achintya Kumar Dutta   : EOM-CC, STEOM-CC
   Dmitry Ganyushin       : Spin-Orbit,Spin-Spin,Magnetic field MRCI
   Miquel Garcia          : C-PCM Hessian, Gaussian charge scheme
   Yang Guo               : DLPNO-NEVPT2, CIM, IAO-localization
   Andreas Hansen         : Spin unrestricted coupled pair/coupled cluster methods
   Benjamin Helmich-Paris : CASSCF linear response (MC-RPA)
   Lee Huntington         : MR-EOM, pCC
   Robert Izsak           : Overlap fitted RIJCOSX, COSX-SCS-MP3, EOM
   Christian Kollmar      : KDIIS, OOCD, Brueckner-CCSD(T), CCSD density
   Simone Kossmann        : Meta GGA functionals, TD-DFT gradient, OOMP2, MP2 Hessian
   Martin Krupicka        : AUTO-CI
   Lucas Lang             : DCDCAS
   Dagmar Lenk            : GEPOL surface, SMD
   Dimitrios Liakos       : Extrapolation schemes; Compound Job, initial MDCI parallelization
   Dimitrios Manganas     : Further ROCIS development; embedding schemes
   Dimitrios Pantazis     : SARC Basis sets
   Taras Petrenko         : DFT Hessian,TD-DFT gradient, ASA, ECA, R-Raman, ABS, FL, XAS/XES, NRVS
   Peter Pinski           : DLPNO-MP2, DLPNO-MP2 Gradient
   Christoph Reimann      : Effective Core Potentials
   Marius Retegan         : Local ZFS, SOC
   Christoph Riplinger    : Optimizer, TS searches, QM/MM, DLPNO-CCSD(T), (RO)-DLPNO pert. Triples
   Tobias Risthaus        : Range-separated hybrids, TD-DFT gradient, RPA, STAB
   Michael Roemelt        : Original ROCIS implementation
   Masaaki Saitow         : Open-shell DLPNO-CCSD energy and density
   Barbara Sandhoefer     : DKH picture change effects
   Avijit Sen             : IP-ROCIS
   Kantharuban Sivalingam : CASSCF convergence, NEVPT2, FIC-MRCI
   Bernardo de Souza      : ESD, SOC TD-DFT
   Georgi Stoychev        : AutoAux, RI-MP2 NMR
   Willem Van den Heuvel  : Paramagnetic NMR
   Boris Wezisla          : Elementary symmetry handling
   Frank Wennmohs         : Technical directorship


 We gratefully acknowledge several colleagues who have allowed us to
 interface, adapt or use parts of their codes:
   Stefan Grimme, W. Hujo, H. Kruse,             : VdW corrections, initial TS optimization,
                  C. Bannwarth                     DFT functionals, gCP, sTDA/sTD-DF
   Ed Valeev, F. Pavosevic, A. Kumar             : LibInt (2-el integral package), F12 methods
   Garnet Chan, S. Sharma, J. Yang, R. Olivares  : DMRG
   Ulf Ekstrom                                   : XCFun DFT Library
   Mihaly Kallay                                 : mrcc  (arbitrary order and MRCC methods)
   Andreas Klamt, Michael Diedenhofen            : otool_cosmo (COSMO solvation model)
   Jiri Pittner, Ondrej Demel                    : Mk-CCSD
   Frank Weinhold                                : gennbo (NPA and NBO analysis)
   Christopher J. Cramer and Donald G. Truhlar   : smd solvation model
   Lars Goerigk                                  : TD-DFT with DH, B97 family of functionals
   V. Asgeirsson, H. Jonsson                     : NEB implementation
   FAccTs GmbH                                   : IRC, NEB, NEB-TS, Multilevel, MM, QM/MM, CI optimization
   S Lehtola, MJT Oliveira, MAL Marques          : LibXC Library


 Your calculation uses the libint2 library for the computation of 2-el integrals
 For citations please refer to: http://libint.valeyev.net

 Your ORCA version has been built with support for libXC version: 4.2.3
 For citations please refer to: https://tddft.org/programs/libxc/

 This ORCA versions uses:
   CBLAS   interface :  Fast vector & matrix operations
   LAPACKE interface :  Fast linear algebra routines
   SCALAPACK package :  Parallel linear algebra routines


----- Orbital basis set information -----
Your calculation utilizes the basis: def2-TZVPPD
   F. Weigend and R. Ahlrichs, Phys. Chem. Chem. Phys. 7, 3297 (2005).
   D. Rappoport and F. Furche, J. Chem. Phys. 133 134105 (2010).

cite the ECPs for Cd [Def2-ECP] as follows:
Ce-Yb(ecp-28): M. Dolg, H. Stoll, H.Preuss, J. Chem. Phys., 1989, 90, 1730-1734.
Y-Cd(ecp-28), Hf-Hg(ecp-46): D. Andrae,U. Haeussermann, M. Dolg, H. Stoll, H. Preuss, Theor. Chim. Acta, 1990, 77, 123-141.
In-Sb(ecp-28), Tl-Bi(ecp-46): B. Metz, H. Stoll, M. Dolg, J. Chem. Phys., 2000, 113, 2563-2569.
Te-Xe(ecp-28), Po-Rn(ecp-46): K. A. Peterson, D. Figgen, E. Goll, H. Stoll, M. Dolg, J. Chem. Phys., 2003, 119, 11113-11123.
Rb(ecp-28), Cs(ecp-46): T. Leininger, A. Nicklass, W. Kuechle, H. Stoll, M. Dolg, A. Bergner, Chem. Phys. Lett., 1996, 255, 274-280.
Sr(ecp-28), Ba(ecp-46): M. Kaupp, P. V. Schleyer, H. Stoll and H. Preuss, J. Chem. Phys., 1991, 94, 1360-1366.
La(ecp-46): M. Dolg, H. Stoll, A. Savin, H. Preuss, Theor. Chim. Acta, 1989, 75, 173-194.
Lu(ecp-28): X. Cao, M. Dolg, J. Chem. Phys., 2001, 115, 7348-7355.

ECP parameters for Cd [Def2-ECP] have been obtained from:
TURBOMOLE (7.0.2)

================================================================================
                                        WARNINGS
                       Please study these warnings very carefully!
================================================================================


WARNING: MDCI localization with Augmented Hessian Foster-Boys
  ===> : Switching off randomization!

WARNING: Post HF methods need fully converged wavefunctions
  ===> : Setting SCFConvForced true
         You can overwrite this default with %scf ConvForced false 


INFO   : the flag for use of LIBINT has been found!

================================================================================
                                       INPUT FILE
================================================================================
NAME = 48_Cd.in
|  1> #
|  2> # 48_Cd CCSD(T)/Def2-TZVPPD
|  3> #
|  4> ! CCSD(T) Def2-TZVPPD tightscf
|  5> 
|  6> *xyz 0 1
|  7>  Cd 0.0 0.0 0.0
|  8> *
|  9> 
| 10> %maxcore 5000 
| 11> 
| 12> %pal
| 13> nprocs 24
| 14> end
| 15> 
| 16> 
| 17>                          ****END OF INPUT****
================================================================================

                       ****************************
                       * Single Point Calculation *
                       ****************************

---------------------------------
CARTESIAN COORDINATES (ANGSTROEM)
---------------------------------
  Cd     0.000000    0.000000    0.000000

----------------------------
CARTESIAN COORDINATES (A.U.)
----------------------------
  NO LB      ZA    FRAG     MASS         X           Y           Z
   0 Cd   20.0000*   0   112.410    0.000000    0.000000    0.000000
* core charge reduced due to ECP

--------------------------------
INTERNAL COORDINATES (ANGSTROEM)
--------------------------------
 Cd     0   0   0     0.000000000000     0.00000000     0.00000000

---------------------------
INTERNAL COORDINATES (A.U.)
---------------------------
 Cd     0   0   0     0.000000000000     0.00000000     0.00000000

---------------------
BASIS SET INFORMATION
---------------------
There are 1 groups of distinct atoms

 Group   1 Type Cd  : 7s7p6d2f1g contracted to 6s4p3d2f1g pattern {211111/4111/411/11/1}

Atom   0Cd   basis set group =>   1
-------------------------
ECP PARAMETER INFORMATION
-------------------------

 Group 1, Type Cd ECP Def2-ECP (replacing 28 core electrons, lmax=3)

Atom   0Cd   ECP group =>   1



           ************************************************************
           *        Program running with 24 parallel MPI-processes    *
           *              working on a common directory               *
           ************************************************************
------------------------------------------------------------------------------
                           ORCA GTO INTEGRAL CALCULATION
------------------------------------------------------------------------------

                         BASIS SET STATISTICS AND STARTUP INFO

 # of primitive gaussian shells          ...   23
 # of primitive gaussian functions       ...   81
 # of contracted shells                  ...   16
 # of contracted basis functions         ...   56
 Highest angular momentum                ...    4
 Maximum contraction depth               ...    4
 Integral package used                   ... LIBINT
 Integral threshhold            Thresh   ...  2.500e-11
 Primitive cut-off              TCut     ...  2.500e-12


------------------------------ INTEGRAL EVALUATION ----------------------------


 * One electron integrals 

   ECP integrals                         ... done
 Pre-screening matrix                    ... done
 Shell pair data                         ... done (   0.000 sec)



           ************************************************************
           *        Program running with 24 parallel MPI-processes    *
           *              working on a common directory               *
           ************************************************************
-------------------------------------------------------------------------------
                                 ORCA SCF
-------------------------------------------------------------------------------

------------
SCF SETTINGS
------------
Hamiltonian:
 Ab initio Hamiltonian  Method          .... Hartree-Fock(GTOs)


General Settings:
 Integral files         IntName         .... 48_Cd
 Hartree-Fock type      HFTyp           .... RHF
 Total Charge           Charge          ....    0
 Multiplicity           Mult            ....    1
 Number of Electrons    NEL             ....   20
 Basis Dimension        Dim             ....   56
 Nuclear Repulsion      ENuc            ....      0.0000000000 Eh

Convergence Acceleration:
 DIIS                   CNVDIIS         .... on
   Start iteration      DIISMaxIt       ....    12
   Startup error        DIISStart       ....  0.200000
   # of expansion vecs  DIISMaxEq       ....     5
   Bias factor          DIISBfac        ....   1.050
   Max. coefficient     DIISMaxC        ....  10.000
 Newton-Raphson         CNVNR           .... off
 SOSCF                  CNVSOSCF        .... off
 Level Shifting         CNVShift        .... on
   Level shift para.    LevelShift      ....    0.2500
   Turn off err/grad.   ShiftErr        ....    0.0010
 Zerner damping         CNVZerner       .... off
 Static damping         CNVDamp         .... on
   Fraction old density DampFac         ....    0.7000
   Max. Damping (<1)    DampMax         ....    0.9800
   Min. Damping (>=0)   DampMin         ....    0.0000
   Turn off err/grad.   DampErr         ....    0.1000
 Fernandez-Rico         CNVRico         .... off

SCF Procedure:
 Maximum # iterations   MaxIter         ....   125
 SCF integral mode      SCFMode         .... Direct
   Integral package                     .... LIBINT
 Reset frequency        DirectResetFreq ....    20
 Integral Threshold     Thresh          ....  2.500e-11 Eh
 Primitive CutOff       TCut            ....  2.500e-12 Eh

Convergence Tolerance:
 Convergence Check Mode ConvCheckMode   .... Total+1el-Energy
 Convergence forced     ConvForced      .... 1
 Energy Change          TolE            ....  1.000e-08 Eh
 1-El. energy change                    ....  1.000e-05 Eh
 DIIS Error             TolErr          ....  5.000e-07


Diagonalization of the overlap matrix:
Smallest eigenvalue                        ... 1.904e-02
Time for diagonalization                   ...    0.002 sec
Threshold for overlap eigenvalues          ... 1.000e-08
Number of eigenvalues below threshold      ... 0
Time for construction of square roots      ...    0.013 sec
Total time needed                          ...    0.015 sec

-------------------
DFT GRID GENERATION
-------------------

General Integration Accuracy     IntAcc      ...  4.340
Radial Grid Type                 RadialGrid  ... Gauss-Chebyshev
Angular Grid (max. acc.)         AngularGrid ... Lebedev-110
Angular grid pruning method      GridPruning ... 3 (G Style)
Weight generation scheme         WeightScheme... Becke
Basis function cutoff            BFCut       ...    1.0000e-11
Integration weight cutoff        WCut        ...    1.0000e-14
Grids for H and He will be reduced by one unit

# of grid points (after initial pruning)     ...   3258 (   0.0 sec)
# of grid points (after weights+screening)   ...   3258 (   0.0 sec)
Grid point division into batches done        ...    0.0 sec
Reduced shell lists constructed in    0.0 sec

Total number of grid points                  ...     3258
Total number of batches                      ...       51
Average number of points per batch           ...       63
Average number of grid points per atom       ...     3258
Average number of shells per batch           ...     3.75 (23.44%)
Average number of basis functions per batch  ...     9.75 (17.41%)
Average number of large shells per batch     ...     1.50 (40.00%)
Average number of large basis fcns per batch ...     3.00 (30.77%)
Maximum spatial batch extension              ...  24.86, 37.49, 37.49 au
Average spatial batch extension              ...   1.44,  1.96,  2.21 au

Time for grid setup =    0.064 sec

------------------------------
INITIAL GUESS: MODEL POTENTIAL
------------------------------
Loading Hartree-Fock densities                     ... done
  calling /sw/apps/orca/orca_4_2_0_linux_x86-64_openmpi314/orca 48_Cd_atom48.inp > 48_Cd_atom48.out in order to generate an atomic fitting density for atom 0 (Cd with ECP) on-the-fly... 
    atom 0 (Cd), assumed electronic state with S=1: 1s2 2s2 2p6 3s2 3p6 4s2 3d10 4p6 5s2 4d10           ... done
Calculating cut-offs                               ... done
Setting up the integral package                    ... done
Initializing the effective Hamiltonian             ... done
Starting the Coulomb interaction                   ... done (   0.0 sec)
Reading the grid                                   ... done
Mapping shells                                     ... done
Starting the XC term evaluation                    ... done (   0.0 sec)
Transforming the Hamiltonian                       ... done (   0.0 sec)
Diagonalizing the Hamiltonian                      ... done (   0.0 sec)
Back transforming the eigenvectors                 ... done (   0.0 sec)
Now organizing SCF variables                       ... done
                      ------------------
                      INITIAL GUESS DONE (   1.4 sec)
                      ------------------
--------------
SCF ITERATIONS
--------------
ITER       Energy         Delta-E        Max-DP      RMS-DP      [F,P]     Damp
               ***  Starting incremental Fock matrix formation  ***
  0   -166.8460806346   0.000000000000 0.11510945  0.00317438  0.4755700 0.7000
  1   -166.8567327616  -0.010652127027 0.08582108  0.00263221  0.3339208 0.7000
  2   -166.8640788543  -0.007346092636 0.06118318  0.00204264  0.2343392 0.7000
                               ***Turning on DIIS***
  3   -166.8693944929  -0.005315638606 0.05185068  0.00159607  0.1652570 0.7000
  4   -166.9428551173  -0.073460624382 0.04928750  0.00141082  0.1170302 0.7000
  5   -166.9289561902   0.013898927081 0.14860104  0.00410958  0.0828875 0.0000
  6   -166.8849568100   0.043999380201 0.02734175  0.00069617  0.0032768 0.0000
  7   -166.8868537705  -0.001896960554 0.01577631  0.00039112  0.0018605 0.0000
  8   -166.8894115638  -0.002557793276 0.01528598  0.00038050  0.0009935 0.0000
  9   -166.8842070510   0.005204512831 0.00205206  0.00005098  0.0001438 0.0000
 10   -166.8839969788   0.000210072209 0.00010156  0.00000251  0.0000061 0.0000
                            ***DIIS convergence achieved***

               *****************************************************
               *                     SUCCESS                       *
               *           SCF CONVERGED AFTER  11 CYCLES          *
               *****************************************************


----------------
TOTAL SCF ENERGY
----------------

Total Energy       :         -166.88392171 Eh           -4541.14238 eV

Components:
Nuclear Repulsion  :            0.00000000 Eh               0.00000 eV
Electronic Energy  :         -166.88392171 Eh           -4541.14238 eV
One Electron Energy:         -297.38119791 Eh           -8092.15379 eV
Two Electron Energy:          130.49727620 Eh            3551.01142 eV

Virial components:
Potential Energy   :         -231.45403386 Eh           -6298.18445 eV
Kinetic Energy     :           64.57011215 Eh            1757.04208 eV
Virial Ratio       :            3.58453820


---------------
SCF CONVERGENCE
---------------

  Last Energy change         ...    7.5266e-05  Tolerance :   1.0000e-08
  Last MAX-Density change    ...    4.4776e-06  Tolerance :   1.0000e-07
  Last RMS-Density change    ...    1.1360e-07  Tolerance :   5.0000e-09
  Last DIIS Error            ...    6.9742e-07  Tolerance :   5.0000e-07

             **** THE GBW FILE WAS UPDATED (48_Cd.gbw) ****
             **** DENSITY FILE WAS UPDATED (48_Cd.scfp) ****
             **** ENERGY FILE WAS UPDATED (48_Cd.en.tmp) ****
             **** THE GBW FILE WAS UPDATED (48_Cd.gbw) ****
             **** DENSITY FILE WAS UPDATED (48_Cd.scfp) ****
----------------
ORBITAL ENERGIES
----------------

  NO   OCC          E(Eh)            E(eV) 
   0   2.0000      -4.804015      -130.7239 
   1   2.0000      -3.169594       -86.2490 
   2   2.0000      -3.169594       -86.2490 
   3   2.0000      -3.169594       -86.2490 
   4   2.0000      -0.719898       -19.5894 
   5   2.0000      -0.719898       -19.5894 
   6   2.0000      -0.719898       -19.5894 
   7   2.0000      -0.719898       -19.5894 
   8   2.0000      -0.719898       -19.5894 
   9   2.0000      -0.281039        -7.6475 
  10   0.0000       0.057069         1.5529 
  11   0.0000       0.057069         1.5529 
  12   0.0000       0.057069         1.5529 
  13   0.0000       0.224822         6.1177 
  14   0.0000       0.363193         9.8830 
  15   0.0000       0.363193         9.8830 
  16   0.0000       0.363193         9.8830 
  17   0.0000       0.640389        17.4259 
  18   0.0000       0.640389        17.4259 
  19   0.0000       0.640389        17.4259 
  20   0.0000       0.640389        17.4259 
  21   0.0000       0.640389        17.4259 
  22   0.0000       1.982531        53.9474 
  23   0.0000       1.982531        53.9474 
  24   0.0000       1.982531        53.9474 
  25   0.0000       1.982531        53.9474 
  26   0.0000       1.982531        53.9474 
  27   0.0000       1.982531        53.9474 
  28   0.0000       1.982531        53.9474 
  29   0.0000       2.214048        60.2473 
  30   0.0000       2.214048        60.2473 
  31   0.0000       2.214048        60.2473 
  32   0.0000       2.523815        68.6765 
  33   0.0000       2.784940        75.7821 
  34   0.0000       2.784940        75.7821 
  35   0.0000       2.784940        75.7821 
  36   0.0000       2.784940        75.7821 
  37   0.0000       2.784940        75.7821 
  38   0.0000       5.872088       159.7876 
  39   0.0000       5.872088       159.7876 
  40   0.0000       5.872088       159.7876 
  41   0.0000       5.872088       159.7876 
  42   0.0000       5.872088       159.7876 
  43   0.0000       5.872088       159.7876 
  44   0.0000       5.872088       159.7876 
  45   0.0000       6.712748       182.6632 
  46   0.0000       6.712748       182.6632 
  47   0.0000       6.712748       182.6632 
  48   0.0000       6.712748       182.6632 
  49   0.0000       6.712748       182.6632 
  50   0.0000       6.712748       182.6632 
  51   0.0000       6.712748       182.6632 
  52   0.0000       6.712748       182.6632 
  53   0.0000       6.712748       182.6632 
  54   0.0000      36.048775       980.9370 
  55   0.0000     115.427251      3140.9352 

                    ********************************
                    * MULLIKEN POPULATION ANALYSIS *
                    ********************************

-----------------------
MULLIKEN ATOMIC CHARGES
-----------------------
   0 Cd:   -0.000000
Sum of atomic charges:   -0.0000000

--------------------------------
MULLIKEN REDUCED ORBITAL CHARGES
--------------------------------
  0 Cds       :     4.000000  s :     4.000000
      pz      :     2.000000  p :     6.000000
      px      :     2.000000
      py      :     2.000000
      dz2     :     2.000000  d :    10.000000
      dxz     :     2.000000
      dyz     :     2.000000
      dx2y2   :     2.000000
      dxy     :     2.000000
      f0      :     0.000000  f :     0.000000
      f+1     :     0.000000
      f-1     :     0.000000
      f+2     :     0.000000
      f-2     :     0.000000
      f+3     :     0.000000
      f-3     :     0.000000
      g0      :     0.000000  g :     0.000000
      g+1     :     0.000000
      g-1     :     0.000000
      g+2     :     0.000000
      g-2     :     0.000000
      g+3     :     0.000000
      g-3     :     0.000000
      g+4     :     0.000000
      g-4     :     0.000000


                     *******************************
                     * LOEWDIN POPULATION ANALYSIS *
                     *******************************

----------------------
LOEWDIN ATOMIC CHARGES
----------------------
   0 Cd:   -0.000000

-------------------------------
LOEWDIN REDUCED ORBITAL CHARGES
-------------------------------
  0 Cds       :     4.000000  s :     4.000000
      pz      :     2.000000  p :     6.000000
      px      :     2.000000
      py      :     2.000000
      dz2     :     2.000000  d :    10.000000
      dxz     :     2.000000
      dyz     :     2.000000
      dx2y2   :     2.000000
      dxy     :     2.000000
      f0      :     0.000000  f :     0.000000
      f+1     :     0.000000
      f-1     :     0.000000
      f+2     :     0.000000
      f-2     :     0.000000
      f+3     :     0.000000
      f-3     :     0.000000
      g0      :     0.000000  g :     0.000000
      g+1     :     0.000000
      g-1     :     0.000000
      g+2     :     0.000000
      g-2     :     0.000000
      g+3     :     0.000000
      g-3     :     0.000000
      g+4     :     0.000000
      g-4     :     0.000000


                      *****************************
                      * MAYER POPULATION ANALYSIS *
                      *****************************

  NA   - Mulliken gross atomic population
  ZA   - Total nuclear charge
  QA   - Mulliken gross atomic charge
  VA   - Mayer's total valence
  BVA  - Mayer's bonded valence
  FA   - Mayer's free valence

  ATOM       NA         ZA         QA         VA         BVA        FA
  0 Cd    20.0000    20.0000    -0.0000    -0.0000     0.0000    -0.0000

  Mayer bond orders larger than 0.100000


--------------------------
ATOM BASIS FOR ELEMENT Cd
--------------------------
 NewGTO Cd
 S 7
    1         20.000000000000        -0.172908503482
    2         16.309051661000         0.369017777809
    3          6.451270990100        -0.711838615851
    4          1.535004739000         0.889151979545
    5          0.689836315200         0.428361964721
    6          0.134757209800         0.010095964425
    7          0.047416874500        -0.002398832133
 S 7
    1         20.000000000000         0.049281905419
    2         16.309051661000        -0.105176430642
    3          6.451270990100         0.217670091150
    4          1.535004739000        -0.368228873907
    5          0.689836315200        -0.245331991494
    6          0.134757209800         0.614806233449
    7          0.047416874500         0.555988031448
 S 7
    1         20.000000000000         0.037708782432
    2         16.309051661000        -0.080477309194
    3          6.451270990100         0.172224617722
    4          1.535004739000        -0.203584511305
    5          0.689836315200        -0.550111920067
    6          0.134757209800         2.163886675875
    7          0.047416874500        -1.833269209623
 S 7
    1         20.000000000000        -0.256465016210
    2         16.309051661000         0.547342371611
    3          6.451270990100        -1.113275371332
    4          1.535004739000         3.734612700683
    5          0.689836315200        -3.793693276667
    6          0.134757209800         1.586735780609
    7          0.047416874500        -0.655917362881
 S 7
    1         20.000000000000        -1.721062907579
    2         16.309051661000         3.673057118846
    3          6.451270990100        -3.496429017199
    4          1.535004739000         2.271635176509
    5          0.689836315200        -1.367625371772
    6          0.134757209800         0.376017277836
    7          0.047416874500        -0.153159322044
 S 7
    1         20.000000000000        -1.861178182721
    2         16.309051661000         3.972088262074
    3          6.451270990100        -1.668178620809
    4          1.535004739000         0.751746429921
    5          0.689836315200        -0.430651698004
    6          0.134757209800         0.116871092565
    7          0.047416874500        -0.047707716904
 P 7
    1         14.000681404000        -0.069353564784
    2          8.309401987200         0.254276204771
    3          2.202005812200        -0.492155292401
    4          1.077924613700        -0.497168151880
    5          0.501118798500        -0.164994118028
    6          0.160000000000        -0.008629502301
    7          0.051600000000         0.000391973030
 P 7
    1         14.000681404000        -0.012201301965
    2          8.309401987200         0.044734553539
    3          2.202005812200        -0.086584378973
    4          1.077924613700        -0.087466286232
    5          0.501118798500         0.007478237494
    6          0.160000000000         0.064460364665
    7          0.051600000000         0.957950237027
 P 7
    1         14.000681404000        -0.019609258143
    2          8.309401987200         0.071894901936
    3          2.202005812200        -0.139153628301
    4          1.077924613700        -0.140570980904
    5          0.501118798500        -0.307752029801
    6          0.160000000000         1.646479099216
    7          0.051600000000        -1.080185126918
 P 7
    1         14.000681404000        -0.113153083713
    2          8.309401987200         0.414861684099
    3          2.202005812200        -0.802970823115
    4          1.077924613700        -0.811149501601
    5          0.501118798500         2.310235603831
    6          0.160000000000        -1.411055676641
    7          0.051600000000         0.475384796989
 D 6
    1         30.380789793000         0.003254540998
    2         11.474551578000        -0.014212199683
    3          3.050739490300         0.249619757816
    4          1.362202852400         0.449060297705
    5          0.563994098900         0.374990178158
    6          0.209166865400         0.140830898196
 D 6
    1         30.380789793000         0.001232706082
    2         11.474551578000        -0.005383083206
    3          3.050739490300         0.094547216906
    4          1.362202852400         0.170088304478
    5          0.563994098900         0.463219570177
    6          0.209166865400        -1.200806377606
 D 6
    1         30.380789793000         0.005731042992
    2         11.474551578000        -0.025026794088
    3          3.050739490300         0.439564769592
    4          1.362202852400         0.790767077178
    5          0.563994098900        -1.653998633330
    6          0.209166865400         0.736062716819
 F 2
    1          2.840010000000         0.196432379575
    2          0.820480000000         0.897547378131
 F 2
    1          2.840010000000         1.097308414937
    2          0.820480000000        -0.661120368199
 G 1
    1          1.789600000000         1.000000000000
 end
  // -----------------------------------------------
  // The basis set
  // -----------------------------------------------
  BAS[ATNO] = new BFNGauss[NSH];
  // Basis function   1 L = s
  InitBFNGauss(BAS[ATNO][  0]);
  BAS[ATNO][  0].l  = 0;
  BAS[ATNO][  0].ng = 7;
  BAS[ATNO][  0].a[  0] =        20.000000000000;     BAS[ATNO][  0].d[  0] =        -0.172908503482;
  BAS[ATNO][  0].a[  1] =        16.309051661000;     BAS[ATNO][  0].d[  1] =         0.369017777809;
  BAS[ATNO][  0].a[  2] =         6.451270990100;     BAS[ATNO][  0].d[  2] =        -0.711838615851;
  BAS[ATNO][  0].a[  3] =         1.535004739000;     BAS[ATNO][  0].d[  3] =         0.889151979545;
  BAS[ATNO][  0].a[  4] =         0.689836315200;     BAS[ATNO][  0].d[  4] =         0.428361964721;
  BAS[ATNO][  0].a[  5] =         0.134757209800;     BAS[ATNO][  0].d[  5] =         0.010095964425;
  BAS[ATNO][  0].a[  6] =         0.047416874500;     BAS[ATNO][  0].d[  6] =        -0.002398832133;

  // Basis function   2 L = s
  InitBFNGauss(BAS[ATNO][  1]);
  BAS[ATNO][  1].l  = 0;
  BAS[ATNO][  1].ng = 7;
  BAS[ATNO][  1].a[  0] =        20.000000000000;     BAS[ATNO][  1].d[  0] =         0.049281905419;
  BAS[ATNO][  1].a[  1] =        16.309051661000;     BAS[ATNO][  1].d[  1] =        -0.105176430642;
  BAS[ATNO][  1].a[  2] =         6.451270990100;     BAS[ATNO][  1].d[  2] =         0.217670091150;
  BAS[ATNO][  1].a[  3] =         1.535004739000;     BAS[ATNO][  1].d[  3] =        -0.368228873907;
  BAS[ATNO][  1].a[  4] =         0.689836315200;     BAS[ATNO][  1].d[  4] =        -0.245331991494;
  BAS[ATNO][  1].a[  5] =         0.134757209800;     BAS[ATNO][  1].d[  5] =         0.614806233449;
  BAS[ATNO][  1].a[  6] =         0.047416874500;     BAS[ATNO][  1].d[  6] =         0.555988031448;

  // Basis function   3 L = s
  InitBFNGauss(BAS[ATNO][  2]);
  BAS[ATNO][  2].l  = 0;
  BAS[ATNO][  2].ng = 7;
  BAS[ATNO][  2].a[  0] =        20.000000000000;     BAS[ATNO][  2].d[  0] =         0.037708782432;
  BAS[ATNO][  2].a[  1] =        16.309051661000;     BAS[ATNO][  2].d[  1] =        -0.080477309194;
  BAS[ATNO][  2].a[  2] =         6.451270990100;     BAS[ATNO][  2].d[  2] =         0.172224617722;
  BAS[ATNO][  2].a[  3] =         1.535004739000;     BAS[ATNO][  2].d[  3] =        -0.203584511305;
  BAS[ATNO][  2].a[  4] =         0.689836315200;     BAS[ATNO][  2].d[  4] =        -0.550111920067;
  BAS[ATNO][  2].a[  5] =         0.134757209800;     BAS[ATNO][  2].d[  5] =         2.163886675875;
  BAS[ATNO][  2].a[  6] =         0.047416874500;     BAS[ATNO][  2].d[  6] =        -1.833269209623;

  // Basis function   4 L = s
  InitBFNGauss(BAS[ATNO][  3]);
  BAS[ATNO][  3].l  = 0;
  BAS[ATNO][  3].ng = 7;
  BAS[ATNO][  3].a[  0] =        20.000000000000;     BAS[ATNO][  3].d[  0] =         0.256465016210;
  BAS[ATNO][  3].a[  1] =        16.309051661000;     BAS[ATNO][  3].d[  1] =        -0.547342371611;
  BAS[ATNO][  3].a[  2] =         6.451270990100;     BAS[ATNO][  3].d[  2] =         1.113275371332;
  BAS[ATNO][  3].a[  3] =         1.535004739000;     BAS[ATNO][  3].d[  3] =        -3.734612700683;
  BAS[ATNO][  3].a[  4] =         0.689836315200;     BAS[ATNO][  3].d[  4] =         3.793693276667;
  BAS[ATNO][  3].a[  5] =         0.134757209800;     BAS[ATNO][  3].d[  5] =        -1.586735780609;
  BAS[ATNO][  3].a[  6] =         0.047416874500;     BAS[ATNO][  3].d[  6] =         0.655917362881;

  // Basis function   5 L = s
  InitBFNGauss(BAS[ATNO][  4]);
  BAS[ATNO][  4].l  = 0;
  BAS[ATNO][  4].ng = 7;
  BAS[ATNO][  4].a[  0] =        20.000000000000;     BAS[ATNO][  4].d[  0] =        -1.721062907579;
  BAS[ATNO][  4].a[  1] =        16.309051661000;     BAS[ATNO][  4].d[  1] =         3.673057118846;
  BAS[ATNO][  4].a[  2] =         6.451270990100;     BAS[ATNO][  4].d[  2] =        -3.496429017199;
  BAS[ATNO][  4].a[  3] =         1.535004739000;     BAS[ATNO][  4].d[  3] =         2.271635176509;
  BAS[ATNO][  4].a[  4] =         0.689836315200;     BAS[ATNO][  4].d[  4] =        -1.367625371772;
  BAS[ATNO][  4].a[  5] =         0.134757209800;     BAS[ATNO][  4].d[  5] =         0.376017277836;
  BAS[ATNO][  4].a[  6] =         0.047416874500;     BAS[ATNO][  4].d[  6] =        -0.153159322044;

  // Basis function   6 L = s
  InitBFNGauss(BAS[ATNO][  5]);
  BAS[ATNO][  5].l  = 0;
  BAS[ATNO][  5].ng = 7;
  BAS[ATNO][  5].a[  0] =        20.000000000000;     BAS[ATNO][  5].d[  0] =        -1.861178182721;
  BAS[ATNO][  5].a[  1] =        16.309051661000;     BAS[ATNO][  5].d[  1] =         3.972088262074;
  BAS[ATNO][  5].a[  2] =         6.451270990100;     BAS[ATNO][  5].d[  2] =        -1.668178620809;
  BAS[ATNO][  5].a[  3] =         1.535004739000;     BAS[ATNO][  5].d[  3] =         0.751746429921;
  BAS[ATNO][  5].a[  4] =         0.689836315200;     BAS[ATNO][  5].d[  4] =        -0.430651698004;
  BAS[ATNO][  5].a[  5] =         0.134757209800;     BAS[ATNO][  5].d[  5] =         0.116871092565;
  BAS[ATNO][  5].a[  6] =         0.047416874500;     BAS[ATNO][  5].d[  6] =        -0.047707716904;

  // Basis function   7 L = p
  InitBFNGauss(BAS[ATNO][  6]);
  BAS[ATNO][  6].l  = 1;
  BAS[ATNO][  6].ng = 7;
  BAS[ATNO][  6].a[  0] =        14.000681404000;     BAS[ATNO][  6].d[  0] =         0.069353564784;
  BAS[ATNO][  6].a[  1] =         8.309401987200;     BAS[ATNO][  6].d[  1] =        -0.254276204771;
  BAS[ATNO][  6].a[  2] =         2.202005812200;     BAS[ATNO][  6].d[  2] =         0.492155292401;
  BAS[ATNO][  6].a[  3] =         1.077924613700;     BAS[ATNO][  6].d[  3] =         0.497168151880;
  BAS[ATNO][  6].a[  4] =         0.501118798500;     BAS[ATNO][  6].d[  4] =         0.164994118028;
  BAS[ATNO][  6].a[  5] =         0.160000000000;     BAS[ATNO][  6].d[  5] =         0.008629502301;
  BAS[ATNO][  6].a[  6] =         0.051600000000;     BAS[ATNO][  6].d[  6] =        -0.000391973030;

  // Basis function   8 L = p
  InitBFNGauss(BAS[ATNO][  7]);
  BAS[ATNO][  7].l  = 1;
  BAS[ATNO][  7].ng = 7;
  BAS[ATNO][  7].a[  0] =        14.000681404000;     BAS[ATNO][  7].d[  0] =        -0.012201301965;
  BAS[ATNO][  7].a[  1] =         8.309401987200;     BAS[ATNO][  7].d[  1] =         0.044734553539;
  BAS[ATNO][  7].a[  2] =         2.202005812200;     BAS[ATNO][  7].d[  2] =        -0.086584378973;
  BAS[ATNO][  7].a[  3] =         1.077924613700;     BAS[ATNO][  7].d[  3] =        -0.087466286232;
  BAS[ATNO][  7].a[  4] =         0.501118798500;     BAS[ATNO][  7].d[  4] =         0.007478237494;
  BAS[ATNO][  7].a[  5] =         0.160000000000;     BAS[ATNO][  7].d[  5] =         0.064460364665;
  BAS[ATNO][  7].a[  6] =         0.051600000000;     BAS[ATNO][  7].d[  6] =         0.957950237027;

  // Basis function   9 L = p
  InitBFNGauss(BAS[ATNO][  8]);
  BAS[ATNO][  8].l  = 1;
  BAS[ATNO][  8].ng = 7;
  BAS[ATNO][  8].a[  0] =        14.000681404000;     BAS[ATNO][  8].d[  0] =        -0.019609258143;
  BAS[ATNO][  8].a[  1] =         8.309401987200;     BAS[ATNO][  8].d[  1] =         0.071894901936;
  BAS[ATNO][  8].a[  2] =         2.202005812200;     BAS[ATNO][  8].d[  2] =        -0.139153628301;
  BAS[ATNO][  8].a[  3] =         1.077924613700;     BAS[ATNO][  8].d[  3] =        -0.140570980904;
  BAS[ATNO][  8].a[  4] =         0.501118798500;     BAS[ATNO][  8].d[  4] =        -0.307752029801;
  BAS[ATNO][  8].a[  5] =         0.160000000000;     BAS[ATNO][  8].d[  5] =         1.646479099216;
  BAS[ATNO][  8].a[  6] =         0.051600000000;     BAS[ATNO][  8].d[  6] =        -1.080185126918;

  // Basis function  10 L = p
  InitBFNGauss(BAS[ATNO][  9]);
  BAS[ATNO][  9].l  = 1;
  BAS[ATNO][  9].ng = 7;
  BAS[ATNO][  9].a[  0] =        14.000681404000;     BAS[ATNO][  9].d[  0] =        -0.113153083713;
  BAS[ATNO][  9].a[  1] =         8.309401987200;     BAS[ATNO][  9].d[  1] =         0.414861684099;
  BAS[ATNO][  9].a[  2] =         2.202005812200;     BAS[ATNO][  9].d[  2] =        -0.802970823115;
  BAS[ATNO][  9].a[  3] =         1.077924613700;     BAS[ATNO][  9].d[  3] =        -0.811149501601;
  BAS[ATNO][  9].a[  4] =         0.501118798500;     BAS[ATNO][  9].d[  4] =         2.310235603831;
  BAS[ATNO][  9].a[  5] =         0.160000000000;     BAS[ATNO][  9].d[  5] =        -1.411055676641;
  BAS[ATNO][  9].a[  6] =         0.051600000000;     BAS[ATNO][  9].d[  6] =         0.475384796989;

  // Basis function  11 L = d
  InitBFNGauss(BAS[ATNO][ 10]);
  BAS[ATNO][ 10].l  = 2;
  BAS[ATNO][ 10].ng = 6;
  BAS[ATNO][ 10].a[  0] =        30.380789793000;     BAS[ATNO][ 10].d[  0] =         0.003254540998;
  BAS[ATNO][ 10].a[  1] =        11.474551578000;     BAS[ATNO][ 10].d[  1] =        -0.014212199683;
  BAS[ATNO][ 10].a[  2] =         3.050739490300;     BAS[ATNO][ 10].d[  2] =         0.249619757816;
  BAS[ATNO][ 10].a[  3] =         1.362202852400;     BAS[ATNO][ 10].d[  3] =         0.449060297705;
  BAS[ATNO][ 10].a[  4] =         0.563994098900;     BAS[ATNO][ 10].d[  4] =         0.374990178158;
  BAS[ATNO][ 10].a[  5] =         0.209166865400;     BAS[ATNO][ 10].d[  5] =         0.140830898196;

  // Basis function  12 L = d
  InitBFNGauss(BAS[ATNO][ 11]);
  BAS[ATNO][ 11].l  = 2;
  BAS[ATNO][ 11].ng = 6;
  BAS[ATNO][ 11].a[  0] =        30.380789793000;     BAS[ATNO][ 11].d[  0] =        -0.001232706082;
  BAS[ATNO][ 11].a[  1] =        11.474551578000;     BAS[ATNO][ 11].d[  1] =         0.005383083206;
  BAS[ATNO][ 11].a[  2] =         3.050739490300;     BAS[ATNO][ 11].d[  2] =        -0.094547216906;
  BAS[ATNO][ 11].a[  3] =         1.362202852400;     BAS[ATNO][ 11].d[  3] =        -0.170088304478;
  BAS[ATNO][ 11].a[  4] =         0.563994098900;     BAS[ATNO][ 11].d[  4] =        -0.463219570177;
  BAS[ATNO][ 11].a[  5] =         0.209166865400;     BAS[ATNO][ 11].d[  5] =         1.200806377606;

  // Basis function  13 L = d
  InitBFNGauss(BAS[ATNO][ 12]);
  BAS[ATNO][ 12].l  = 2;
  BAS[ATNO][ 12].ng = 6;
  BAS[ATNO][ 12].a[  0] =        30.380789793000;     BAS[ATNO][ 12].d[  0] =        -0.005731042992;
  BAS[ATNO][ 12].a[  1] =        11.474551578000;     BAS[ATNO][ 12].d[  1] =         0.025026794088;
  BAS[ATNO][ 12].a[  2] =         3.050739490300;     BAS[ATNO][ 12].d[  2] =        -0.439564769592;
  BAS[ATNO][ 12].a[  3] =         1.362202852400;     BAS[ATNO][ 12].d[  3] =        -0.790767077178;
  BAS[ATNO][ 12].a[  4] =         0.563994098900;     BAS[ATNO][ 12].d[  4] =         1.653998633330;
  BAS[ATNO][ 12].a[  5] =         0.209166865400;     BAS[ATNO][ 12].d[  5] =        -0.736062716819;

  // Basis function  14 L = f
  InitBFNGauss(BAS[ATNO][ 13]);
  BAS[ATNO][ 13].l  = 3;
  BAS[ATNO][ 13].ng = 2;
  BAS[ATNO][ 13].a[  0] =         2.840010000000;     BAS[ATNO][ 13].d[  0] =         0.196432379575;
  BAS[ATNO][ 13].a[  1] =         0.820480000000;     BAS[ATNO][ 13].d[  1] =         0.897547378131;

  // Basis function  15 L = f
  InitBFNGauss(BAS[ATNO][ 14]);
  BAS[ATNO][ 14].l  = 3;
  BAS[ATNO][ 14].ng = 2;
  BAS[ATNO][ 14].a[  0] =         2.840010000000;     BAS[ATNO][ 14].d[  0] =         1.097308414937;
  BAS[ATNO][ 14].a[  1] =         0.820480000000;     BAS[ATNO][ 14].d[  1] =        -0.661120368199;

  // Basis function  16 L = g
  InitBFNGauss(BAS[ATNO][ 15]);
  BAS[ATNO][ 15].l  = 4;
  BAS[ATNO][ 15].ng = 1;
  BAS[ATNO][ 15].a[  0] =         1.789600000000;     BAS[ATNO][ 15].d[  0] =         1.000000000000;

-------------------------------------------
RADIAL EXPECTATION VALUES <R**-3> TO <R**3>
-------------------------------------------
   0 :     0.000000     1.637555     1.218911     0.902314     0.894779     0.974769
   1 :     0.000000     0.210207     0.392223     3.088350    11.068017    45.344530
   2 :     0.000000     0.147561     0.298684     4.553519    24.467728   144.201368
   3 :     0.000000     0.968260     0.832071     1.778889     4.863967    19.715912
   4 :     0.000000     7.273599     2.369257     0.547150     0.528435     1.268982
   5 :     0.000000    71.688873     6.740818     0.208757     0.083191     0.130841
   6 :     2.031051     1.432050     1.133011     0.982984     1.075999     1.311958
   7 :     2.031051     1.432050     1.133011     0.982984     1.075999     1.311958
   8 :     2.031051     1.432050     1.133011     0.982984     1.075999     1.311958
   9 :     0.046076     0.083123     0.252986     4.571309    23.237735   128.921175
  10 :     0.046076     0.083123     0.252986     4.571309    23.237735   128.921175
  11 :     0.046076     0.083123     0.252986     4.571309    23.237735   128.921175
  12 :     0.139339     0.172189     0.345031     3.875475    19.003368   109.998172
  13 :     0.139339     0.172189     0.345031     3.875475    19.003368   109.998172
  14 :     0.139339     0.172189     0.345031     3.875475    19.003368   109.998172
  15 :     0.834349     0.643197     0.677982     2.104970     6.363805    26.779010
  16 :     0.834349     0.643197     0.677982     2.104970     6.363805    26.779010
  17 :     0.834349     0.643197     0.677982     2.104970     6.363805    26.779010
  18 :     1.374334     1.034307     0.932878     1.272827     1.924507    17.245971
  19 :     1.374334     1.034307     0.932878     1.272827     1.924507    17.245971
  20 :     1.374334     1.034307     0.932878     1.272827     1.924507    17.245971
  21 :     1.374334     1.034307     0.932878     1.272827     1.924507    17.245971
  22 :     1.374334     1.034307     0.932878     1.272827     1.924507    17.245971
  23 :     0.235596     0.240523     0.407523     2.942083     9.440233   159.811799
  24 :     0.235596     0.240523     0.407523     2.942083     9.440233   159.811799
  25 :     0.235596     0.240523     0.407523     2.942083     9.440233   159.811799
  26 :     0.235596     0.240523     0.407523     2.942083     9.440233   159.811799
  27 :     0.235596     0.240523     0.407523     2.942083     9.440233   159.811799
  28 :     1.505060     0.969067     0.826106     1.719430     3.914347    54.737686
  29 :     1.505060     0.969067     0.826106     1.719430     3.914347    54.737686
  30 :     1.505060     0.969067     0.826106     1.719430     3.914347    54.737686
  31 :     1.505060     0.969067     0.826106     1.719430     3.914347    54.737686
  32 :     1.505060     0.969067     0.826106     1.719430     3.914347    54.737686
  33 :     0.568623     0.603285     0.733536     1.499028     2.431300    29.488595
  34 :     0.568623     0.603285     0.733536     1.499028     2.431300    29.488595
  35 :     0.568623     0.603285     0.733536     1.499028     2.431300    29.488595
  36 :     0.568623     0.603285     0.733536     1.499028     2.431300    29.488595
  37 :     0.568623     0.603285     0.733536     1.499028     2.431300    29.488595
  38 :     0.568623     0.603285     0.733536     1.499028     2.431300    29.488595
  39 :     0.568623     0.603285     0.733536     1.499028     2.431300    29.488595
  40 :     2.188536     1.488423     1.136306     1.054985     1.364328    14.827814
  41 :     2.188536     1.488423     1.136306     1.054985     1.364328    14.827814
  42 :     2.188536     1.488423     1.136306     1.054985     1.364328    14.827814
  43 :     2.188536     1.488423     1.136306     1.054985     1.364328    14.827814
  44 :     2.188536     1.488423     1.136306     1.054985     1.364328    14.827814
  45 :     2.188536     1.488423     1.136306     1.054985     1.364328    14.827814
  46 :     2.188536     1.488423     1.136306     1.054985     1.364328    14.827814
  47 :     0.776200     0.795378     0.867456     1.211802     1.536656    14.219844
  48 :     0.776200     0.795378     0.867456     1.211802     1.536656    14.219844
  49 :     0.776200     0.795378     0.867456     1.211802     1.536656    14.219844
  50 :     0.776200     0.795378     0.867456     1.211802     1.536656    14.219844
  51 :     0.776200     0.795378     0.867456     1.211802     1.536656    14.219844
  52 :     0.776200     0.795378     0.867456     1.211802     1.536656    14.219844
  53 :     0.776200     0.795378     0.867456     1.211802     1.536656    14.219844
  54 :     0.776200     0.795378     0.867456     1.211802     1.536656    14.219844
  55 :     0.776200     0.795378     0.867456     1.211802     1.536656    14.219844
-------
TIMINGS
-------

Total SCF time: 0 days 0 hours 0 min 3 sec 

Total time                  ....       3.964 sec
Sum of individual times     ....       3.412 sec  ( 86.1%)

Fock matrix formation       ....       1.846 sec  ( 46.6%)
Diagonalization             ....       0.040 sec  (  1.0%)
Density matrix formation    ....       0.003 sec  (  0.1%)
Population analysis         ....       0.028 sec  (  0.7%)
Initial guess               ....       1.312 sec  ( 33.1%)
Orbital Transformation      ....       0.000 sec  (  0.0%)
Orbital Orthonormalization  ....       0.000 sec  (  0.0%)
DIIS solution               ....       0.120 sec  (  3.0%)


           ************************************************************
           *        Program running with 24 parallel MPI-processes    *
           *              working on a common directory               *
           ************************************************************


------------------------------------------------------------------------------- 
                              ORCA-MATRIX DRIVEN CI                            
------------------------------------------------------------------------------- 

--------------------------------
AUTOMATIC CHOICE OF INCORE LEVEL
--------------------------------

Memory available                           ...   2500.00 MB
Memory needed for S+T                      ...      2.66 MB
Memory needed for J+K                      ...      5.37 MB
Memory needed for DIIS                     ...     37.29 MB
Memory needed for 3-ext                    ...      7.43 MB
Memory needed for 4-ext                    ...     17.45 MB
Memory needed for triples                  ...      3.71 MB
 -> Final InCoreLevel    ... 5
 -> check shows that triples correction can be computed


Wavefunction type
-----------------
Correlation treatment                      ...      CCSD     
Single excitations                         ... ON
Orbital optimization                       ... OFF
Calculation of Z vector                    ... OFF
Calculation of Brueckner orbitals          ... OFF
Perturbative triple excitations            ... ON
Calculation of F12 correction              ... OFF
Frozen core treatment                      ... chemical core (0 el)
Reference Wavefunction                     ... RHF
  Internal Orbitals:     0 ...    9 ( 10 MO's/ 20 electrons)
  Virtual  Orbitals:    10 ...   55 ( 46 MO's              )
Number of AO's                             ...     56
Number of electrons                        ...     20
Number of correlated electrons             ...     20

Algorithmic settings
--------------------
Integral transformation                    ... AO direct full transformation
K(C) Formation                             ... FULL-MO TRAFO
Maximum number of iterations               ...        50
Convergence tolerance (max. residuum)      ... 1.000e-05
Level shift for amplitude update           ... 2.000e-01
Maximum number of DIIS vectors             ...         7
DIIS turned on at iteration                ...         0
Damping before turning on DIIS             ...     0.500
Damping after turning on DIIS              ...     0.000
Pair specific amplitude update             ... OFF
Natural orbital iterations                 ... OFF
Perturbative natural orbital generation    ... OFF
Printlevel                                 ... 2

Memory handling:
----------------
Maximum memory for working arrays          ...   2500 MB
Data storage in matrix containers          ... UNCOMPRESSED
Data type for integral storage             ... DOUBLE
In-Core Storage of quantities:
   Amplitudes+Sigma Vector      ... YES
   J+K operators                ... YES
   DIIS vectors                 ... YES
   3-external integrals         ... YES
   4-external integrals         ... YES


Initializing the integral package          ... done
Warning: reference  - re-canonicalizations have been set to INT 1 VIRT 1

--------------------------
CLOSED-SHELL FOCK OPERATOR
--------------------------

<ss|ss>:          231 b            0 skpd (  0.0%)    0.000 s ( 0.000 ms/b)
<ss|sp>:          504 b            0 skpd (  0.0%)    0.000 s ( 0.000 ms/b)
<ss|sd>:          378 b            0 skpd (  0.0%)    0.000 s ( 0.000 ms/b)
<ss|sf>:          252 b            0 skpd (  0.0%)    0.000 s ( 0.000 ms/b)
<ss|sg>:          126 b            0 skpd (  0.0%)    0.000 s ( 0.000 ms/b)
<ss|pp>:          210 b            0 skpd (  0.0%)    0.000 s ( 0.000 ms/b)
<ss|pd>:          252 b            0 skpd (  0.0%)    0.000 s ( 0.000 ms/b)
<ss|pf>:          168 b            0 skpd (  0.0%)    0.000 s ( 0.000 ms/b)
<ss|pg>:           84 b            0 skpd (  0.0%)    0.000 s ( 0.001 ms/b)
<ss|dd>:          126 b            0 skpd (  0.0%)    0.000 s ( 0.001 ms/b)
<ss|df>:          126 b            0 skpd (  0.0%)    0.000 s ( 0.000 ms/b)
<ss|dg>:           63 b            0 skpd (  0.0%)    0.000 s ( 0.001 ms/b)
<ss|ff>:           63 b            0 skpd (  0.0%)    0.000 s ( 0.001 ms/b)
<ss|fg>:           42 b            0 skpd (  0.0%)    0.000 s ( 0.002 ms/b)
<ss|gg>:           21 b            0 skpd (  0.0%)    0.000 s ( 0.004 ms/b)
<sp|sp>:          300 b            0 skpd (  0.0%)    0.000 s ( 0.000 ms/b)
<sp|sd>:          432 b            0 skpd (  0.0%)    0.000 s ( 0.000 ms/b)
<sp|sf>:          288 b            0 skpd (  0.0%)    0.000 s ( 0.000 ms/b)
<sp|sg>:          144 b            0 skpd (  0.0%)    0.000 s ( 0.000 ms/b)
<sp|pp>:          240 b            0 skpd (  0.0%)    0.000 s ( 0.000 ms/b)
<sp|pd>:          288 b            0 skpd (  0.0%)    0.000 s ( 0.001 ms/b)
<sp|pf>:          192 b            1 skpd (  0.5%)    0.000 s ( 0.001 ms/b)
<sp|pg>:           96 b            1 skpd (  1.0%)    0.000 s ( 0.002 ms/b)
<sp|dd>:          144 b            0 skpd (  0.0%)    0.000 s ( 0.002 ms/b)
<sp|df>: done
<sp|dg>: done
<sp|ff>: done
<sp|fg>: done
<sp|gg>: done
<sd|sd>:          171 b            0 skpd (  0.0%)    0.000 s ( 0.000 ms/b)
<sd|sf>:          216 b            0 skpd (  0.0%)    0.000 s ( 0.000 ms/b)
<sd|sg>:          108 b            0 skpd (  0.0%)    0.000 s ( 0.001 ms/b)
<sd|pp>:          180 b            0 skpd (  0.0%)    0.000 s ( 0.001 ms/b)
<sd|pd>:          216 b            0 skpd (  0.0%)    0.000 s ( 0.002 ms/b)
<sd|pf>: done
<sd|pg>: done
<sd|dd>:          108 b            0 skpd (  0.0%)    0.001 s ( 0.006 ms/b)
<sd|df>:          108 b            0 skpd (  0.0%)    0.000 s ( 0.003 ms/b)
<sd|dg>:           54 b            0 skpd (  0.0%)    0.001 s ( 0.010 ms/b)
<sd|ff>: done
<sd|fg>: done
<sd|gg>: done
<sf|sf>:           78 b            0 skpd (  0.0%)    0.000 s ( 0.001 ms/b)
<sf|sg>:           72 b            0 skpd (  0.0%)    0.000 s ( 0.001 ms/b)
<sf|pp>:          120 b            0 skpd (  0.0%)    0.000 s ( 0.001 ms/b)
<sf|pd>: done
<sf|pf>: done
<sf|pg>: done
<sf|dd>:           72 b            0 skpd (  0.0%)    0.000 s ( 0.007 ms/b)
<sf|df>: done
<sf|dg>: done
<sf|ff>: done
<sf|fg>: done
<sf|gg>: done
<sg|sg>:           21 b            0 skpd (  0.0%)    0.000 s ( 0.002 ms/b)
<sg|pp>:           60 b            0 skpd (  0.0%)    0.000 s ( 0.002 ms/b)
<sg|pd>: done
<sg|pf>: done
<sg|pg>: done
<sg|dd>:           36 b            0 skpd (  0.0%)    0.000 s ( 0.013 ms/b)
<sg|df>: done
<sg|dg>: done
<sg|ff>: done
<sg|fg>: done
<sg|gg>: done
<pp|pp>:           55 b            0 skpd (  0.0%)    0.000 s ( 0.003 ms/b)
<pp|pd>:          120 b            0 skpd (  0.0%)    0.000 s ( 0.002 ms/b)
<pp|pf>:           80 b            0 skpd (  0.0%)    0.000 s ( 0.003 ms/b)
<pp|pg>:           40 b            0 skpd (  0.0%)    0.000 s ( 0.006 ms/b)
<pp|dd>:           60 b            0 skpd (  0.0%)    0.001 s ( 0.009 ms/b)
<pp|df>:           60 b            0 skpd (  0.0%)    0.000 s ( 0.005 ms/b)
<pp|dg>:           30 b            0 skpd (  0.0%)    0.000 s ( 0.015 ms/b)
<pp|ff>:           30 b            0 skpd (  0.0%)    0.000 s ( 0.007 ms/b)
<pp|fg>:           20 b            0 skpd (  0.0%)    0.000 s ( 0.015 ms/b)
<pp|gg>:           10 b            0 skpd (  0.0%)    0.000 s ( 0.044 ms/b)
<pd|pd>:           78 b            0 skpd (  0.0%)    0.001 s ( 0.010 ms/b)
<pd|pf>:           96 b            0 skpd (  0.0%)    0.001 s ( 0.006 ms/b)
<pd|pg>:           48 b            0 skpd (  0.0%)    0.001 s ( 0.015 ms/b)
<pd|dd>:           72 b            0 skpd (  0.0%)    0.002 s ( 0.021 ms/b)
<pd|df>:           72 b            0 skpd (  0.0%)    0.001 s ( 0.012 ms/b)
<pd|dg>:           36 b            0 skpd (  0.0%)    0.001 s ( 0.037 ms/b)
<pd|ff>: done
<pd|fg>: done
<pd|gg>: done
<pf|pf>:           36 b            0 skpd (  0.0%)    0.000 s ( 0.009 ms/b)
<pf|pg>:           32 b            0 skpd (  0.0%)    0.001 s ( 0.016 ms/b)
<pf|dd>:           48 b            0 skpd (  0.0%)    0.001 s ( 0.021 ms/b)
<pf|df>: done
<pf|dg>: done
<pf|ff>: done
<pf|fg>: done
<pf|gg>: done
<pg|pg>:           10 b            0 skpd (  0.0%)    0.000 s ( 0.050 ms/b)
<pg|dd>:           24 b            0 skpd (  0.0%)    0.001 s ( 0.043 ms/b)
<pg|df>: done
<pg|dg>: done
<pg|ff>: done
<pg|fg>: done
<pg|gg>: done
<dd|dd>:           21 b            0 skpd (  0.0%)    0.002 s ( 0.090 ms/b)
<dd|df>:           36 b            0 skpd (  0.0%)    0.001 s ( 0.030 ms/b)
<dd|dg>:           18 b            0 skpd (  0.0%)    0.002 s ( 0.095 ms/b)
<dd|ff>:           18 b            0 skpd (  0.0%)    0.001 s ( 0.036 ms/b)
<dd|fg>:           12 b            0 skpd (  0.0%)    0.001 s ( 0.082 ms/b)
<dd|gg>:            6 b            0 skpd (  0.0%)    0.001 s ( 0.233 ms/b)
<df|df>:           21 b            0 skpd (  0.0%)    0.001 s ( 0.050 ms/b)
<df|dg>:           18 b            0 skpd (  0.0%)    0.002 s ( 0.090 ms/b)
<df|ff>: done
<df|fg>: done
<df|gg>: done
<dg|dg>:            6 b            0 skpd (  0.0%)    0.001 s ( 0.232 ms/b)
<dg|ff>: done
<dg|fg>: done
<dg|gg>: done
<ff|ff>: done
<ff|fg>: done
<ff|gg>: done
<fg|fg>: done
<fg|gg>: done
<gg|gg>: done
Recanonicalizing the internal orbitals
Recanonicalizing the virtual orbitals
Time needed for Fock operator              ...            0.049 sec
Reference energy                           ...   -166.883922814
<ss|**>: 
------------------------------
PARTIAL COULOMB TRANSFORMATION
------------------------------

Transformation type                        ... one-operator
Dimension of the basis                     ...   56
Number of internal MOs                     ...   56 (0-55)
Pair cutoff                                ... 0.000e+00 Eh
Number of AO pairs included in the trafo   ... 1596
Total Number of distinct AO pairs          ... 1596
Memory devoted for trafo                   ... 2500.0 MB 
Max. Number of MO pairs treated together   ... 205313      
Max. Number of MOs treated per batch       ... 3666      
Number Format for Storage                  ... Double (8 Byte)
AO-integral source                         ... DIRECT
Integral package used                      ... LIBINT

Starting integral evaluation:
<sp|**>:         2856 b        0 skpd     0.001 s (  0.000 ms/b)
<sd|**>:         3264 b        0 skpd     0.007 s (  0.002 ms/b)
<sf|**>:         2448 b        0 skpd     0.012 s (  0.005 ms/b)
        1632 b        0 skpd     0.012 s (  0.007 ms/b)
<sg|**>: <pp|**>:          816 b        0 skpd     0.009 s (  0.011 ms/b)
<pd|**>:         1360 b        0 skpd     0.009 s (  0.007 ms/b)
        1632 b        0 skpd     0.019 s (  0.012 ms/b)
<pf|**>:         1088 b        0 skpd     0.020 s (  0.019 ms/b)
<pg|**>:          544 b        0 skpd     0.021 s (  0.039 ms/b)
<dd|**>:          816 b        0 skpd     0.020 s (  0.025 ms/b)
<df|**>:          816 b        0 skpd     0.030 s (  0.037 ms/b)
<dg|**>:          408 b        0 skpd     0.032 s (  0.078 ms/b)
<ff|**>:          408 b        0 skpd     0.035 s (  0.086 ms/b)
<fg|**>:          272 b        0 skpd     0.036 s (  0.131 ms/b)
<gg|**>:          136 b        0 skpd     0.033 s (  0.242 ms/b)
Closing buffer AOJ ( 0.00 GB; CompressionRatio= 1.00)
Collecting buffer AOJ 
    ... done with AO integral generation
Number of MO pairs included in the trafo   ... 1596
    ... Now sorting integrals
IBATCH = 1 of  1
Closing buffer JAO ( 0.00 GB; CompressionRatio= 1.00)
Collecting buffer JAO 
TOTAL TIME for half transformation         ...     0.607 sec
AO-integral generation                     ...     0.254 sec
Half transformation                        ...     0.046 sec
J-integral sorting                         ...     0.269 sec

-------------------------- SECOND HALF TRANSFORMATION -------------------------
Formation of (pq|rs)                       ... ok (     0.282 sec)
Integral sorting                           ... ok (     0.214 sec)

------------------
CLOSED SHELL GUESS
------------------

Initial guess performed in     0.003 sec
E(0)                                       ...   -166.883922814
E(MP2)                                     ...     -0.709622741
Initial E(tot)                             ...   -167.593545555
<T|T>                                      ...      0.129351030
Number of pairs included                   ... 55
Total number of pairs                      ... 55

------------------------------------------------
                  RHF COUPLED CLUSTER ITERATIONS
------------------------------------------------

Number of amplitudes to be optimized       ... 116840

Iter       E(tot)           E(Corr)          Delta-E          Residual     Time
  0   -167.593545555     -0.709622741      0.000000000      0.023741159    0.05
                           *** Turning on DIIS ***
  1   -167.545726395     -0.661803581      0.047819160      0.008200988    0.07
  2   -167.559001137     -0.675078324     -0.013274743      0.005527168    0.08
  3   -167.560755159     -0.676832345     -0.001754021      0.002469550    0.10
  4   -167.561601508     -0.677678694     -0.000846349      0.000741614    0.09
  5   -167.561818619     -0.677895805     -0.000217111      0.000157293    0.09
  6   -167.561834590     -0.677911776     -0.000015971      0.000044374    0.09
  7   -167.561834957     -0.677912144     -0.000000368      0.000013802    0.09
  8   -167.561833851     -0.677911038      0.000001106      0.000003516    0.09
               --- The Coupled-Cluster iterations have converged ---

----------------------
COUPLED CLUSTER ENERGY
----------------------

E(0)                                       ...   -166.883922814
E(CORR)                                    ...     -0.677911038
E(TOT)                                     ...   -167.561833851
Singles Norm <S|S>**1/2                    ...      0.068332299  
T1 diagnostic                              ...      0.015279567  

------------------
LARGEST AMPLITUDES
------------------
   9-> 10   9-> 10       0.075934
   9-> 11   9-> 11       0.075934
   9-> 12   9-> 12       0.075934
   9-> 13  -1-> -1       0.062333
   9-> 12   9-> 16       0.042341
   9-> 16   9-> 12       0.042341
   9-> 10   9-> 15       0.042312
   9-> 15   9-> 10       0.042312
   9-> 14   9-> 11       0.042256
   9-> 11   9-> 14       0.042256
   9-> 16   9-> 16       0.030949
   9-> 14   9-> 14       0.030949
   9-> 15   9-> 15       0.030949
   9-> 13   9-> 13       0.029493
   5-> 24   5-> 24       0.018427
   6-> 22   6-> 22       0.016374


        !!!!!!!!!!!!!!!!!!!!!!!!!!!!!!!!!!!!!!!!!!!!!!!!!!!!!!!!!!!!!!!!!!!!!!!!!! 
        !  Warning: Densities are linearized densities !                         !
        !!!!!!!!!!!!!!!!!!!!!!!!!!!!!!!!!!!!!!!!!!!!!!!!!!!!!!!!!!!!!!!!!!!!!!!!!! 

Trace of internal density part =     -0.267664107
Trace of external density part =      0.267664107
----------------------
RHF TRIPLES CORRECTION (Algorithm 1)
----------------------

Multiplier for the singles contribution    ...      1.000000000

10% done
20% done
30% done
40% done
50% done
60% done
70% done
80% done

Triples Correction (T)                     ...     -0.019359541
Scaling of triples based on CCSD energies (Peterson et al. Molecular Physics 113, 1551 (2015))
E(T*) = f*E(T) where f = E(F12-CCSD)/E(CCSD) 
f = CCSD (with F12)/ CCSD (without F12)    ...      1.000000000
Scaled triples correction (T)              ...     -0.019359541

Final correlation energy                   ...     -0.697270578
E(CCSD)                                    ...   -167.561833851
E(CCSD(T))                                 ...   -167.581193392

NORM  =      1.138501357 sqrt=     1.067005790
W(HF) =      0.878347658
------------------------------------------------------------------------------
                           ORCA POPULATION ANALYSIS
------------------------------------------------------------------------------
Input electron density              ... 48_Cd.mdcip
BaseName (.gbw .S,...)              ... 48_Cd

                    ********************************
                    * MULLIKEN POPULATION ANALYSIS *
                    ********************************

-----------------------
MULLIKEN ATOMIC CHARGES
-----------------------
   0 Cd:   -0.000000
Sum of atomic charges:   -0.0000000

--------------------------------
MULLIKEN REDUCED ORBITAL CHARGES
--------------------------------
  0 Cds       :     3.914680  s :     3.914680
      pz      :     2.026550  p :     6.079649
      px      :     2.026550
      py      :     2.026550
      dz2     :     1.981764  d :     9.908818
      dxz     :     1.981764
      dyz     :     1.981764
      dx2y2   :     1.981764
      dxy     :     1.981764
      f0      :     0.012592  f :     0.088143
      f+1     :     0.012592
      f-1     :     0.012592
      f+2     :     0.012592
      f-2     :     0.012592
      f+3     :     0.012592
      f-3     :     0.012592
      g0      :     0.000968  g :     0.008710
      g+1     :     0.000968
      g-1     :     0.000968
      g+2     :     0.000968
      g-2     :     0.000968
      g+3     :     0.000968
      g-3     :     0.000968
      g+4     :     0.000968
      g-4     :     0.000968


                     *******************************
                     * LOEWDIN POPULATION ANALYSIS *
                     *******************************

----------------------
LOEWDIN ATOMIC CHARGES
----------------------
   0 Cd:   -0.000000

-------------------------------
LOEWDIN REDUCED ORBITAL CHARGES
-------------------------------
  0 Cds       :     3.914680  s :     3.914680
      pz      :     2.026550  p :     6.079649
      px      :     2.026550
      py      :     2.026550
      dz2     :     1.981764  d :     9.908818
      dxz     :     1.981764
      dyz     :     1.981764
      dx2y2   :     1.981764
      dxy     :     1.981764
      f0      :     0.012592  f :     0.088143
      f+1     :     0.012592
      f-1     :     0.012592
      f+2     :     0.012592
      f-2     :     0.012592
      f+3     :     0.012592
      f-3     :     0.012592
      g0      :     0.000968  g :     0.008710
      g+1     :     0.000968
      g-1     :     0.000968
      g+2     :     0.000968
      g-2     :     0.000968
      g+3     :     0.000968
      g-3     :     0.000968
      g+4     :     0.000968
      g-4     :     0.000968


                      *****************************
                      * MAYER POPULATION ANALYSIS *
                      *****************************

  NA   - Mulliken gross atomic population
  ZA   - Total nuclear charge
  QA   - Mulliken gross atomic charge
  VA   - Mayer's total valence
  BVA  - Mayer's bonded valence
  FA   - Mayer's free valence

  ATOM       NA         ZA         QA         VA         BVA        FA
  0 Cd    20.0000    20.0000    -0.0000     1.0161     0.0000     1.0161





------------------------------------------------------------------------------- 
                                     TIMINGS                                   
------------------------------------------------------------------------------- 


Total execution time                   ...        2.160 sec

Fock Matrix Formation                  ...        0.049 sec (  2.3%)
Initial Guess                          ...        0.003 sec (  0.2%)
DIIS Solver                            ...        0.061 sec (  2.8%)
State Vector Update                    ...        0.003 sec (  0.1%)
Sigma-vector construction              ...        0.669 sec ( 30.9%)
  <D|H|D>(0-ext)                       ...        0.006 sec (  0.9% of sigma)
  <D|H|D>(2-ext)                       ...        0.013 sec (  1.9% of sigma)
  <D|H|D>(4-ext)                       ...        0.088 sec ( 13.2% of sigma)
  <D|H|D>(4-ext-corr)                  ...        0.033 sec (  5.0% of sigma)
  <S|H|0>                              ...        0.003 sec (  0.5% of sigma)
  <S|H|S>                              ...        0.002 sec (  0.4% of sigma)
  <S|H|D>(1-ext)                       ...        0.004 sec (  0.6% of sigma)
  <D|H|S>(1-ext)                       ...        0.004 sec (  0.6% of sigma)
  <S|H|D>(3-ext)                       ...        0.083 sec ( 12.4% of sigma)
  Fock-dressing                        ...        0.228 sec ( 34.2% of sigma)
  (ik|jl)-dressing                     ...        0.009 sec (  1.4% of sigma)
  (ij|ab),(ia|jb)-dressing             ...        0.145 sec ( 21.7% of sigma)
Total Time for computing (T)           ...        0.039 sec (  1.8% of ALL)
  I/O of integral and amplitudes       ...        0.016 sec ( 41.5% of (T))
  N**6 sorting step                    ...        0.005 sec ( 14.1% of (T))
  External N**7 contributions          ...        0.009 sec ( 24.0% of (T))
  Internal N**7 contributions          ...        0.003 sec (  7.9% of (T))
  N**6 triples energy contributions    ...        0.005 sec ( 12.0% of (T))
One-particle density matrix            ...        0.001 sec (  0.1%)


-------------------------   --------------------
FINAL SINGLE POINT ENERGY      -167.581193391759
-------------------------   --------------------


                            ***************************************
                            *     ORCA property calculations      *
                            ***************************************

                                    ---------------------
                                    Active property flags
                                    ---------------------
   (+) Dipole Moment


------------------------------------------------------------------------------
                       ORCA ELECTRIC PROPERTIES CALCULATION
------------------------------------------------------------------------------

Dipole Moment Calculation                       ... on
Quadrupole Moment Calculation                   ... off
Polarizability Calculation                      ... off
GBWName                                         ... 48_Cd.gbw
Electron density file                           ... 48_Cd.scfp
The origin for moment calculation is the CENTER OF MASS  = ( 0.000000,  0.000000  0.000000)

-------------
DIPOLE MOMENT
-------------
                                X             Y             Z
Electronic contribution:      0.00000       0.00000      -0.00000
Nuclear contribution   :      0.00000       0.00000       0.00000
                        -----------------------------------------
Total Dipole Moment    :      0.00000       0.00000      -0.00000
                        -----------------------------------------
Magnitude (a.u.)       :      0.00000
Magnitude (Debye)      :      0.00000



--------------------
Rotational spectrum 
--------------------
 
Rotational constants in cm-1:     0.000000     0.000000     0.000000 
Rotational constants in MHz :     0.000000     0.000000     0.000000 

 Dipole components along the rotational axes: 
x,y,z [a.u.] :     0.000000     0.000000    -0.000000 
x,y,z [Debye]:     0.000000     0.000000    -0.000000 

 

                           *** MDCI DENSITY ***

------------------------------------------------------------------------------
                       ORCA ELECTRIC PROPERTIES CALCULATION
------------------------------------------------------------------------------

Dipole Moment Calculation                       ... on
Quadrupole Moment Calculation                   ... off
Polarizability Calculation                      ... off
GBWName                                         ... 48_Cd.gbw
Electron density file                           ... 48_Cd.mdcip
The origin for moment calculation is the CENTER OF MASS  = ( 0.000000,  0.000000  0.000000)

-------------
DIPOLE MOMENT
-------------
                                X             Y             Z
Electronic contribution:     -0.00000       0.00000      -0.00000
Nuclear contribution   :      0.00000       0.00000       0.00000
                        -----------------------------------------
Total Dipole Moment    :     -0.00000       0.00000      -0.00000
                        -----------------------------------------
Magnitude (a.u.)       :      0.00000
Magnitude (Debye)      :      0.00000



--------------------
Rotational spectrum 
--------------------
 
Rotational constants in cm-1:     0.000000     0.000000     0.000000 
Rotational constants in MHz :     0.000000     0.000000     0.000000 

 Dipole components along the rotational axes: 
x,y,z [a.u.] :    -0.000000     0.000000    -0.000000 
x,y,z [Debye]:    -0.000000     0.000000    -0.000000 

 

Timings for individual modules:

Sum of individual times         ...        7.775 sec (=   0.130 min)
GTO integral calculation        ...        0.855 sec (=   0.014 min)  11.0 %
SCF iterations                  ...        4.346 sec (=   0.072 min)  55.9 %
MDCI module                     ...        2.574 sec (=   0.043 min)  33.1 %
                             ****ORCA TERMINATED NORMALLY****
TOTAL RUN TIME: 0 days 0 hours 0 minutes 8 seconds 536 msec
