
                                 *****************
                                 * O   R   C   A *
                                 *****************

           --- An Ab Initio, DFT and Semiempirical electronic structure package ---

                  #######################################################
                  #                        -***-                        #
                  #          Department of theory and spectroscopy      #
                  #               Directorship: Frank Neese             #
                  #        Max Planck Institute fuer Kohlenforschung    #
                  #                Kaiser Wilhelm Platz 1               #
                  #                 D-45470 Muelheim/Ruhr               #
                  #                      Germany                        #
                  #                                                     #
                  #                  All rights reserved                #
                  #                        -***-                        #
                  #######################################################


                         Program Version 4.2.0 -  RELEASE  -


 With contributions from (in alphabetic order):
   Daniel Aravena         : Magnetic Suceptibility
   Michael Atanasov       : Ab Initio Ligand Field Theory (pilot matlab implementation)
   Alexander A. Auer      : GIAO ZORA, VPT2
   Ute Becker             : Parallelization
   Giovanni Bistoni       : ED, misc. LED, open-shell LED, HFLED
   Martin Brehm           : Molecular dynamics
   Dmytro Bykov           : SCF Hessian
   Vijay G. Chilkuri      : MRCI spin determinant printing, contributions to CSF-ICE
   Dipayan Datta          : RHF DLPNO-CCSD density
   Achintya Kumar Dutta   : EOM-CC, STEOM-CC
   Dmitry Ganyushin       : Spin-Orbit,Spin-Spin,Magnetic field MRCI
   Miquel Garcia          : C-PCM Hessian, Gaussian charge scheme
   Yang Guo               : DLPNO-NEVPT2, CIM, IAO-localization
   Andreas Hansen         : Spin unrestricted coupled pair/coupled cluster methods
   Benjamin Helmich-Paris : CASSCF linear response (MC-RPA)
   Lee Huntington         : MR-EOM, pCC
   Robert Izsak           : Overlap fitted RIJCOSX, COSX-SCS-MP3, EOM
   Christian Kollmar      : KDIIS, OOCD, Brueckner-CCSD(T), CCSD density
   Simone Kossmann        : Meta GGA functionals, TD-DFT gradient, OOMP2, MP2 Hessian
   Martin Krupicka        : AUTO-CI
   Lucas Lang             : DCDCAS
   Dagmar Lenk            : GEPOL surface, SMD
   Dimitrios Liakos       : Extrapolation schemes; Compound Job, initial MDCI parallelization
   Dimitrios Manganas     : Further ROCIS development; embedding schemes
   Dimitrios Pantazis     : SARC Basis sets
   Taras Petrenko         : DFT Hessian,TD-DFT gradient, ASA, ECA, R-Raman, ABS, FL, XAS/XES, NRVS
   Peter Pinski           : DLPNO-MP2, DLPNO-MP2 Gradient
   Christoph Reimann      : Effective Core Potentials
   Marius Retegan         : Local ZFS, SOC
   Christoph Riplinger    : Optimizer, TS searches, QM/MM, DLPNO-CCSD(T), (RO)-DLPNO pert. Triples
   Tobias Risthaus        : Range-separated hybrids, TD-DFT gradient, RPA, STAB
   Michael Roemelt        : Original ROCIS implementation
   Masaaki Saitow         : Open-shell DLPNO-CCSD energy and density
   Barbara Sandhoefer     : DKH picture change effects
   Avijit Sen             : IP-ROCIS
   Kantharuban Sivalingam : CASSCF convergence, NEVPT2, FIC-MRCI
   Bernardo de Souza      : ESD, SOC TD-DFT
   Georgi Stoychev        : AutoAux, RI-MP2 NMR
   Willem Van den Heuvel  : Paramagnetic NMR
   Boris Wezisla          : Elementary symmetry handling
   Frank Wennmohs         : Technical directorship


 We gratefully acknowledge several colleagues who have allowed us to
 interface, adapt or use parts of their codes:
   Stefan Grimme, W. Hujo, H. Kruse,             : VdW corrections, initial TS optimization,
                  C. Bannwarth                     DFT functionals, gCP, sTDA/sTD-DF
   Ed Valeev, F. Pavosevic, A. Kumar             : LibInt (2-el integral package), F12 methods
   Garnet Chan, S. Sharma, J. Yang, R. Olivares  : DMRG
   Ulf Ekstrom                                   : XCFun DFT Library
   Mihaly Kallay                                 : mrcc  (arbitrary order and MRCC methods)
   Andreas Klamt, Michael Diedenhofen            : otool_cosmo (COSMO solvation model)
   Jiri Pittner, Ondrej Demel                    : Mk-CCSD
   Frank Weinhold                                : gennbo (NPA and NBO analysis)
   Christopher J. Cramer and Donald G. Truhlar   : smd solvation model
   Lars Goerigk                                  : TD-DFT with DH, B97 family of functionals
   V. Asgeirsson, H. Jonsson                     : NEB implementation
   FAccTs GmbH                                   : IRC, NEB, NEB-TS, Multilevel, MM, QM/MM, CI optimization
   S Lehtola, MJT Oliveira, MAL Marques          : LibXC Library


 Your calculation uses the libint2 library for the computation of 2-el integrals
 For citations please refer to: http://libint.valeyev.net

 Your ORCA version has been built with support for libXC version: 4.2.3
 For citations please refer to: https://tddft.org/programs/libxc/

 This ORCA versions uses:
   CBLAS   interface :  Fast vector & matrix operations
   LAPACKE interface :  Fast linear algebra routines
   SCALAPACK package :  Parallel linear algebra routines


----- Orbital basis set information -----
Your calculation utilizes the basis: def2-TZVPPD
   F. Weigend and R. Ahlrichs, Phys. Chem. Chem. Phys. 7, 3297 (2005).
   D. Rappoport and F. Furche, J. Chem. Phys. 133 134105 (2010).

cite the ECPs for In [Def2-ECP] as follows:
Ce-Yb(ecp-28): M. Dolg, H. Stoll, H.Preuss, J. Chem. Phys., 1989, 90, 1730-1734.
Y-Cd(ecp-28), Hf-Hg(ecp-46): D. Andrae,U. Haeussermann, M. Dolg, H. Stoll, H. Preuss, Theor. Chim. Acta, 1990, 77, 123-141.
In-Sb(ecp-28), Tl-Bi(ecp-46): B. Metz, H. Stoll, M. Dolg, J. Chem. Phys., 2000, 113, 2563-2569.
Te-Xe(ecp-28), Po-Rn(ecp-46): K. A. Peterson, D. Figgen, E. Goll, H. Stoll, M. Dolg, J. Chem. Phys., 2003, 119, 11113-11123.
Rb(ecp-28), Cs(ecp-46): T. Leininger, A. Nicklass, W. Kuechle, H. Stoll, M. Dolg, A. Bergner, Chem. Phys. Lett., 1996, 255, 274-280.
Sr(ecp-28), Ba(ecp-46): M. Kaupp, P. V. Schleyer, H. Stoll and H. Preuss, J. Chem. Phys., 1991, 94, 1360-1366.
La(ecp-46): M. Dolg, H. Stoll, A. Savin, H. Preuss, Theor. Chim. Acta, 1989, 75, 173-194.
Lu(ecp-28): X. Cao, M. Dolg, J. Chem. Phys., 2001, 115, 7348-7355.

ECP parameters for In [Def2-ECP] have been obtained from:
TURBOMOLE (7.0.2)

================================================================================
                                        WARNINGS
                       Please study these warnings very carefully!
================================================================================


WARNING: your system is open-shell and RHF/RKS was chosen
  ===> : WILL SWITCH to UHF/UKS


WARNING: MDCI localization with Augmented Hessian Foster-Boys
  ===> : Switching off randomization!

WARNING: Post HF methods need fully converged wavefunctions
  ===> : Setting SCFConvForced true
         You can overwrite this default with %scf ConvForced false 


INFO   : the flag for use of LIBINT has been found!

================================================================================
                                       INPUT FILE
================================================================================
NAME = 49_In.in
|  1> #
|  2> # 49_In CCSD(T)/Def2-TZVPPD
|  3> #
|  4> ! CCSD(T) Def2-TZVPPD tightscf
|  5> 
|  6> *xyz 0 2
|  7>  In 0.0 0.0 0.0
|  8> *
|  9> 
| 10> %maxcore 5000 
| 11> 
| 12> %pal
| 13> nprocs 24
| 14> end
| 15> 
| 16> 
| 17>                          ****END OF INPUT****
================================================================================

                       ****************************
                       * Single Point Calculation *
                       ****************************

---------------------------------
CARTESIAN COORDINATES (ANGSTROEM)
---------------------------------
  In     0.000000    0.000000    0.000000

----------------------------
CARTESIAN COORDINATES (A.U.)
----------------------------
  NO LB      ZA    FRAG     MASS         X           Y           Z
   0 In   21.0000*   0   114.820    0.000000    0.000000    0.000000
* core charge reduced due to ECP

--------------------------------
INTERNAL COORDINATES (ANGSTROEM)
--------------------------------
 In     0   0   0     0.000000000000     0.00000000     0.00000000

---------------------------
INTERNAL COORDINATES (A.U.)
---------------------------
 In     0   0   0     0.000000000000     0.00000000     0.00000000

---------------------
BASIS SET INFORMATION
---------------------
There are 1 groups of distinct atoms

 Group   1 Type In  : 11s9p9d2f contracted to 7s5p4d2f pattern {4211111/33111/6111/11}

Atom   0In   basis set group =>   1
-------------------------
ECP PARAMETER INFORMATION
-------------------------

 Group 1, Type In ECP Def2-ECP (replacing 28 core electrons, lmax=3)

Atom   0In   ECP group =>   1



           ************************************************************
           *        Program running with 24 parallel MPI-processes    *
           *              working on a common directory               *
           ************************************************************
------------------------------------------------------------------------------
                           ORCA GTO INTEGRAL CALCULATION
------------------------------------------------------------------------------

                         BASIS SET STATISTICS AND STARTUP INFO

 # of primitive gaussian shells          ...   31
 # of primitive gaussian functions       ...   97
 # of contracted shells                  ...   18
 # of contracted basis functions         ...   56
 Highest angular momentum                ...    3
 Maximum contraction depth               ...    6
 Integral package used                   ... LIBINT
 Integral threshhold            Thresh   ...  2.500e-11
 Primitive cut-off              TCut     ...  2.500e-12


------------------------------ INTEGRAL EVALUATION ----------------------------


 * One electron integrals 

   ECP integrals                         ... done
 Pre-screening matrix                    ... done
 Shell pair data                         ... done (   0.000 sec)



           ************************************************************
           *        Program running with 24 parallel MPI-processes    *
           *              working on a common directory               *
           ************************************************************
-------------------------------------------------------------------------------
                                 ORCA SCF
-------------------------------------------------------------------------------

------------
SCF SETTINGS
------------
Hamiltonian:
 Ab initio Hamiltonian  Method          .... Hartree-Fock(GTOs)


General Settings:
 Integral files         IntName         .... 49_In
 Hartree-Fock type      HFTyp           .... UHF
 Total Charge           Charge          ....    0
 Multiplicity           Mult            ....    2
 Number of Electrons    NEL             ....   21
 Basis Dimension        Dim             ....   56
 Nuclear Repulsion      ENuc            ....      0.0000000000 Eh

Convergence Acceleration:
 DIIS                   CNVDIIS         .... on
   Start iteration      DIISMaxIt       ....    12
   Startup error        DIISStart       ....  0.200000
   # of expansion vecs  DIISMaxEq       ....     5
   Bias factor          DIISBfac        ....   1.050
   Max. coefficient     DIISMaxC        ....  10.000
 Newton-Raphson         CNVNR           .... off
 SOSCF                  CNVSOSCF        .... off
 Level Shifting         CNVShift        .... on
   Level shift para.    LevelShift      ....    0.2500
   Turn off err/grad.   ShiftErr        ....    0.0010
 Zerner damping         CNVZerner       .... off
 Static damping         CNVDamp         .... on
   Fraction old density DampFac         ....    0.7000
   Max. Damping (<1)    DampMax         ....    0.9800
   Min. Damping (>=0)   DampMin         ....    0.0000
   Turn off err/grad.   DampErr         ....    0.1000
 Fernandez-Rico         CNVRico         .... off

SCF Procedure:
 Maximum # iterations   MaxIter         ....   125
 SCF integral mode      SCFMode         .... Direct
   Integral package                     .... LIBINT
 Reset frequency        DirectResetFreq ....    20
 Integral Threshold     Thresh          ....  2.500e-11 Eh
 Primitive CutOff       TCut            ....  2.500e-12 Eh

Convergence Tolerance:
 Convergence Check Mode ConvCheckMode   .... Total+1el-Energy
 Convergence forced     ConvForced      .... 1
 Energy Change          TolE            ....  1.000e-08 Eh
 1-El. energy change                    ....  1.000e-05 Eh
 DIIS Error             TolErr          ....  5.000e-07


Diagonalization of the overlap matrix:
Smallest eigenvalue                        ... 2.903e-03
Time for diagonalization                   ...    0.002 sec
Threshold for overlap eigenvalues          ... 1.000e-08
Number of eigenvalues below threshold      ... 0
Time for construction of square roots      ...    0.013 sec
Total time needed                          ...    0.015 sec

-------------------
DFT GRID GENERATION
-------------------

General Integration Accuracy     IntAcc      ...  4.340
Radial Grid Type                 RadialGrid  ... Gauss-Chebyshev
Angular Grid (max. acc.)         AngularGrid ... Lebedev-110
Angular grid pruning method      GridPruning ... 3 (G Style)
Weight generation scheme         WeightScheme... Becke
Basis function cutoff            BFCut       ...    1.0000e-11
Integration weight cutoff        WCut        ...    1.0000e-14
Grids for H and He will be reduced by one unit

# of grid points (after initial pruning)     ...   3304 (   0.0 sec)
# of grid points (after weights+screening)   ...   3304 (   0.0 sec)
Grid point division into batches done        ...    0.0 sec
Reduced shell lists constructed in    0.0 sec

Total number of grid points                  ...     3304
Total number of batches                      ...       52
Average number of points per batch           ...       63
Average number of grid points per atom       ...     3304
Average number of shells per batch           ...     7.50 (41.67%)
Average number of basis functions per batch  ...    25.50 (45.54%)
Average number of large shells per batch     ...     5.25 (70.00%)
Average number of large basis fcns per batch ...    14.25 (55.88%)
Maximum spatial batch extension              ...  21.54, 32.49, 32.49 au
Average spatial batch extension              ...   1.17,  1.66,  1.87 au

Time for grid setup =    0.065 sec

------------------------------
INITIAL GUESS: MODEL POTENTIAL
------------------------------
Loading Hartree-Fock densities                     ... done
  calling /sw/apps/orca/orca_4_2_0_linux_x86-64_openmpi314/orca 49_In_atom49.inp > 49_In_atom49.out in order to generate an atomic fitting density for atom 0 (In with ECP) on-the-fly... 
    atom 0 (In), assumed electronic state with S=2: 1s2 2s2 2p6 3s2 3p6 4s2 3d10 4p6 5s2 4d10 5p1           ... done
Calculating cut-offs                               ... done
Setting up the integral package                    ... done
Initializing the effective Hamiltonian             ... done
Starting the Coulomb interaction                   ... done (   0.0 sec)
Reading the grid                                   ... done
Mapping shells                                     ... done
Starting the XC term evaluation                    ... done (   0.0 sec)
Transforming the Hamiltonian                       ... done (   0.0 sec)
Diagonalizing the Hamiltonian                      ... done (   0.0 sec)
Back transforming the eigenvectors                 ... done (   0.0 sec)
Now organizing SCF variables                       ... done
                      ------------------
                      INITIAL GUESS DONE (   1.5 sec)
                      ------------------
--------------
SCF ITERATIONS
--------------
ITER       Energy         Delta-E        Max-DP      RMS-DP      [F,P]     Damp
               ***  Starting incremental Fock matrix formation  ***
  0   -184.1470215712   0.000000000000 1.74729006  0.07139111  1.4276086 0.7000
  1   -185.8798096432  -1.732788072082 1.20316645  0.04883720  0.8640249 0.7000
  2   -186.8899007119  -1.010091068690 0.81452787  0.03265205  0.5241698 0.7000
  3   -187.5716827176  -0.681782005656 0.55718950  0.02218703  0.3297186 0.7000
  4   -188.0517338458  -0.480051128231 0.38665637  0.01531602  0.2134511 0.7000
                               ***Turning on DIIS***
  5   -188.3919740620  -0.340240216185 0.27066660  0.01069164  0.1480439 0.7000
  6   -188.9720490355  -0.580074973547 0.19200906  0.00757337  0.1066464 0.7000
  7   -189.0972913427  -0.125242307193 0.45939953  0.01821087  0.0756896 0.0000
  8   -189.2215985923  -0.124307249537 0.02691405  0.00086242  0.0059024 0.0000
  9   -189.2204554702   0.001143122125 0.01723998  0.00045996  0.0033227 0.0000
 10   -189.2145958383   0.005859631841 0.00745200  0.00021895  0.0018783 0.0000
 11   -189.2160588087  -0.001462970434 0.00614891  0.00017865  0.0011340 0.0000
 12   -189.2140766711   0.001982137619 0.00477460  0.00014794  0.0005792 0.0000
 13   -189.2106434674   0.003433203728 0.00129124  0.00002647  0.0001011 0.0000
 14   -189.2101462192   0.000497248151 0.00044415  0.00001285  0.0000189 0.0000
 15   -189.2100717444   0.000074474858 0.00011161  0.00000328  0.0000025 0.0000
                            ***DIIS convergence achieved***

               *****************************************************
               *                     SUCCESS                       *
               *           SCF CONVERGED AFTER  16 CYCLES          *
               *****************************************************


----------------
TOTAL SCF ENERGY
----------------

Total Energy       :         -189.21008658 Eh           -5148.66821 eV

Components:
Nuclear Repulsion  :            0.00000000 Eh               0.00000 eV
Electronic Energy  :         -189.21008658 Eh           -5148.66821 eV
One Electron Energy:         -334.82333547 Eh           -9111.00615 eV
Two Electron Energy:          145.61324889 Eh            3962.33794 eV

Virial components:
Potential Energy   :         -262.61227664 Eh           -7146.04335 eV
Kinetic Energy     :           73.40219006 Eh            1997.37514 eV
Virial Ratio       :            3.57771718


---------------
SCF CONVERGENCE
---------------

  Last Energy change         ...   -1.4837e-05  Tolerance :   1.0000e-08
  Last MAX-Density change    ...    4.0358e-05  Tolerance :   1.0000e-07
  Last RMS-Density change    ...    1.0816e-06  Tolerance :   5.0000e-09
  Last DIIS Error            ...    7.6174e-07  Tolerance :   5.0000e-07

             **** THE GBW FILE WAS UPDATED (49_In.gbw) ****
             **** DENSITY FILE WAS UPDATED (49_In.scfp) ****
             **** ENERGY FILE WAS UPDATED (49_In.en.tmp) ****
----------------------
UHF SPIN CONTAMINATION
----------------------

Expectation value of <S**2>     :     0.763234
Ideal value S*(S+1) for S=0.5   :     0.750000
Deviation                       :     0.013234

             **** THE GBW FILE WAS UPDATED (49_In.gbw) ****
             **** DENSITY FILE WAS UPDATED (49_In.scfp) ****
----------------
ORBITAL ENERGIES
----------------
                 SPIN UP ORBITALS
  NO   OCC          E(Eh)            E(eV) 
   0   1.0000      -5.373701      -146.2258 
   1   1.0000      -3.627757       -98.7163 
   2   1.0000      -3.627757       -98.7163 
   3   1.0000      -3.623815       -98.6090 
   4   1.0000      -1.015375       -27.6298 
   5   1.0000      -1.015375       -27.6298 
   6   1.0000      -1.008280       -27.4367 
   7   1.0000      -1.008280       -27.4367 
   8   1.0000      -1.006077       -27.3768 
   9   1.0000      -0.424458       -11.5501 
  10   1.0000      -0.201293        -5.4775 
  11   0.0000       0.012237         0.3330 
  12   0.0000       0.012237         0.3330 
  13   0.0000       0.048186         1.3112 
  14   0.0000       0.095522         2.5993 
  15   0.0000       0.095522         2.5993 
  16   0.0000       0.095552         2.6001 
  17   0.0000       0.095552         2.6001 
  18   0.0000       0.095982         2.6118 
  19   0.0000       0.132224         3.5980 
  20   0.0000       0.149850         4.0776 
  21   0.0000       0.149850         4.0776 
  22   0.0000       0.325318         8.8524 
  23   0.0000       0.326991         8.8979 
  24   0.0000       0.326991         8.8979 
  25   0.0000       0.334928         9.1139 
  26   0.0000       0.334928         9.1139 
  27   0.0000       0.366248         9.9661 
  28   0.0000       0.689402        18.7596 
  29   0.0000       0.692176        18.8351 
  30   0.0000       0.692176        18.8351 
  31   0.0000       0.876780        23.8584 
  32   0.0000       0.876780        23.8584 
  33   0.0000       0.881399        23.9841 
  34   0.0000       0.881399        23.9841 
  35   0.0000       0.883990        24.0546 
  36   0.0000       0.883990        24.0546 
  37   0.0000       0.884823        24.0773 
  38   0.0000       1.252446        34.0808 
  39   0.0000       1.252446        34.0808 
  40   0.0000       1.255967        34.1766 
  41   0.0000       1.255967        34.1766 
  42   0.0000       1.257091        34.2072 
  43   0.0000       2.468751        67.1781 
  44   0.0000       2.468751        67.1781 
  45   0.0000       2.479053        67.4585 
  46   0.0000       2.479053        67.4585 
  47   0.0000       2.485278        67.6278 
  48   0.0000       2.485278        67.6278 
  49   0.0000       2.487359        67.6845 
  50   0.0000       3.025320        82.3231 
  51   0.0000      38.204899      1039.6082 
  52   0.0000      39.358684      1071.0042 
  53   0.0000      39.358684      1071.0042 
  54   0.0000      39.360657      1071.0579 
  55   0.0000     125.578949      3417.1769 

                 SPIN DOWN ORBITALS
  NO   OCC          E(Eh)            E(eV) 
   0   1.0000      -5.373031      -146.2076 
   1   1.0000      -3.629541       -98.7648 
   2   1.0000      -3.629541       -98.7648 
   3   1.0000      -3.618038       -98.4518 
   4   1.0000      -1.016107       -27.6497 
   5   1.0000      -1.016107       -27.6497 
   6   1.0000      -1.005548       -27.3624 
   7   1.0000      -1.005548       -27.3624 
   8   1.0000      -1.002238       -27.2723 
   9   1.0000      -0.368972       -10.0402 
  10   0.0000       0.020772         0.5652 
  11   0.0000       0.020772         0.5652 
  12   0.0000       0.048646         1.3237 
  13   0.0000       0.052992         1.4420 
  14   0.0000       0.096574         2.6279 
  15   0.0000       0.096574         2.6279 
  16   0.0000       0.105107         2.8601 
  17   0.0000       0.105107         2.8601 
  18   0.0000       0.108974         2.9653 
  19   0.0000       0.153881         4.1873 
  20   0.0000       0.153881         4.1873 
  21   0.0000       0.179759         4.8915 
  22   0.0000       0.337725         9.1900 
  23   0.0000       0.337725         9.1900 
  24   0.0000       0.359707         9.7881 
  25   0.0000       0.359707         9.7881 
  26   0.0000       0.359972         9.7953 
  27   0.0000       0.386566        10.5190 
  28   0.0000       0.695416        18.9232 
  29   0.0000       0.695416        18.9232 
  30   0.0000       0.724254        19.7080 
  31   0.0000       0.877799        23.8861 
  32   0.0000       0.877799        23.8861 
  33   0.0000       0.899435        24.4749 
  34   0.0000       0.899435        24.4749 
  35   0.0000       0.913189        24.8491 
  36   0.0000       0.913189        24.8491 
  37   0.0000       0.917983        24.9796 
  38   0.0000       1.253349        34.1054 
  39   0.0000       1.253349        34.1054 
  40   0.0000       1.274965        34.6936 
  41   0.0000       1.274965        34.6936 
  42   0.0000       1.282725        34.9047 
  43   0.0000       2.468970        67.1841 
  44   0.0000       2.468970        67.1841 
  45   0.0000       2.481681        67.5300 
  46   0.0000       2.481681        67.5300 
  47   0.0000       2.489416        67.7405 
  48   0.0000       2.489416        67.7405 
  49   0.0000       2.492014        67.8111 
  50   0.0000       3.029446        82.4354 
  51   0.0000      38.205360      1039.6207 
  52   0.0000      39.358271      1070.9930 
  53   0.0000      39.358271      1070.9930 
  54   0.0000      39.363378      1071.1320 
  55   0.0000     125.578994      3417.1781 

                    ********************************
                    * MULLIKEN POPULATION ANALYSIS *
                    ********************************

--------------------------------------------
MULLIKEN ATOMIC CHARGES AND SPIN POPULATIONS
--------------------------------------------
   0 In:   -0.000000    1.000000
Sum of atomic charges         :   -0.0000000
Sum of atomic spin populations:    1.0000000

-----------------------------------------------------
MULLIKEN REDUCED ORBITAL CHARGES AND SPIN POPULATIONS
-----------------------------------------------------
CHARGE
  0 Ins       :     3.993687  s :     3.993687
      pz      :     2.000006  p :     6.999973
      px      :     2.999970
      py      :     1.999998
      dz2     :     2.001578  d :    10.006313
      dxz     :     2.000000
      dyz     :     2.000000
      dx2y2   :     2.004734
      dxy     :     2.000000
      f0      :     0.000001  f :     0.000027
      f+1     :     0.000008
      f-1     :     0.000000
      f+2     :     0.000002
      f-2     :     0.000000
      f+3     :     0.000014
      f-3     :     0.000002

SPIN
  0 Ins       :    -0.001869  s :    -0.001869
      pz      :     0.000009  p :     0.999985
      px      :     0.999975
      py      :     0.000001
      dz2     :     0.000467  d :     0.001869
      dxz     :     0.000000
      dyz     :     0.000000
      dx2y2   :     0.001402
      dxy     :     0.000000
      f0      :    -0.000000  f :     0.000015
      f+1     :     0.000006
      f-1     :    -0.000000
      f+2     :    -0.000000
      f-2     :    -0.000000
      f+3     :     0.000010
      f-3     :    -0.000001


                     *******************************
                     * LOEWDIN POPULATION ANALYSIS *
                     *******************************

-------------------------------------------
LOEWDIN ATOMIC CHARGES AND SPIN POPULATIONS
-------------------------------------------
   0 In:   -0.000000    1.000000

----------------------------------------------------
LOEWDIN REDUCED ORBITAL CHARGES AND SPIN POPULATIONS
----------------------------------------------------
CHARGE
  0 Ins       :     3.993687  s :     3.993687
      pz      :     2.000006  p :     6.999973
      px      :     2.999970
      py      :     1.999998
      dz2     :     2.001578  d :    10.006313
      dxz     :     2.000000
      dyz     :     2.000000
      dx2y2   :     2.004734
      dxy     :     2.000000
      f0      :     0.000001  f :     0.000027
      f+1     :     0.000008
      f-1     :     0.000000
      f+2     :     0.000002
      f-2     :     0.000000
      f+3     :     0.000014
      f-3     :     0.000002

SPIN
  0 Ins       :    -0.001869  s :    -0.001869
      pz      :     0.000009  p :     0.999985
      px      :     0.999975
      py      :     0.000001
      dz2     :     0.000467  d :     0.001869
      dxz     :     0.000000
      dyz     :     0.000000
      dx2y2   :     0.001402
      dxy     :     0.000000
      f0      :    -0.000000  f :     0.000015
      f+1     :     0.000006
      f-1     :    -0.000000
      f+2     :    -0.000000
      f-2     :    -0.000000
      f+3     :     0.000010
      f-3     :    -0.000001


                      *****************************
                      * MAYER POPULATION ANALYSIS *
                      *****************************

  NA   - Mulliken gross atomic population
  ZA   - Total nuclear charge
  QA   - Mulliken gross atomic charge
  VA   - Mayer's total valence
  BVA  - Mayer's bonded valence
  FA   - Mayer's free valence

  ATOM       NA         ZA         QA         VA         BVA        FA
  0 In    21.0000    21.0000    -0.0000     1.0265     0.0000     1.0265

  Mayer bond orders larger than 0.100000


-------
TIMINGS
-------

Total SCF time: 0 days 0 hours 0 min 5 sec 

Total time                  ....       5.227 sec
Sum of individual times     ....       4.807 sec  ( 92.0%)

Fock matrix formation       ....       2.840 sec  ( 54.3%)
Diagonalization             ....       0.082 sec  (  1.6%)
Density matrix formation    ....       0.007 sec  (  0.1%)
Population analysis         ....       0.080 sec  (  1.5%)
Initial guess               ....       1.466 sec  ( 28.1%)
Orbital Transformation      ....       0.000 sec  (  0.0%)
Orbital Orthonormalization  ....       0.000 sec  (  0.0%)
DIIS solution               ....       0.267 sec  (  5.1%)


           ************************************************************
           *        Program running with 24 parallel MPI-processes    *
           *              working on a common directory               *
           ************************************************************


------------------------------------------------------------------------------- 
                              ORCA-MATRIX DRIVEN CI                            
------------------------------------------------------------------------------- 

--------------------------------
AUTOMATIC CHOICE OF INCORE LEVEL
--------------------------------

Memory available                           ...   2500.00 MB
Memory needed for S+T                      ...      1.30 MB
Memory needed for J+K                      ...      2.61 MB
Memory needed for DIIS                     ...     18.17 MB
Memory needed for 3-ext                    ...      4.87 MB
Memory needed for 4-ext                    ...     15.99 MB
Memory needed for triples                  ...      3.48 MB
 -> Final InCoreLevel    ... 5
 -> check shows that triples correction can be computed


Wavefunction type
-----------------
Correlation treatment                      ...      CCSD     
Single excitations                         ... ON
Orbital optimization                       ... OFF
Calculation of Z vector                    ... OFF
Calculation of Brueckner orbitals          ... OFF
Perturbative triple excitations            ... ON
Calculation of F12 correction              ... OFF
Frozen core treatment                      ... chemical core (8 el)
Reference Wavefunction                     ... UHF
  Alpha-MOs occ    :     4 ...   10 (  7 MO's/  7 electrons)
  Beta-MOs occ     :     4 ...    9 (  6 MO's/  6 electrons)
  Alpha-MOs virt   :    11 ...   55 ( 45 MO's              )
  Beta-MOs virt    :    10 ...   55 ( 46 MO's              )
Number of AO's                             ...     56
Number of electrons                        ...     21
Number of correlated electrons             ...     13

Algorithmic settings
--------------------
Integral transformation                    ... AO direct full transformation
K(C) Formation                             ... FULL-MO TRAFO
Maximum number of iterations               ...        50
Convergence tolerance (max. residuum)      ... 1.000e-05
Level shift for amplitude update           ... 2.000e-01
Maximum number of DIIS vectors             ...         7
DIIS turned on at iteration                ...         0
Damping before turning on DIIS             ...     0.500
Damping after turning on DIIS              ...     0.000
Pair specific amplitude update             ... OFF
Natural orbital iterations                 ... OFF
Perturbative natural orbital generation    ... OFF
Printlevel                                 ... 2

Memory handling:
----------------
Maximum memory for working arrays          ...   2500 MB
Data storage in matrix containers          ... UNCOMPRESSED
Data type for integral storage             ... DOUBLE
In-Core Storage of quantities:
   Amplitudes+Sigma Vector      ... YES
   J+K operators                ... YES
   DIIS vectors                 ... YES
   3-external integrals         ... YES
   4-external integrals         ... YES


Initializing the integral package          ... done
Warning: reference  - re-canonicalizations have been set to INT 1 VIRT 1

--------------------------
UNRESTRICTED FOCK OPERATOR
--------------------------

<ss|ss>:          406 b            0 skpd (  0.0%)    0.000 s ( 0.000 ms/b)
<ss|sp>:          980 b            0 skpd (  0.0%)    0.000 s ( 0.000 ms/b)
<ss|sd>:          784 b            0 skpd (  0.0%)    0.000 s ( 0.000 ms/b)
<ss|sf>:          392 b            0 skpd (  0.0%)    0.000 s ( 0.000 ms/b)
<ss|pp>:          420 b            0 skpd (  0.0%)    0.000 s ( 0.000 ms/b)
<ss|pd>:          560 b            0 skpd (  0.0%)    0.000 s ( 0.001 ms/b)
<ss|pf>:          280 b            0 skpd (  0.0%)    0.000 s ( 0.001 ms/b)
<ss|dd>:          280 b            0 skpd (  0.0%)    0.000 s ( 0.002 ms/b)
<ss|df>:          224 b            0 skpd (  0.0%)    0.000 s ( 0.001 ms/b)
<ss|ff>:           84 b            0 skpd (  0.0%)    0.000 s ( 0.003 ms/b)
<sp|sp>:          630 b            0 skpd (  0.0%)    0.000 s ( 0.000 ms/b)
<sp|sd>:          980 b            0 skpd (  0.0%)    0.000 s ( 0.000 ms/b)
<sp|sf>:          490 b            0 skpd (  0.0%)    0.000 s ( 0.000 ms/b)
<sp|pp>:          525 b            0 skpd (  0.0%)    0.000 s ( 0.001 ms/b)
<sp|pd>:          700 b            0 skpd (  0.0%)    0.001 s ( 0.001 ms/b)
<sp|pf>:          350 b            0 skpd (  0.0%)    0.001 s ( 0.002 ms/b)
<sp|dd>:          350 b            0 skpd (  0.0%)    0.001 s ( 0.004 ms/b)
<sp|df>:          280 b            0 skpd (  0.0%)    0.001 s ( 0.002 ms/b)
<sp|ff>:          105 b            0 skpd (  0.0%)    0.001 s ( 0.009 ms/b)
<sd|sd>:          406 b            0 skpd (  0.0%)    0.001 s ( 0.001 ms/b)
<sd|sf>:          392 b            0 skpd (  0.0%)    0.000 s ( 0.001 ms/b)
<sd|pp>:          420 b            0 skpd (  0.0%)    0.001 s ( 0.002 ms/b)
<sd|pd>:          560 b            0 skpd (  0.0%)    0.001 s ( 0.002 ms/b)
<sd|pf>:          280 b            0 skpd (  0.0%)    0.001 s ( 0.004 ms/b)
<sd|dd>:          280 b            0 skpd (  0.0%)    0.003 s ( 0.011 ms/b)
<sd|df>:          224 b            0 skpd (  0.0%)    0.001 s ( 0.005 ms/b)
<sd|ff>:           84 b            0 skpd (  0.0%)    0.001 s ( 0.013 ms/b)
<sf|sf>:          105 b            0 skpd (  0.0%)    0.000 s ( 0.001 ms/b)
<sf|pp>:          210 b            0 skpd (  0.0%)    0.000 s ( 0.001 ms/b)
<sf|pd>:          280 b            0 skpd (  0.0%)    0.000 s ( 0.002 ms/b)
<sf|pf>:          140 b            0 skpd (  0.0%)    0.000 s ( 0.003 ms/b)
<sf|dd>:          140 b            0 skpd (  0.0%)    0.002 s ( 0.012 ms/b)
<sf|df>:          112 b            0 skpd (  0.0%)    0.001 s ( 0.006 ms/b)
<sf|ff>:           42 b            0 skpd (  0.0%)    0.001 s ( 0.022 ms/b)
<pp|pp>:          120 b            0 skpd (  0.0%)    0.000 s ( 0.002 ms/b)
<pp|pd>:          300 b            0 skpd (  0.0%)    0.001 s ( 0.002 ms/b)
<pp|pf>:          150 b            0 skpd (  0.0%)    0.000 s ( 0.003 ms/b)
<pp|dd>:          150 b            0 skpd (  0.0%)    0.002 s ( 0.012 ms/b)
<pp|df>:          120 b            0 skpd (  0.0%)    0.001 s ( 0.006 ms/b)
<pp|ff>:           45 b            0 skpd (  0.0%)    0.001 s ( 0.013 ms/b)
<pd|pd>:          210 b            0 skpd (  0.0%)    0.002 s ( 0.009 ms/b)
<pd|pf>:          200 b            0 skpd (  0.0%)    0.001 s ( 0.004 ms/b)
<pd|dd>:          200 b            0 skpd (  0.0%)    0.006 s ( 0.032 ms/b)
<pd|df>:          160 b            0 skpd (  0.0%)    0.002 s ( 0.015 ms/b)
<pd|ff>:           60 b            0 skpd (  0.0%)    0.002 s ( 0.030 ms/b)
<pf|pf>:           55 b            0 skpd (  0.0%)    0.000 s ( 0.007 ms/b)
<pf|dd>:          100 b            0 skpd (  0.0%)    0.003 s ( 0.028 ms/b)
<pf|df>:           80 b            0 skpd (  0.0%)    0.001 s ( 0.016 ms/b)
<pf|ff>:           30 b            0 skpd (  0.0%)    0.001 s ( 0.036 ms/b)
<dd|dd>:           55 b            0 skpd (  0.0%)    0.009 s ( 0.168 ms/b)
<dd|df>:           80 b            0 skpd (  0.0%)    0.003 s ( 0.043 ms/b)
<dd|ff>:           30 b            0 skpd (  0.0%)    0.002 s ( 0.071 ms/b)
<df|df>:           36 b            0 skpd (  0.0%)    0.002 s ( 0.064 ms/b)
<df|ff>:           24 b            0 skpd (  0.0%)    0.002 s ( 0.077 ms/b)
<ff|ff>:            6 b            0 skpd (  0.0%)    0.001 s ( 0.107 ms/b)
Recanonicalizing the internal orbitals
Recanonicalizing the virtual orbitals
Time needed for Fock operator              ...            0.209 sec
Reference energy                           ...   -189.210089546
Warning: for UHF the TrafoType has to be JK
Warning: for UHF the K(C)-option cannot be MO but must be AOX

-------------------------------
PARTIAL EXCHANGE TRANSFORMATION
-------------------------------

Transformation type                        ... two-operators
Generation of integrals (i,mue|j,nue)      ... ON
Generation of integrals (mue,kappa|nue,tau)... ON
Generation of integrals (i,mue|a,nue)      ... ON
Dimension of the basis                     ...   56
Number of internal alpha-MOs               ...    7 (   4-  10)
Number of internal beta-MOs                ...    6 (   4-   9)
Number of external alpha-MOs               ...   45 (  11-  55)
Number of external beta-MOs                ...   46 (  10-  55)
Pair cutoff                                ... 0.000e+00 Eh
Number of AO pairs in the trafo            ... 1596
Total Number of distinct AO pairs          ... 1596
Memory devoted for trafo                   ... 2500.0 MB 
Max. Number of MO pairs treated together   ... 104489      
Number Format for Storage                  ... Double (8 Byte)
Integral package used                      ... LIBINT

Starting integral evaluation:
    ... done with AO integral generation
Closing buffer AOK[aa] ( 0.00 GB; CompressionRatio= 0.00)
Closing buffer AOK[bb] ( 0.00 GB; CompressionRatio= 0.00)
Closing buffer AOK[ab] ( 0.00 GB; CompressionRatio= 0.00)
Closing buffer AOK[ba] ( 0.00 GB; CompressionRatio= 0.00)
Collecting buffer AOK 
Closing buffer IAAO1[aa] ( 0.00 GB; CompressionRatio= 0.00)
Closing buffer IAAO1[bb] ( 0.00 GB; CompressionRatio= 0.00)
Closing buffer IAAO1[ab] ( 0.00 GB; CompressionRatio= 0.00)
Closing buffer IAAO1[ba] ( 0.00 GB; CompressionRatio= 0.00)
Closing buffer IAAO2[aa] ( 0.00 GB; CompressionRatio= 0.00)
Closing buffer IAAO2[bb] ( 0.00 GB; CompressionRatio= 0.00)
Closing buffer IAAO2[ab] ( 0.00 GB; CompressionRatio= 0.00)
Closing buffer IAAO2[ba] ( 0.00 GB; CompressionRatio= 0.00)
Collecting buffer IAAO 
Closing buffer PRQS    ( 0.00 GB; CompressionRatio= 0.00)
Collecting buffer PRQS 
Number of alpha/alpha MO pairs in trafo    ...   28
Number of beta /beta  MO pairs in trafo    ...   21
Number of alpha/ beta MO pairs in trafo    ...   42
------------------------
SORTING OF (i,mue|j,nue)
------------------------

SORTING OF ALPHA/ALPHA PAIRS
IBATCH = 1 of  1
Closing buffer KAO[aa] ( 0.00 GB; CompressionRatio= 1.00)
Collecting buffer KAO 
SORTING OF BETA /BETA  PAIRS
IBATCH = 1 of  1
Closing buffer KAO[bb] ( 0.00 GB; CompressionRatio= 1.00)
Collecting buffer KAO 
SORTING OF ALPHA/BETA  PAIRS
IBATCH = 1 of  1
Closing buffer KAO[ab] ( 0.00 GB; CompressionRatio= 0.999521912351)
Collecting buffer KAO[ab] 
------------------------
SORTING OF (i,mue|a,nue)
------------------------

Number of alpha/alpha (i,a) pairs in trafo  ...  315
Number of beta /beta  (i,a) pairs in trafo  ...  276
Number of alpha/ beta (i,a) pairs in trafo  ...  322
Number of beta /alpha (i,a) pairs in trafo  ...  270
Setting up the alpha/alpha list             ... done
Setting up the beta /beta  list             ... done
Setting up the alpha/beta  list             ... done
Setting up the beta /alpha list             ... done
    ... Now sorting (i,mue|a,nue)integrals
    ... Integrals (i,b|a,c) will be made on the fly
SORTING OF ALPHA/ALPHA PAIRS
IBATCH = 1 of  1
Closing buffer IPAQ[aa]  0.00 GB; CompressionRatio= 1.00)
SORTING OF BETA /BETA  PAIRS
IBATCH = 1 of  1
Closing buffer IPAQ[bb]( 0.00 GB; CompressionRatio= 1.00)
SORTING OF ALPHA/BETA  PAIRS (NMatSort_ab=14)
IBATCH = 1 of  1
Closing buffer IPAQ[ab]( 0.00 GB; CompressionRatio= 1.00)
SORTING OF BETA/ALPHA  PAIRS
IBATCH = 1 of  1
Closing buffer IPAQ[ba]( 0.00 GB; CompressionRatio= 1.00)
N(AO-Batches) Done                         ...         0 
N(AO-Batches) Skipped                      ...         0 
N(IJ)-pairs Skipped                        ...         0 
TOTAL TIME for half transformation         ...     3.099 sec
AO-integral generation                     ...     0.000 sec
Half transformation                        ...     0.000 sec
K-integral sorting                         ...     0.791 sec
<ss|**>: 
------------------------------
PARTIAL COULOMB TRANSFORMATION
------------------------------

Transformation type                        ... two-operators
Dimension of the basis                     ...   56
Number of internal alpha-MOs               ...    7 (4-10)
Number of internal beta-MOs                ...    6 (4-9)
Pair cutoff                                ... 0.000e+00 Eh
Number of AO pairs included in the trafo   ... 1596
Total Number of distinct AO pairs          ... 1596
Memory devoted for trafo                   ... 2500.0 MB 
Max. Number of MO pairs treated together   ... 205313      
Max. Number of MOs treated per batch       ... 3666      
Number Format for Storage                  ... Double (8 Byte)
AO-integral source                         ... DIRECT
Integral package used                      ... LIBINT

Starting integral evaluation:
<sp|**>:         4788 b        0 skpd     0.003 s (  0.001 ms/b)
<sd|**>:         5985 b        0 skpd     0.016 s (  0.003 ms/b)
<sf|**>:         4788 b        0 skpd     0.024 s (  0.005 ms/b)
<pp|**>:         2394 b        0 skpd     0.025 s (  0.010 ms/b)
        2565 b        0 skpd     0.022 s (  0.008 ms/b)
<pd|**>:         3420 b        0 skpd     0.051 s (  0.015 ms/b)
<pf|**>:         1710 b        0 skpd     0.040 s (  0.023 ms/b)
<dd|**>:         1710 b        0 skpd     0.046 s (  0.027 ms/b)
<df|**>:         1368 b        0 skpd     0.053 s (  0.039 ms/b)
<ff|**>:          513 b        0 skpd     0.045 s (  0.087 ms/b)
Closing buffer AOJ[aa] ( 0.00 GB; CompressionRatio= 0.95)
Closing buffer AOJ[bb] ( 0.00 GB; CompressionRatio= 0.00)
Collecting buffer AOJ 
    ... done with AO integral generation
Number of Alpha-MO pairs included          ...   28
Number of Beta-MO pairs included           ...   21
    ... Now sorting integrals
SORTING ALPHA/ALPHA PAIRS
IBATCH = 1 of  1
Closing buffer JAO[aa] ( 0.00 GB; CompressionRatio= 1.00)
SORTING BETA/BETA PAIRS
IBATCH = 1 of  1
Closing buffer JAO[bb] ( 0.00 GB; CompressionRatio= 1.00)
Collecting buffer JAO 
TOTAL TIME for half transformation         ...     0.566 sec
AO-integral generation                     ...     0.157 sec
Half transformation                        ...     0.168 sec
J-integral sorting                         ...     0.105 sec

-------------------------- SECOND HALF TRANSFORMATION -------------------------
Formation of (ij|kl),(ij|ka), (ij|ab)      ... ok (     0.147 sec)
Formation of (ik|jl),(ik|ja), (ia|jb)      ... ok (     0.219 sec)


-----------------------
SPIN UNRESTRICTED GUESS
-----------------------

Entering MDCI_UHF_Guess, Tailored=0
Spin-components of the MP2 energy:
EMP2(aa)=     -0.046037982
EMP2(bb)=     -0.040621428
EMP2(ab)=     -0.162266644

Initial guess performed in     0.007 sec
E(0)                                       ...   -189.210089546
E(MP2)                                     ...     -0.248926054
Initial E(tot)                             ...   -189.459015600
<T|T>                                      ...      0.074283899
Number of pairs included                   ... 78

------------------------------------------------
                  UHF COUPLED CLUSTER ITERATIONS
------------------------------------------------

Number of amplitudes to be optimized       ...       124357

Iter       E(tot)           E(Corr)          Delta-E          Residual     Time      <S|S>**1/2
  0   -189.459015600     -0.248926054     -0.000000000      0.023261209    0.17      0.000001184
                           *** Turning on DIIS ***
  1   -189.449354683     -0.239265136      0.009660917      0.007003808    0.16      0.034139244
  2   -189.454219945     -0.244130399     -0.004865262      0.003459687    0.15      0.043639565
  3   -189.456159723     -0.246070177     -0.001939778      0.000915108    0.16      0.052423418
  4   -189.456521414     -0.246431867     -0.000361690      0.000227699    0.15      0.054896814
  5   -189.456553616     -0.246464070     -0.000032202      0.000120040    0.16      0.055332345
  6   -189.456560184     -0.246470638     -0.000006568      0.000054701    0.16      0.055403604
  7   -189.456560484     -0.246470938     -0.000000300      0.000023335    0.17      0.055410164
  8   -189.456560723     -0.246471177     -0.000000239      0.000008867    0.16      0.055414906
               --- The Coupled-Cluster iterations have converged ---

----------------------
COUPLED CLUSTER ENERGY
----------------------

E(0)                                       ...   -189.210089546
E(CORR)                                    ...     -0.246471177
E(TOT)                                     ...   -189.456560723
Singles norm <S|S>**1/2                    ...      0.055414906 ( 0.034608909, 0.020805997)  
T1 diagnostic                              ...      0.015369330                              

------------------
LARGEST AMPLITUDES
------------------
   9a-> 12a   9b-> 10b       0.052646
   9a-> 11a   9b-> 11b       0.052646
   9a-> 12a   9b-> 19b       0.042542
   9a-> 11a   9b-> 20b       0.042542
  10a-> 22a   9b-> 12b       0.037817
  10a-> 24a   9b-> 10b       0.036650
  10a-> 23a   9b-> 11b       0.036650
  10a-> 22a   9b-> 21b       0.034495
   9a-> 21a   9b-> 10b       0.032300
   9a-> 20a   9b-> 11b       0.032300
   9a-> 27a  -1a-> -1a       0.030962
   9a-> 22a  -1a-> -1a       0.027213
   9a-> 20a   9b-> 10b       0.026755
   9a-> 21a   9b-> 11b       0.026755
   9a-> 12a   9b-> 11b       0.026750
   9a-> 11a   9b-> 10b       0.026750

----------------------
UHF TRIPLES CORRECTION (Algorithm 1)
----------------------

Multiplier for the singles contribution    ...      1.000000000

SPIN-CASE Alpha-Alpha-Alpha:
10% done
20% done
30% done
40% done
50% done
60% done
70% done
80% done
90% done


SPIN-CASE Beta-Beta-Beta:
10% done
20% done
30% done
40% done
50% done
60% done
70% done
80% done
90% done


SPIN-CASE Alpha-Alpha-Beta:
10% done
20% done
30% done
40% done
50% done
60% done
70% done
80% done
90% done


SPIN-CASE Beta-Beta-Alpha:
10% done
20% done
30% done
40% done
50% done
60% done
70% done
80% done
90% done


Triples Correction (T)                     ...     -0.006268499
    alpha-alpha-alpha ... -0.000226736 (  3.6%)
    alpha-alpha-beta  ... -0.003337985 ( 53.3%)
    alpha-beta -beta  ... -0.002559177 ( 40.8%)
    beta -beta -beta  ... -0.000144602 (  2.3%)
Scaling of triples based on CCSD energies (Peterson et al. Molecular Physics 113, 1551 (2015))
E(T*) = f*E(T) where f = E(F12-CCSD)/E(CCSD) 
f = CCSD (with F12)/ CCSD (without F12)    ...      1.000000000
Scaled triples correction (T)              ...     -0.006268499

Final correlation energy                   ...     -0.252739676
E(CCSD)                                    ...   -189.456560723
E(CCSD(T))                                 ...   -189.462829222



        !!!!!!!!!!!!!!!!!!!!!!!!!!!!!!!!!!!!!!!!!!!!!!!!!!!!!!!!!!!!!!!!!!!!!!!!!! 
        !  Warning: Densities are linearized densities                           !
        !!!!!!!!!!!!!!!!!!!!!!!!!!!!!!!!!!!!!!!!!!!!!!!!!!!!!!!!!!!!!!!!!!!!!!!!!! 

NORM  =      1.093220148 sqrt=     1.045571685
W(HF) =      0.914728842
------------------------------------------------------------------------------
                           ORCA POPULATION ANALYSIS
------------------------------------------------------------------------------
Input electron density              ... 49_In.mdcip
Input spin density                  ... 49_In.mdcir
BaseName (.gbw .S,...)              ... 49_In

                    ********************************
                    * MULLIKEN POPULATION ANALYSIS *
                    ********************************

------------------------------------------
MULLIKEN ATOMIC CHARGES AND SPIN DENSITIES
------------------------------------------
   0 In:   -0.000000    1.000000
Sum of atomic charges       :   -0.0000000
Sum of atomic spin densities:    1.0000000

---------------------------------------------------
MULLIKEN REDUCED ORBITAL CHARGES AND SPIN DENSITIES
---------------------------------------------------
CHARGE
  0 Ins       :     3.924414  s :     3.924414
      pz      :     2.033282  p :     7.061742
      px      :     2.995185
      py      :     2.033275
      dz2     :     1.991470  d :     9.967951
      dxz     :     1.995736
      dyz     :     1.989399
      dx2y2   :     1.995610
      dxy     :     1.995736
      f0      :     0.006518  f :     0.045894
      f+1     :     0.006584
      f-1     :     0.006467
      f+2     :     0.006559
      f-2     :     0.006546
      f+3     :     0.006610
      f-3     :     0.006611

SPIN
  0 Ins       :     0.014944  s :     0.014944
      pz      :    -0.001149  p :     0.972903
      px      :     0.975209
      py      :    -0.001157
      dz2     :     0.001095  d :     0.011316
      dxz     :     0.003445
      dyz     :    -0.000047
      dx2y2   :     0.003378
      dxy     :     0.003445
      f0      :     0.000072  f :     0.000837
      f+1     :     0.000155
      f-1     :     0.000012
      f+2     :     0.000121
      f-2     :     0.000115
      f+3     :     0.000181
      f-3     :     0.000181


                     *******************************
                     * LOEWDIN POPULATION ANALYSIS *
                     *******************************

-----------------------------------------
LOEWDIN ATOMIC CHARGES AND SPIN DENSITIES
-----------------------------------------
   0 In:   -0.000000    1.000000

--------------------------------------------------
LOEWDIN REDUCED ORBITAL CHARGES AND SPIN DENSITIES
--------------------------------------------------
CHARGE
  0 Ins       :     3.924414  s :     3.924414
      pz      :     2.033282  p :     7.061742
      px      :     2.995185
      py      :     2.033275
      dz2     :     1.991470  d :     9.967951
      dxz     :     1.995736
      dyz     :     1.989399
      dx2y2   :     1.995610
      dxy     :     1.995736
      f0      :     0.006518  f :     0.045894
      f+1     :     0.006584
      f-1     :     0.006467
      f+2     :     0.006559
      f-2     :     0.006546
      f+3     :     0.006610
      f-3     :     0.006611

SPIN
  0 Ins       :     0.014944  s :     0.014944
      pz      :    -0.001149  p :     0.972903
      px      :     0.975209
      py      :    -0.001157
      dz2     :     0.001095  d :     0.011316
      dxz     :     0.003445
      dyz     :    -0.000047
      dx2y2   :     0.003378
      dxy     :     0.003445
      f0      :     0.000072  f :     0.000837
      f+1     :     0.000155
      f-1     :     0.000012
      f+2     :     0.000121
      f-2     :     0.000115
      f+3     :     0.000181
      f-3     :     0.000181


                      *****************************
                      * MAYER POPULATION ANALYSIS *
                      *****************************

  NA   - Mulliken gross atomic population
  ZA   - Total nuclear charge
  QA   - Mulliken gross atomic charge
  VA   - Mayer's total valence
  BVA  - Mayer's bonded valence
  FA   - Mayer's free valence

  ATOM       NA         ZA         QA         VA         BVA        FA
  0 In    21.0000    21.0000    -0.0000     1.6398     0.0000     1.6398





------------------------------------------------------------------------------- 
                                     TIMINGS                                   
------------------------------------------------------------------------------- 


Total execution time                   ...        6.204 sec

Fock Matrix Formation                  ...        0.209 sec (  3.4%)
Initial Guess                          ...        0.007 sec (  0.1%)
DIIS Solver                            ...        0.093 sec (  1.5%)
State Vector Update                    ...        0.005 sec (  0.1%)
Sigma-vector construction              ...        1.340 sec ( 21.6%)
  <D|H|D>(0-ext Fock)                  ...        0.001 sec (  0.1% of sigma)
  <D|H|D>(0-ext)                       ...        0.003 sec (  0.2% of sigma)
  <D|H|D>(2-ext)                       ...        0.017 sec (  1.3% of sigma)
  <D|H|D>(4-ext)                       ...        0.503 sec ( 37.5% of sigma)
  <S|H|0>                              ...        0.035 sec (  2.6% of sigma)
  <D|H|S>(1-ext)                       ...        0.008 sec (  0.6% of sigma)
  Fock-dressing                        ...        0.469 sec ( 35.0% of sigma)
  (ik|jl)-dressing                     ...        0.004 sec (  0.3% of sigma)
  (ij|ab),(ia|jb)-dressing             ...        0.224 sec ( 16.7% of sigma)
Total Time for computing (T)           ...        0.072 sec (  1.2% of ALL)
  I/O of integral and amplitudes       ...        0.018 sec ( 25.2% of (T))
  External N**7 contributions          ...        0.018 sec ( 25.5% of (T))
  Internal N**7 contributions          ...        0.007 sec (  9.2% of (T))
  N**6 triples energy contributions    ...        0.025 sec ( 35.3% of (T))


-------------------------   --------------------
FINAL SINGLE POINT ENERGY      -189.462829222478
-------------------------   --------------------


                            ***************************************
                            *     ORCA property calculations      *
                            ***************************************

                                    ---------------------
                                    Active property flags
                                    ---------------------
   (+) Dipole Moment


------------------------------------------------------------------------------
                       ORCA ELECTRIC PROPERTIES CALCULATION
------------------------------------------------------------------------------

Dipole Moment Calculation                       ... on
Quadrupole Moment Calculation                   ... off
Polarizability Calculation                      ... off
GBWName                                         ... 49_In.gbw
Electron density file                           ... 49_In.scfp
The origin for moment calculation is the CENTER OF MASS  = ( 0.000000,  0.000000  0.000000)

-------------
DIPOLE MOMENT
-------------
                                X             Y             Z
Electronic contribution:     -0.00000       0.00000       0.00000
Nuclear contribution   :      0.00000       0.00000       0.00000
                        -----------------------------------------
Total Dipole Moment    :     -0.00000       0.00000       0.00000
                        -----------------------------------------
Magnitude (a.u.)       :      0.00000
Magnitude (Debye)      :      0.00000



--------------------
Rotational spectrum 
--------------------
 
Rotational constants in cm-1:     0.000000     0.000000     0.000000 
Rotational constants in MHz :     0.000000     0.000000     0.000000 

 Dipole components along the rotational axes: 
x,y,z [a.u.] :    -0.000000     0.000000     0.000000 
x,y,z [Debye]:    -0.000000     0.000000     0.000000 

 

                           *** MDCI DENSITY ***

------------------------------------------------------------------------------
                       ORCA ELECTRIC PROPERTIES CALCULATION
------------------------------------------------------------------------------

Dipole Moment Calculation                       ... on
Quadrupole Moment Calculation                   ... off
Polarizability Calculation                      ... off
GBWName                                         ... 49_In.gbw
Electron density file                           ... 49_In.mdcip
The origin for moment calculation is the CENTER OF MASS  = ( 0.000000,  0.000000  0.000000)

-------------
DIPOLE MOMENT
-------------
                                X             Y             Z
Electronic contribution:      0.00000      -0.00000      -0.00000
Nuclear contribution   :      0.00000       0.00000       0.00000
                        -----------------------------------------
Total Dipole Moment    :      0.00000      -0.00000      -0.00000
                        -----------------------------------------
Magnitude (a.u.)       :      0.00000
Magnitude (Debye)      :      0.00000



--------------------
Rotational spectrum 
--------------------
 
Rotational constants in cm-1:     0.000000     0.000000     0.000000 
Rotational constants in MHz :     0.000000     0.000000     0.000000 

 Dipole components along the rotational axes: 
x,y,z [a.u.] :     0.000000    -0.000000    -0.000000 
x,y,z [Debye]:     0.000000    -0.000000    -0.000000 

 

Timings for individual modules:

Sum of individual times         ...       13.253 sec (=   0.221 min)
GTO integral calculation        ...        0.923 sec (=   0.015 min)   7.0 %
SCF iterations                  ...        5.642 sec (=   0.094 min)  42.6 %
MDCI module                     ...        6.688 sec (=   0.111 min)  50.5 %
                             ****ORCA TERMINATED NORMALLY****
TOTAL RUN TIME: 0 days 0 hours 0 minutes 13 seconds 988 msec
