
                                 *****************
                                 * O   R   C   A *
                                 *****************

           --- An Ab Initio, DFT and Semiempirical electronic structure package ---

                  #######################################################
                  #                        -***-                        #
                  #          Department of theory and spectroscopy      #
                  #               Directorship: Frank Neese             #
                  #        Max Planck Institute fuer Kohlenforschung    #
                  #                Kaiser Wilhelm Platz 1               #
                  #                 D-45470 Muelheim/Ruhr               #
                  #                      Germany                        #
                  #                                                     #
                  #                  All rights reserved                #
                  #                        -***-                        #
                  #######################################################


                         Program Version 4.2.0 -  RELEASE  -


 With contributions from (in alphabetic order):
   Daniel Aravena         : Magnetic Suceptibility
   Michael Atanasov       : Ab Initio Ligand Field Theory (pilot matlab implementation)
   Alexander A. Auer      : GIAO ZORA, VPT2
   Ute Becker             : Parallelization
   Giovanni Bistoni       : ED, misc. LED, open-shell LED, HFLED
   Martin Brehm           : Molecular dynamics
   Dmytro Bykov           : SCF Hessian
   Vijay G. Chilkuri      : MRCI spin determinant printing, contributions to CSF-ICE
   Dipayan Datta          : RHF DLPNO-CCSD density
   Achintya Kumar Dutta   : EOM-CC, STEOM-CC
   Dmitry Ganyushin       : Spin-Orbit,Spin-Spin,Magnetic field MRCI
   Miquel Garcia          : C-PCM Hessian, Gaussian charge scheme
   Yang Guo               : DLPNO-NEVPT2, CIM, IAO-localization
   Andreas Hansen         : Spin unrestricted coupled pair/coupled cluster methods
   Benjamin Helmich-Paris : CASSCF linear response (MC-RPA)
   Lee Huntington         : MR-EOM, pCC
   Robert Izsak           : Overlap fitted RIJCOSX, COSX-SCS-MP3, EOM
   Christian Kollmar      : KDIIS, OOCD, Brueckner-CCSD(T), CCSD density
   Simone Kossmann        : Meta GGA functionals, TD-DFT gradient, OOMP2, MP2 Hessian
   Martin Krupicka        : AUTO-CI
   Lucas Lang             : DCDCAS
   Dagmar Lenk            : GEPOL surface, SMD
   Dimitrios Liakos       : Extrapolation schemes; Compound Job, initial MDCI parallelization
   Dimitrios Manganas     : Further ROCIS development; embedding schemes
   Dimitrios Pantazis     : SARC Basis sets
   Taras Petrenko         : DFT Hessian,TD-DFT gradient, ASA, ECA, R-Raman, ABS, FL, XAS/XES, NRVS
   Peter Pinski           : DLPNO-MP2, DLPNO-MP2 Gradient
   Christoph Reimann      : Effective Core Potentials
   Marius Retegan         : Local ZFS, SOC
   Christoph Riplinger    : Optimizer, TS searches, QM/MM, DLPNO-CCSD(T), (RO)-DLPNO pert. Triples
   Tobias Risthaus        : Range-separated hybrids, TD-DFT gradient, RPA, STAB
   Michael Roemelt        : Original ROCIS implementation
   Masaaki Saitow         : Open-shell DLPNO-CCSD energy and density
   Barbara Sandhoefer     : DKH picture change effects
   Avijit Sen             : IP-ROCIS
   Kantharuban Sivalingam : CASSCF convergence, NEVPT2, FIC-MRCI
   Bernardo de Souza      : ESD, SOC TD-DFT
   Georgi Stoychev        : AutoAux, RI-MP2 NMR
   Willem Van den Heuvel  : Paramagnetic NMR
   Boris Wezisla          : Elementary symmetry handling
   Frank Wennmohs         : Technical directorship


 We gratefully acknowledge several colleagues who have allowed us to
 interface, adapt or use parts of their codes:
   Stefan Grimme, W. Hujo, H. Kruse,             : VdW corrections, initial TS optimization,
                  C. Bannwarth                     DFT functionals, gCP, sTDA/sTD-DF
   Ed Valeev, F. Pavosevic, A. Kumar             : LibInt (2-el integral package), F12 methods
   Garnet Chan, S. Sharma, J. Yang, R. Olivares  : DMRG
   Ulf Ekstrom                                   : XCFun DFT Library
   Mihaly Kallay                                 : mrcc  (arbitrary order and MRCC methods)
   Andreas Klamt, Michael Diedenhofen            : otool_cosmo (COSMO solvation model)
   Jiri Pittner, Ondrej Demel                    : Mk-CCSD
   Frank Weinhold                                : gennbo (NPA and NBO analysis)
   Christopher J. Cramer and Donald G. Truhlar   : smd solvation model
   Lars Goerigk                                  : TD-DFT with DH, B97 family of functionals
   V. Asgeirsson, H. Jonsson                     : NEB implementation
   FAccTs GmbH                                   : IRC, NEB, NEB-TS, Multilevel, MM, QM/MM, CI optimization
   S Lehtola, MJT Oliveira, MAL Marques          : LibXC Library


 Your calculation uses the libint2 library for the computation of 2-el integrals
 For citations please refer to: http://libint.valeyev.net

 Your ORCA version has been built with support for libXC version: 4.2.3
 For citations please refer to: https://tddft.org/programs/libxc/

 This ORCA versions uses:
   CBLAS   interface :  Fast vector & matrix operations
   LAPACKE interface :  Fast linear algebra routines
   SCALAPACK package :  Parallel linear algebra routines


----- Orbital basis set information -----
Your calculation utilizes the basis: def2-SVP
   F. Weigend and R. Ahlrichs, Phys. Chem. Chem. Phys. 7, 3297 (2005).

----- AuxJ basis set information -----
Your calculation utilizes the auxiliary basis: def2/J
   F. Weigend, Phys. Chem. Chem. Phys. 8, 1057 (2006).

================================================================================
                                        WARNINGS
                       Please study these warnings very carefully!
================================================================================


INFO   : the flag for use of LIBINT has been found!

================================================================================
                                       INPUT FILE
================================================================================
NAME = 49_In_atom49.inp
|  1> # input to generate an atomic fitting density for In
|  2> # this file is use internally by ORCA
|  3> #
|  4> # atomic ground state (S=2): 1s2 2s2 2p6 3s2 3p6 4s2 3d10 4p6 5s2 4d10 5p1 
|  5> #
|  6> ! RHF AllowRHF def2-SVP def2/J  NoMulliken NoLoewdin NoMayer NoPrintMOs 
|  7> 
|  8> %output print[p_atomdensfit] 2 end
|  9> 
| 10> %scf
| 11>   guess hcore
| 12>   maxiter 1000
| 13>   maxdisk 500000
| 14>   SCFMode Conventional
| 15>   lshift 1.000000
| 16>   hftyp rohf
| 17>   rohf_case sahf
| 18>   rohf_numop   2
| 19>   rohf_norb[1] 3
| 20>   rohf_nel[1]  1
| 21> end
| 22> 
| 23> %basis
| 24>   NewECP 49
| 25>     N_core 28
| 26>     lmax f
| 27>     s 4
| 28>       1      15.3928220000    281.1223500000  2
| 29>       2       8.0558640000     61.9014700000  2
| 30>       3      12.5390560000     13.7280780000  2
| 31>       4      12.5525610000     18.2068660000  2
| 32>     p 6
| 33>       1      13.9286720000     67.4621540000  2
| 34>       2      13.3472340000    134.9492500000  2
| 35>       3       7.6141320000     14.7461400000  2
| 36>       4       7.3183650000     29.6392620000  2
| 37>       5      12.5390560000     13.7280780000  2
| 38>       6      12.5525610000     18.2068660000  2
| 39>     d 6
| 40>       1      14.0347150000     35.4932540000  2
| 41>       2      14.5116160000     53.1787730000  2
| 42>       3       5.5505500000      9.1772810000  2
| 43>       4       5.0594150000     12.3924100000  2
| 44>       5      12.5390560000     13.7280780000  2
| 45>       6      12.5525610000     18.2068660000  2
| 46>     f 2
| 47>       1      12.5390560000    -13.7280780000  2
| 48>       2      12.5525610000    -18.2068660000  2
| 49>   end
| 50>   NewGTO 49
| 51>     s 4 
| 52>      1     847.7927677400      0.0001991321
| 53>      2      72.0410548240      0.0037802215
| 54>      3      41.0613165220     -0.0137092240
| 55>      4      12.4076097130      1.0083428725
| 56>     s 2 
| 57>      1      11.6403169410      0.7070046123
| 58>      2       6.3695642727      0.3069946789
| 59>     s 1 
| 60>      1       1.7063236353      1.0000000000
| 61>     s 1 
| 62>      1       0.7866696794      1.0000000000
| 63>     s 1 
| 64>      1       0.1696519687      1.0000000000
| 65>     s 1 
| 66>      1       0.0620748587      1.0000000000
| 67>     p 3 
| 68>      1     268.2813668500      0.0005395928
| 69>      2      14.7815537820      0.3636176018
| 70>      3       8.8041476194     -1.3245278979
| 71>     p 3 
| 72>      1       2.3717277227      0.4522459931
| 73>      2       1.1927065422      0.4560012447
| 74>      3       0.5835281204      0.1590437856
| 75>     p 1 
| 76>      1       0.2328096831      1.0000000000
| 77>     p 1 
| 78>      1       0.0886740652      1.0000000000
| 79>     p 1 
| 80>      1       0.0335988283      1.0000000000
| 81>     s 1 
| 82>      1       0.0215217282      1.0000000000
| 83>   end
| 84>   NewAuxGTO 49
| 85>     S 1
| 86>      1 1310.72 1.0
| 87>     S 1
| 88>      1  655.36 1.0
| 89>     S 1
| 90>      1  327.68 1.0
| 91>     S 1
| 92>      1  163.84 1.0
| 93>     S 1
| 94>      1   81.82 1.0
| 95>     S 1
| 96>      1   40.96 1.0
| 97>     S 1
| 98>      1   20.48 1.0
| 99>     S 1
|100>      1   10.24 1.0
|101>     S 1
|102>      1    5.12 1.0
|103>     S 1
|104>      1    2.56 1.0
|105>     S 1
|106>      1    1.28 1.0
|107>     S 1
|108>      1    0.64 1.0
|109>     S 1
|110>      1    0.32 1.0
|111>     S 1
|112>      1    0.16 1.0
|113>     S 1
|114>      1    0.08 1.0
|115>     S 1
|116>      1    0.04 1.0
|117>     S 1
|118>      1    0.02 1.0
|119>     S 1
|120>      1    0.01 1.0
|121>   end
|122> end
|123> 
|124> * xyz 0 2
|125> 49  0.0 0.0 0.0
|126> *
|127> 
|128> 
|129>                          ****END OF INPUT****
================================================================================

                       ****************************
                       * Single Point Calculation *
                       ****************************

---------------------------------
CARTESIAN COORDINATES (ANGSTROEM)
---------------------------------
  In     0.000000    0.000000    0.000000

----------------------------
CARTESIAN COORDINATES (A.U.)
----------------------------
  NO LB      ZA    FRAG     MASS         X           Y           Z
   0 In   21.0000*   0   114.820    0.000000    0.000000    0.000000
* core charge reduced due to ECP

--------------------------------
INTERNAL COORDINATES (ANGSTROEM)
--------------------------------
 In     0   0   0     0.000000000000     0.00000000     0.00000000

---------------------------
INTERNAL COORDINATES (A.U.)
---------------------------
 In     0   0   0     0.000000000000     0.00000000     0.00000000

---------------------
BASIS SET INFORMATION
---------------------
There are 1 groups of distinct atoms

 Group   1 Type In  : 11s9p contracted to 7s5p pattern {4211111/33111}

Atom   0In   basis set group =>   1
---------------------------------
AUXILIARY/J BASIS SET INFORMATION
---------------------------------
There are 1 groups of distinct atoms

 Group   1 Type In  : 18s contracted to 18s pattern {111111111111111111}

Atom   0In   basis set group =>   1
-------------------------
ECP PARAMETER INFORMATION
-------------------------

 Group 1, Type In ECP (replacing 28 core electrons, lmax=3)

Atom   0In   ECP group =>   1

------------------------------------------------------------------------------
                           ORCA GTO INTEGRAL CALCULATION
------------------------------------------------------------------------------

                         BASIS SET STATISTICS AND STARTUP INFO

 # of primitive gaussian shells          ...   20
 # of primitive gaussian functions       ...   38
 # of contracted shells                  ...   12
 # of contracted basis functions         ...   22
 Highest angular momentum                ...    1
 Maximum contraction depth               ...    4
 Integral package used                   ... LIBINT
 Integral threshhold            Thresh   ...  1.000e-10
 Primitive cut-off              TCut     ...  1.000e-11
 Storage cut-off                TCutStore... -1.000e+00
 Buffer length                           ... 1048576 integrals/buffer
 Generate file with integrals 4 distinct ...false


------------------------------ INTEGRAL EVALUATION ----------------------------


 * One electron integrals 

   ECP integrals                         ... done
 Pre-screening matrix                    ... done
 Shell pair data                         ... done (   0.000 sec)
 Statistics run                          ... done
 Maximum amount of storage needed        ...     0 MB
 Maximum amount of storage dedicated     ... 500000 MB
 Beginning two electron integral evaluation:
 Starting repulsion integrals
  <ss|ss>  ...          406 b.         0 skpd (  0.0%)     0.000 s. (  0.000 ms/b)
  <ss|sp>  ...          980 b.         0 skpd (  0.0%)     0.000 s. (  0.000 ms/b)
  <ss|pp>  ...          420 b.         0 skpd (  0.0%)     0.000 s. (  0.001 ms/b)
  <sp|sp>  ...          630 b.         0 skpd (  0.0%)     0.000 s. (  0.001 ms/b)
  <sp|pp>  ...          525 b.         0 skpd (  0.0%)     0.001 s. (  0.002 ms/b)
  <pp|pp>  ...          120 b.         0 skpd (  0.0%)     0.001 s. (  0.004 ms/b)


                                      INTEGRAL STATISTICS

Integral type statistics:
 Number of integrals retained            ...      32131 
 One   Center Integrals retained         ...      32131 (100.0%)
 Two   Center Integrals retained         ...          0 (  0.0%)
 Three Center Integrals retained         ...          0 (  0.0%)
 Four  Center Integrals retained         ...          0 (  0.0%)

Storage statistics:
 Number of char integrals                ...          0 (  0.0%)
 Number of short int integrals           ...          0 (  0.0%)
 Number of double/float integrals        ...      32131 (100.0%)
 Amount of memory used                   ...          0 MB
 Amount of memory estimated              ...          0 MB ( 96.0%)

Prescreening statistics:
 Total number of shell quadruples        ...       3081 
 Number of skipped shell quadruples      ...          0 (  0.0%)
 # of negligible batches done            ...          0 (  0.0%)

Timings:
 Total evaluation time               ...     0.157 sec (   0.003 min)
 One electron matrix time            ...     0.013 sec (   0.000 min) =  8.0%
 Schwartz matrix evaluation time     ...     0.071 sec (   0.001 min) = 45.2%
 Statistics run                      ...     0.000 sec (   0.000 min) =  0.2%
 Repulsion integral time             ...     0.002 sec (   0.000 min) =  1.5%

-------------------------------------------------------------------------------
                                 ORCA SCF
-------------------------------------------------------------------------------

------------
SCF SETTINGS
------------
Hamiltonian:
 Ab initio Hamiltonian  Method          .... Hartree-Fock(GTOs)


General Settings:
 Integral files         IntName         .... 49_In_atom49
 Hartree-Fock type      HFTyp           .... ROHF
 Total Charge           Charge          ....    0
 Multiplicity           Mult            ....    2
 Number of Electrons    NEL             ....   21
 Basis Dimension        Dim             ....   22
 Nuclear Repulsion      ENuc            ....      0.0000000000 Eh

Convergence Acceleration:
 DIIS                   CNVDIIS         .... on
   Start iteration      DIISMaxIt       ....    12
   Startup error        DIISStart       ....  0.200000
   # of expansion vecs  DIISMaxEq       ....     5
   Bias factor          DIISBfac        ....   1.050
   Max. coefficient     DIISMaxC        ....  10.000
 Newton-Raphson         CNVNR           .... off
 SOSCF                  CNVSOSCF        .... off
 Level Shifting         CNVShift        .... on
   Level shift para.    LevelShift      ....    1.0000
   Turn off err/grad.   ShiftErr        ....    0.0010
 Zerner damping         CNVZerner       .... off
 Static damping         CNVDamp         .... on
   Fraction old density DampFac         ....    0.7000
   Max. Damping (<1)    DampMax         ....    0.9800
   Min. Damping (>=0)   DampMin         ....    0.0000
   Turn off err/grad.   DampErr         ....    0.1000
 Fernandez-Rico         CNVRico         .... off

SCF Procedure:
 Maximum # iterations   MaxIter         ....  1000
 SCF integral mode      SCFMode         .... Conventional
 Integral Threshold     Thresh          ....  1.000e-10 Eh
 Primitive CutOff       TCut            ....  1.000e-11 Eh
 Integral Buffer length BufferLength    .... 1048576
 Integral index format  IndFormat       ....     0
 Integral value format  ValFormat       ....     0
 Integral Storage       Thresh          ....  1.000e-10 Eh

Convergence Tolerance:
 Convergence Check Mode ConvCheckMode   .... Total+1el-Energy
 Convergence forced     ConvForced      .... 0
 Energy Change          TolE            ....  1.000e-06 Eh
 1-El. energy change                    ....  1.000e-03 Eh
 DIIS Error             TolErr          ....  1.000e-06


Diagonalization of the overlap matrix:
Smallest eigenvalue                        ... 2.903e-03
Time for diagonalization                   ...    0.000 sec
Threshold for overlap eigenvalues          ... 1.000e-08
Number of eigenvalues below threshold      ... 0
Time for construction of square roots      ...    0.002 sec
Total time needed                          ...    0.002 sec

--------------------
INITIAL GUESS: HCORE
--------------------
AVERAGE-CONFIGURATION (SAHF) CASE FOUND

-------------------
FINAL ROHF SETTINGS
-------------------
Number of operators             ... 2
  operator   0:  10 orbitals  20 electrons n(mue)= 2.000
  operator   1:   3 orbitals   1 electrons n(mue)= 0.333
Vector coupling coefficients a and b (Zerner convention):
   1.000    1.000           1.000    1.000 
   1.000    0.000           1.000    0.000 

                      -----------------
                      INTIAL GUESS DONE 
                      -----------------

 InCore treatment chosen:
   Memory dedicated               ...    1024 MB
   Memory needed                  ...      0 MB
   Number of tiny    integrals    ...       0
   Number of small   integrals    ...       0
   Number of regular integrals    ...   32131

--------------
SCF ITERATIONS
--------------
ITER       Energy         Delta-E        Max-DP      RMS-DP      [F,P]     Damp
  0   -167.3728936237   0.000000000000 1.84925842  0.19527394  1.2064602 0.7000
  1   -168.0234450526  -0.650551428950 2.50125646  0.22994110  0.3436705 0.7000
  2   -168.3495495904  -0.326104537768 2.35896889  0.20099544  0.2303413 0.7000
                            ****Activating DIIS****
  3   -168.5628317344  -0.213282144017 2.27555772  0.18577094  0.1432264 0.7000
  4   -168.7548768896  -0.192045155136 5.33737384  0.45386227  0.0679958 0.0000
  5   -169.0794444810  -0.324567591466 1.08306582  0.09903054  0.0675510 0.0000
  6   -169.1183145873  -0.038870106327 0.85674920  0.07010898  0.0579914 0.0000
  7   -169.1414778135  -0.023163226170 1.90137432  0.15154327  0.0523074 0.0000
  8   -169.1921217184  -0.050643904847 1.21555108  0.09097005  0.0447393 0.0000
  9   -169.2157197155  -0.023597997096 0.89683665  0.06813540  0.0385704 0.0000
 10   -169.2303164210  -0.014596705564 0.83953489  0.06160549  0.0327238 0.0000
 11   -169.2403077726  -0.009991351594 0.95818210  0.07549100  0.0271722 0.0000
 12   -169.2508041469  -0.010496374282 0.37764271  0.03235900  0.0190780 0.0000
 13   -169.2545585648  -0.003754417931 0.27830096  0.02362385  0.0153716 0.0000
 14   -169.2570730089  -0.002514444049 0.27726803  0.02307286  0.0125478 0.0000
 15   -169.2592560987  -0.002183089856 0.27036681  0.02167230  0.0097660 0.0000
 16   -169.2610538723  -0.001797773550 0.41495193  0.03217781  0.0071219 0.0000
 17   -169.2631835528  -0.002129680519 0.64427294  0.04855045  0.0048407 0.0000
 18   -169.2649053252  -0.001721772400 0.37647946  0.02783759  0.0036468 0.0000
 19   -169.2651156609  -0.000210335691 0.05963635  0.00448380  0.0060426 0.0000
 20   -169.2652642919  -0.000148630995 0.09208304  0.00766794  0.0062694 0.0000
 21   -169.2655162498  -0.000251957865 0.11554135  0.00882847  0.0053171 0.0000
 22   -169.2657432451  -0.000226995323 0.14598012  0.01077687  0.0041951 0.0000
 23   -169.2659633382  -0.000220093135 0.14136995  0.01000296  0.0028147 0.0000
 24   -169.2661016565  -0.000138318316 0.07019073  0.00470007  0.0015226 0.0000
 25   -169.2661509103  -0.000049253783 0.04554431  0.00292726  0.0009735 0.0000
 26   -169.2661789595  -0.000028049176 0.05293649  0.00336481  0.0008931 0.0000
 27   -169.2662075730  -0.000028613527 0.05870585  0.00375520  0.0005991 0.0000
 28   -169.2662337120  -0.000026138937 0.03097159  0.00216870  0.0006035 0.0000
 29   -169.2662480789  -0.000014366992 0.01345155  0.00084694  0.0005724 0.0000
 30   -169.2662578909  -0.000009811920 0.01616637  0.00123515  0.0005902 0.0000
 31   -169.2662681303  -0.000010239424 0.02628482  0.00171283  0.0004668 0.0000
 32   -169.2662763592  -0.000008228901 0.02054420  0.00132485  0.0002664 0.0000
 33   -169.2662801032  -0.000003744013 0.01113642  0.00075772  0.0002328 0.0000
 34   -169.2662815030  -0.000001399840 0.00498399  0.00039955  0.0001551 0.0000
 35   -169.2662821128  -0.000000609792 0.00246916  0.00025680  0.0001308 0.0000
 36   -169.2662824925  -0.000000379628 0.00216429  0.00018731  0.0000968 0.0000
                 **** Energy Check signals convergence ****

               *****************************************************
               *                     SUCCESS                       *
               *           SCF CONVERGED AFTER  37 CYCLES          *
               *****************************************************


----------------
TOTAL SCF ENERGY
----------------

Total Energy       :         -169.26628275 Eh           -4605.96972 eV

Components:
Nuclear Repulsion  :            0.00000000 Eh               0.00000 eV
Electronic Energy  :         -169.26628275 Eh           -4605.96972 eV
One Electron Energy:         -261.54231901 Eh           -7116.92832 eV
Two Electron Energy:           92.27603627 Eh            2510.95860 eV

Virial components:
Potential Energy   :         -212.31273618 Eh           -5777.32326 eV
Kinetic Energy     :           43.04645343 Eh            1171.35355 eV
Virial Ratio       :            4.93217720


---------------
SCF CONVERGENCE
---------------

  Last Energy change         ...   -2.5382e-07  Tolerance :   1.0000e-06
  Last MAX-Density change    ...    1.4890e-03  Tolerance :   1.0000e-05
  Last RMS-Density change    ...    1.0750e-04  Tolerance :   1.0000e-06
  Last DIIS Error            ...    5.7378e-05  Tolerance :   1.0000e-06

             **** THE GBW FILE WAS UPDATED (49_In_atom49.gbw) ****
             **** DENSITY FILE WAS UPDATED (49_In_atom49.scfp) ****
             **** ENERGY FILE WAS UPDATED (49_In_atom49.en.tmp) ****
             **** THE GBW FILE WAS UPDATED (49_In_atom49.gbw) ****
             **** DENSITY FILE WAS UPDATED (49_In_atom49.scfp) ****
----------------
ORBITAL ENERGIES
----------------

  NO   OCC          E(Eh)            E(eV) 
   0   2.0000      -9.439655      -256.8661 
   1   2.0000      -7.329572      -199.4478 
   2   2.0000      -7.329572      -199.4478 
   3   2.0000      -7.323857      -199.2923 
   4   2.0000      -2.318070       -63.0779 
   5   2.0000      -1.377903       -37.4946 
   6   2.0000      -1.377903       -37.4946 
   7   2.0000      -1.356908       -36.9234 
   8   2.0000      -0.396131       -10.7793 
   9   2.0000      -0.169113        -4.6018 
  10   0.3333      -0.190757        -5.1908 
  11   0.3333      -0.190757        -5.1908 
  12   0.3333      -0.078855        -2.1458 
  13   0.0000       0.019584         0.5329 
  14   0.0000       0.019584         0.5329 
  15   0.0000       0.040486         1.1017 
  16   0.0000       0.578160        15.7325 
  17   0.0000      33.198613       903.3802 
  18   0.0000      34.213137       930.9868 
  19   0.0000      34.213137       930.9868 
  20   0.0000      34.215075       931.0395 
  21   0.0000     120.288489      3273.2162 
CleanUpVectors: The p-vectors have cracked symmetry
CleanUpVectors: The p-vectors have cracked symmetry
CleanUpVectors: The p-vectors have cracked symmetry
CleanUpVectors: The p-vectors have cracked symmetry
CleanUpVectors: The p-vectors have cracked symmetry
CleanUpVectors: The p-vectors have cracked symmetry
CleanUpVectors: The p-vectors have cracked symmetry
CleanUpVectors: The p-vectors have cracked symmetry
CleanUpVectors: The p-vectors have cracked symmetry
CleanUpVectors: The p-vectors have cracked symmetry
CleanUpVectors: The p-vectors have cracked symmetry
CleanUpVectors: The p-vectors have cracked symmetry
CleanUpVectors: The p-vectors have cracked symmetry
CleanUpVectors: The p-vectors have cracked symmetry
--------------------------
ATOM BASIS FOR ELEMENT In
--------------------------
 NewGTO In
 S 11
    1        847.792767740000         0.000341719596
    2         72.041054824000         0.006487029283
    3         41.061316522000        -0.023525641960
    4         12.407609713000         1.730361499011
    5         11.640316941000        -1.635876598700
    6          6.369564272700        -0.710328337893
    7          1.706323635300         1.235863971359
    8          0.786669679400         0.173218294057
    9          0.169651968700         0.004588762812
   10          0.062074858700        -0.003149639087
   11          0.021521728200         0.001039605031
 P 20
    1        268.281366850000         0.000004499703
    2         14.781553782000         0.003032232944
    3          8.804147619400        -0.011045331985
    4        268.281366850000        -0.000097907750
    5         14.781553782000        -0.065977495266
    6          8.804147619400         0.240332241017
    7        268.281366850000        -0.000045117399
    8         14.781553782000        -0.030403445897
    9          8.804147619400         0.110748797869
   10          2.371727722700         0.021566981448
   11          1.192706542200         0.021746064166
   12          0.583528120400         0.007584576593
   13          2.371727722700        -0.469269822827
   14          1.192706542200        -0.473166432813
   15          0.583528120400        -0.165030647543
   16          2.371727722700        -0.216246761293
   17          1.192706542200        -0.218042379184
   18          0.583528120400        -0.076048663923
   19          0.232809683100        -0.007084611119
   20          0.232809683100         0.154152040824
 S 11
    1        847.792767740000         0.000266253872
    2         72.041054824000         0.005054426748
    3         41.061316522000        -0.018330213847
    4         12.407609713000         1.348226601586
    5         11.640316941000        -1.294087419356
    6          6.369564272700        -0.561917058053
    7          1.706323635300         1.921067393417
    8          0.786669679400        -1.121845850239
    9          0.169651968700        -1.006515396039
   10          0.062074858700         0.378454659087
   11          0.021521728200        -0.109190691997
 P 20
    1        268.281366850000         0.000004055116
    2         14.781553782000         0.002732637583
    3          8.804147619400        -0.009954014038
    4        268.281366850000         0.000002004494
    5         14.781553782000         0.001350776278
    6          8.804147619400        -0.004920391242
    7        268.281366850000        -0.000036759340
    8         14.781553782000        -0.024771166496
    9          8.804147619400         0.090232433537
   10          2.371727722700         0.026396058110
   11          1.192706542200         0.026615239354
   12          0.583528120400         0.009282844007
   13          2.371727722700         0.013047895317
   14          1.192706542200         0.013156239295
   15          0.583528120400         0.004588623663
   16          2.371727722700        -0.239278400643
   17          1.192706542200        -0.241265263126
   18          0.583528120400        -0.084148324653
   19          0.232809683100        -0.155000994032
   20          0.232809683100        -0.076618892706
 S 11
    1        847.792767740000         0.000330189113
    2         72.041054824000         0.006268140513
    3         41.061316522000        -0.022731827318
    4         12.407609713000         1.671974727028
    5         11.640316941000        -1.609270210904
    6          6.369564272700        -0.698775344694
    7          1.706323635300         3.328270059216
    8          0.786669679400        -4.097624254466
    9          0.169651968700         3.463596719354
   10          0.062074858700        -2.878929226519
   11          0.021521728200         1.010954503179
 S 11
    1        847.792767740000         0.001901741688
    2         72.041054824000         0.036101687353
    3         41.061316522000        -0.130925163697
    4         12.407609713000         9.629827016104
    5         11.640316941000        -7.876907886391
    6          6.369564272700        -3.420301318036
    7          1.706323635300         2.825334062576
    8          0.786669679400        -1.795760833091
    9          0.169651968700         0.623952333900
   10          0.062074858700        -0.382557832996
   11          0.021521728200         0.119917471810
 S 11
    1        847.792767740000         0.001308871688
    2         72.041054824000         0.024846947814
    3         41.061316522000        -0.090109104267
    4         12.407609713000         6.627718172465
    5         11.640316941000        -4.349115887169
    6          6.369564272700        -1.888467786564
    7          1.706323635300         0.996606804457
    8          0.786669679400        -0.588602347892
    9          0.169651968700         0.196772087702
   10          0.062074858700        -0.120279500476
   11          0.021521728200         0.037707262606
 P 20
    1        268.281366850000         0.000000045473
    2         14.781553782000         0.000030642937
    3          8.804147619400        -0.000111621177
    4        268.281366850000        -0.000036981920
    5         14.781553782000        -0.024921157115
    6          8.804147619400         0.090778795315
    7        268.281366850000        -0.000002011615
    8         14.781553782000        -0.001355574910
    9          8.804147619400         0.004937870932
   10          2.371727722700         0.000295997078
   11          1.192706542200         0.000298454908
   12          0.583528120400         0.000104094888
   13          2.371727722700        -0.240727243008
   14          1.192706542200        -0.242726136040
   15          0.583528120400        -0.084657846856
   16          2.371727722700        -0.013094247965
   17          1.192706542200        -0.013202976835
   18          0.583528120400        -0.004604924748
   19          0.232809683100        -0.001738132307
   20          0.232809683100         1.413580838526
 P 20
    1        268.281366850000         0.000001186170
    2         14.781553782000         0.000799329000
    3          8.804147619400        -0.002911667517
    4        268.281366850000         0.000006213643
    5         14.781553782000         0.004187212980
    6          8.804147619400        -0.015252508070
    7        268.281366850000        -0.000010509320
    8         14.781553782000        -0.007081958658
    9          8.804147619400         0.025797023487
   10          2.371727722700         0.008211828218
   11          1.192706542200         0.008280015624
   12          0.583528120400         0.002887897884
   13          2.371727722700         0.043016922587
   14          1.192706542200         0.043374116171
   15          0.583528120400         0.015127992989
   16          2.371727722700        -0.072755808896
   17          1.192706542200        -0.073359941098
   18          0.583528120400        -0.025586427404
   19          0.232809683100        -0.084488779081
   20          0.232809683100        -0.442586860392
 P 20
    1        268.281366850000         0.000001334521
    2         14.781553782000         0.000899298865
    3          8.804147619400        -0.003275821712
    4        268.281366850000         0.000003855889
    5         14.781553782000         0.002598383859
    6          8.804147619400        -0.009464976100
    7        268.281366850000        -0.000011959188
    8         14.781553782000        -0.008058986787
    9          8.804147619400         0.029355984901
   10          2.371727722700         0.009312252523
   11          1.192706542200         0.009389577368
   12          0.583528120400         0.003274890030
   13          2.371727722700         0.026906301783
   14          1.192706542200         0.027129719866
   15          0.583528120400         0.009462284149
   16          2.371727722700        -0.083450922700
   17          1.192706542200        -0.084143862418
   18          0.583528120400        -0.029347635713
   19          0.232809683100        -0.122303887664
   20          0.232809683100        -0.353378014882
 P 20
    1        268.281366850000         0.000068939879
    2         14.781553782000         0.046456797403
    3          8.804147619400        -0.169225372761
    4        268.281366850000        -0.000015568550
    5         14.781553782000        -0.010491242505
    6          8.804147619400         0.038215816047
    7        268.281366850000        -0.000627080947
    8         14.781553782000        -0.422573596233
    9          8.804147619400         1.539283341497
   10          2.371727722700         0.025964617113
   11          1.192706542200         0.026180215861
   12          0.583528120400         0.009131116826
   13          2.371727722700        -0.005863535799
   14          1.192706542200        -0.005912224019
   15          0.583528120400        -0.002062061234
   16          2.371727722700        -0.236175591982
   17          1.192706542200        -0.238136690108
   18          0.583528120400        -0.083057143210
   19          0.232809683100        -0.035091867507
   20          0.232809683100         0.007924723884
 end
  // -----------------------------------------------
  // The basis set
  // -----------------------------------------------
  BAS[ATNO] = new BFNGauss[NSH];
  // Basis function   1 L = s
  InitBFNGauss(BAS[ATNO][  0]);
  BAS[ATNO][  0].l  = 0;
  BAS[ATNO][  0].ng = 11;
  BAS[ATNO][  0].a[  0] =       847.792767740000;     BAS[ATNO][  0].d[  0] =         0.000341719596;
  BAS[ATNO][  0].a[  1] =        72.041054824000;     BAS[ATNO][  0].d[  1] =         0.006487029283;
  BAS[ATNO][  0].a[  2] =        41.061316522000;     BAS[ATNO][  0].d[  2] =        -0.023525641960;
  BAS[ATNO][  0].a[  3] =        12.407609713000;     BAS[ATNO][  0].d[  3] =         1.730361499011;
  BAS[ATNO][  0].a[  4] =        11.640316941000;     BAS[ATNO][  0].d[  4] =        -1.635876598700;
  BAS[ATNO][  0].a[  5] =         6.369564272700;     BAS[ATNO][  0].d[  5] =        -0.710328337893;
  BAS[ATNO][  0].a[  6] =         1.706323635300;     BAS[ATNO][  0].d[  6] =         1.235863971359;
  BAS[ATNO][  0].a[  7] =         0.786669679400;     BAS[ATNO][  0].d[  7] =         0.173218294057;
  BAS[ATNO][  0].a[  8] =         0.169651968700;     BAS[ATNO][  0].d[  8] =         0.004588762812;
  BAS[ATNO][  0].a[  9] =         0.062074858700;     BAS[ATNO][  0].d[  9] =        -0.003149639087;
  BAS[ATNO][  0].a[ 10] =         0.021521728200;     BAS[ATNO][  0].d[ 10] =         0.001039605031;

  // Basis function   2 L = p
  InitBFNGauss(BAS[ATNO][  1]);
  BAS[ATNO][  1].l  = 1;
  BAS[ATNO][  1].ng = 20;
  BAS[ATNO][  1].a[  0] =       268.281366850000;     BAS[ATNO][  1].d[  0] =        -0.000004499703;
  BAS[ATNO][  1].a[  1] =        14.781553782000;     BAS[ATNO][  1].d[  1] =        -0.003032232944;
  BAS[ATNO][  1].a[  2] =         8.804147619400;     BAS[ATNO][  1].d[  2] =         0.011045331985;
  BAS[ATNO][  1].a[  3] =       268.281366850000;     BAS[ATNO][  1].d[  3] =         0.000097907750;
  BAS[ATNO][  1].a[  4] =        14.781553782000;     BAS[ATNO][  1].d[  4] =         0.065977495266;
  BAS[ATNO][  1].a[  5] =         8.804147619400;     BAS[ATNO][  1].d[  5] =        -0.240332241017;
  BAS[ATNO][  1].a[  6] =       268.281366850000;     BAS[ATNO][  1].d[  6] =         0.000045117399;
  BAS[ATNO][  1].a[  7] =        14.781553782000;     BAS[ATNO][  1].d[  7] =         0.030403445897;
  BAS[ATNO][  1].a[  8] =         8.804147619400;     BAS[ATNO][  1].d[  8] =        -0.110748797869;
  BAS[ATNO][  1].a[  9] =         2.371727722700;     BAS[ATNO][  1].d[  9] =        -0.021566981448;
  BAS[ATNO][  1].a[ 10] =         1.192706542200;     BAS[ATNO][  1].d[ 10] =        -0.021746064166;
  BAS[ATNO][  1].a[ 11] =         0.583528120400;     BAS[ATNO][  1].d[ 11] =        -0.007584576593;
  BAS[ATNO][  1].a[ 12] =         2.371727722700;     BAS[ATNO][  1].d[ 12] =         0.469269822827;
  BAS[ATNO][  1].a[ 13] =         1.192706542200;     BAS[ATNO][  1].d[ 13] =         0.473166432813;
  BAS[ATNO][  1].a[ 14] =         0.583528120400;     BAS[ATNO][  1].d[ 14] =         0.165030647543;
  BAS[ATNO][  1].a[ 15] =         2.371727722700;     BAS[ATNO][  1].d[ 15] =         0.216246761293;
  BAS[ATNO][  1].a[ 16] =         1.192706542200;     BAS[ATNO][  1].d[ 16] =         0.218042379184;
  BAS[ATNO][  1].a[ 17] =         0.583528120400;     BAS[ATNO][  1].d[ 17] =         0.076048663923;
  BAS[ATNO][  1].a[ 18] =         0.232809683100;     BAS[ATNO][  1].d[ 18] =         0.007084611119;
  BAS[ATNO][  1].a[ 19] =         0.232809683100;     BAS[ATNO][  1].d[ 19] =        -0.154152040824;

  // Basis function   3 L = s
  InitBFNGauss(BAS[ATNO][  2]);
  BAS[ATNO][  2].l  = 0;
  BAS[ATNO][  2].ng = 11;
  BAS[ATNO][  2].a[  0] =       847.792767740000;     BAS[ATNO][  2].d[  0] =         0.000266253872;
  BAS[ATNO][  2].a[  1] =        72.041054824000;     BAS[ATNO][  2].d[  1] =         0.005054426748;
  BAS[ATNO][  2].a[  2] =        41.061316522000;     BAS[ATNO][  2].d[  2] =        -0.018330213847;
  BAS[ATNO][  2].a[  3] =        12.407609713000;     BAS[ATNO][  2].d[  3] =         1.348226601586;
  BAS[ATNO][  2].a[  4] =        11.640316941000;     BAS[ATNO][  2].d[  4] =        -1.294087419356;
  BAS[ATNO][  2].a[  5] =         6.369564272700;     BAS[ATNO][  2].d[  5] =        -0.561917058053;
  BAS[ATNO][  2].a[  6] =         1.706323635300;     BAS[ATNO][  2].d[  6] =         1.921067393417;
  BAS[ATNO][  2].a[  7] =         0.786669679400;     BAS[ATNO][  2].d[  7] =        -1.121845850239;
  BAS[ATNO][  2].a[  8] =         0.169651968700;     BAS[ATNO][  2].d[  8] =        -1.006515396039;
  BAS[ATNO][  2].a[  9] =         0.062074858700;     BAS[ATNO][  2].d[  9] =         0.378454659087;
  BAS[ATNO][  2].a[ 10] =         0.021521728200;     BAS[ATNO][  2].d[ 10] =        -0.109190691997;

  // Basis function   4 L = p
  InitBFNGauss(BAS[ATNO][  3]);
  BAS[ATNO][  3].l  = 1;
  BAS[ATNO][  3].ng = 20;
  BAS[ATNO][  3].a[  0] =       268.281366850000;     BAS[ATNO][  3].d[  0] =        -0.000004055116;
  BAS[ATNO][  3].a[  1] =        14.781553782000;     BAS[ATNO][  3].d[  1] =        -0.002732637583;
  BAS[ATNO][  3].a[  2] =         8.804147619400;     BAS[ATNO][  3].d[  2] =         0.009954014038;
  BAS[ATNO][  3].a[  3] =       268.281366850000;     BAS[ATNO][  3].d[  3] =        -0.000002004494;
  BAS[ATNO][  3].a[  4] =        14.781553782000;     BAS[ATNO][  3].d[  4] =        -0.001350776278;
  BAS[ATNO][  3].a[  5] =         8.804147619400;     BAS[ATNO][  3].d[  5] =         0.004920391242;
  BAS[ATNO][  3].a[  6] =       268.281366850000;     BAS[ATNO][  3].d[  6] =         0.000036759340;
  BAS[ATNO][  3].a[  7] =        14.781553782000;     BAS[ATNO][  3].d[  7] =         0.024771166496;
  BAS[ATNO][  3].a[  8] =         8.804147619400;     BAS[ATNO][  3].d[  8] =        -0.090232433537;
  BAS[ATNO][  3].a[  9] =         2.371727722700;     BAS[ATNO][  3].d[  9] =        -0.026396058110;
  BAS[ATNO][  3].a[ 10] =         1.192706542200;     BAS[ATNO][  3].d[ 10] =        -0.026615239354;
  BAS[ATNO][  3].a[ 11] =         0.583528120400;     BAS[ATNO][  3].d[ 11] =        -0.009282844007;
  BAS[ATNO][  3].a[ 12] =         2.371727722700;     BAS[ATNO][  3].d[ 12] =        -0.013047895317;
  BAS[ATNO][  3].a[ 13] =         1.192706542200;     BAS[ATNO][  3].d[ 13] =        -0.013156239295;
  BAS[ATNO][  3].a[ 14] =         0.583528120400;     BAS[ATNO][  3].d[ 14] =        -0.004588623663;
  BAS[ATNO][  3].a[ 15] =         2.371727722700;     BAS[ATNO][  3].d[ 15] =         0.239278400643;
  BAS[ATNO][  3].a[ 16] =         1.192706542200;     BAS[ATNO][  3].d[ 16] =         0.241265263126;
  BAS[ATNO][  3].a[ 17] =         0.583528120400;     BAS[ATNO][  3].d[ 17] =         0.084148324653;
  BAS[ATNO][  3].a[ 18] =         0.232809683100;     BAS[ATNO][  3].d[ 18] =         0.155000994032;
  BAS[ATNO][  3].a[ 19] =         0.232809683100;     BAS[ATNO][  3].d[ 19] =         0.076618892706;

  // Basis function   5 L = s
  InitBFNGauss(BAS[ATNO][  4]);
  BAS[ATNO][  4].l  = 0;
  BAS[ATNO][  4].ng = 11;
  BAS[ATNO][  4].a[  0] =       847.792767740000;     BAS[ATNO][  4].d[  0] =        -0.000330189113;
  BAS[ATNO][  4].a[  1] =        72.041054824000;     BAS[ATNO][  4].d[  1] =        -0.006268140513;
  BAS[ATNO][  4].a[  2] =        41.061316522000;     BAS[ATNO][  4].d[  2] =         0.022731827318;
  BAS[ATNO][  4].a[  3] =        12.407609713000;     BAS[ATNO][  4].d[  3] =        -1.671974727028;
  BAS[ATNO][  4].a[  4] =        11.640316941000;     BAS[ATNO][  4].d[  4] =         1.609270210904;
  BAS[ATNO][  4].a[  5] =         6.369564272700;     BAS[ATNO][  4].d[  5] =         0.698775344694;
  BAS[ATNO][  4].a[  6] =         1.706323635300;     BAS[ATNO][  4].d[  6] =        -3.328270059216;
  BAS[ATNO][  4].a[  7] =         0.786669679400;     BAS[ATNO][  4].d[  7] =         4.097624254466;
  BAS[ATNO][  4].a[  8] =         0.169651968700;     BAS[ATNO][  4].d[  8] =        -3.463596719354;
  BAS[ATNO][  4].a[  9] =         0.062074858700;     BAS[ATNO][  4].d[  9] =         2.878929226519;
  BAS[ATNO][  4].a[ 10] =         0.021521728200;     BAS[ATNO][  4].d[ 10] =        -1.010954503179;

  // Basis function   6 L = s
  InitBFNGauss(BAS[ATNO][  5]);
  BAS[ATNO][  5].l  = 0;
  BAS[ATNO][  5].ng = 11;
  BAS[ATNO][  5].a[  0] =       847.792767740000;     BAS[ATNO][  5].d[  0] =         0.001901741688;
  BAS[ATNO][  5].a[  1] =        72.041054824000;     BAS[ATNO][  5].d[  1] =         0.036101687353;
  BAS[ATNO][  5].a[  2] =        41.061316522000;     BAS[ATNO][  5].d[  2] =        -0.130925163697;
  BAS[ATNO][  5].a[  3] =        12.407609713000;     BAS[ATNO][  5].d[  3] =         9.629827016104;
  BAS[ATNO][  5].a[  4] =        11.640316941000;     BAS[ATNO][  5].d[  4] =        -7.876907886391;
  BAS[ATNO][  5].a[  5] =         6.369564272700;     BAS[ATNO][  5].d[  5] =        -3.420301318036;
  BAS[ATNO][  5].a[  6] =         1.706323635300;     BAS[ATNO][  5].d[  6] =         2.825334062576;
  BAS[ATNO][  5].a[  7] =         0.786669679400;     BAS[ATNO][  5].d[  7] =        -1.795760833091;
  BAS[ATNO][  5].a[  8] =         0.169651968700;     BAS[ATNO][  5].d[  8] =         0.623952333900;
  BAS[ATNO][  5].a[  9] =         0.062074858700;     BAS[ATNO][  5].d[  9] =        -0.382557832996;
  BAS[ATNO][  5].a[ 10] =         0.021521728200;     BAS[ATNO][  5].d[ 10] =         0.119917471810;

  // Basis function   7 L = s
  InitBFNGauss(BAS[ATNO][  6]);
  BAS[ATNO][  6].l  = 0;
  BAS[ATNO][  6].ng = 11;
  BAS[ATNO][  6].a[  0] =       847.792767740000;     BAS[ATNO][  6].d[  0] =         0.001308871688;
  BAS[ATNO][  6].a[  1] =        72.041054824000;     BAS[ATNO][  6].d[  1] =         0.024846947814;
  BAS[ATNO][  6].a[  2] =        41.061316522000;     BAS[ATNO][  6].d[  2] =        -0.090109104267;
  BAS[ATNO][  6].a[  3] =        12.407609713000;     BAS[ATNO][  6].d[  3] =         6.627718172465;
  BAS[ATNO][  6].a[  4] =        11.640316941000;     BAS[ATNO][  6].d[  4] =        -4.349115887169;
  BAS[ATNO][  6].a[  5] =         6.369564272700;     BAS[ATNO][  6].d[  5] =        -1.888467786564;
  BAS[ATNO][  6].a[  6] =         1.706323635300;     BAS[ATNO][  6].d[  6] =         0.996606804457;
  BAS[ATNO][  6].a[  7] =         0.786669679400;     BAS[ATNO][  6].d[  7] =        -0.588602347892;
  BAS[ATNO][  6].a[  8] =         0.169651968700;     BAS[ATNO][  6].d[  8] =         0.196772087702;
  BAS[ATNO][  6].a[  9] =         0.062074858700;     BAS[ATNO][  6].d[  9] =        -0.120279500476;
  BAS[ATNO][  6].a[ 10] =         0.021521728200;     BAS[ATNO][  6].d[ 10] =         0.037707262606;

  // Basis function   8 L = p
  InitBFNGauss(BAS[ATNO][  7]);
  BAS[ATNO][  7].l  = 1;
  BAS[ATNO][  7].ng = 20;
  BAS[ATNO][  7].a[  0] =       268.281366850000;     BAS[ATNO][  7].d[  0] =         0.000000045473;
  BAS[ATNO][  7].a[  1] =        14.781553782000;     BAS[ATNO][  7].d[  1] =         0.000030642937;
  BAS[ATNO][  7].a[  2] =         8.804147619400;     BAS[ATNO][  7].d[  2] =        -0.000111621177;
  BAS[ATNO][  7].a[  3] =       268.281366850000;     BAS[ATNO][  7].d[  3] =        -0.000036981920;
  BAS[ATNO][  7].a[  4] =        14.781553782000;     BAS[ATNO][  7].d[  4] =        -0.024921157115;
  BAS[ATNO][  7].a[  5] =         8.804147619400;     BAS[ATNO][  7].d[  5] =         0.090778795315;
  BAS[ATNO][  7].a[  6] =       268.281366850000;     BAS[ATNO][  7].d[  6] =        -0.000002011615;
  BAS[ATNO][  7].a[  7] =        14.781553782000;     BAS[ATNO][  7].d[  7] =        -0.001355574910;
  BAS[ATNO][  7].a[  8] =         8.804147619400;     BAS[ATNO][  7].d[  8] =         0.004937870932;
  BAS[ATNO][  7].a[  9] =         2.371727722700;     BAS[ATNO][  7].d[  9] =         0.000295997078;
  BAS[ATNO][  7].a[ 10] =         1.192706542200;     BAS[ATNO][  7].d[ 10] =         0.000298454908;
  BAS[ATNO][  7].a[ 11] =         0.583528120400;     BAS[ATNO][  7].d[ 11] =         0.000104094888;
  BAS[ATNO][  7].a[ 12] =         2.371727722700;     BAS[ATNO][  7].d[ 12] =        -0.240727243008;
  BAS[ATNO][  7].a[ 13] =         1.192706542200;     BAS[ATNO][  7].d[ 13] =        -0.242726136040;
  BAS[ATNO][  7].a[ 14] =         0.583528120400;     BAS[ATNO][  7].d[ 14] =        -0.084657846856;
  BAS[ATNO][  7].a[ 15] =         2.371727722700;     BAS[ATNO][  7].d[ 15] =        -0.013094247965;
  BAS[ATNO][  7].a[ 16] =         1.192706542200;     BAS[ATNO][  7].d[ 16] =        -0.013202976835;
  BAS[ATNO][  7].a[ 17] =         0.583528120400;     BAS[ATNO][  7].d[ 17] =        -0.004604924748;
  BAS[ATNO][  7].a[ 18] =         0.232809683100;     BAS[ATNO][  7].d[ 18] =        -0.001738132307;
  BAS[ATNO][  7].a[ 19] =         0.232809683100;     BAS[ATNO][  7].d[ 19] =         1.413580838526;

  // Basis function   9 L = p
  InitBFNGauss(BAS[ATNO][  8]);
  BAS[ATNO][  8].l  = 1;
  BAS[ATNO][  8].ng = 20;
  BAS[ATNO][  8].a[  0] =       268.281366850000;     BAS[ATNO][  8].d[  0] =        -0.000001186170;
  BAS[ATNO][  8].a[  1] =        14.781553782000;     BAS[ATNO][  8].d[  1] =        -0.000799329000;
  BAS[ATNO][  8].a[  2] =         8.804147619400;     BAS[ATNO][  8].d[  2] =         0.002911667517;
  BAS[ATNO][  8].a[  3] =       268.281366850000;     BAS[ATNO][  8].d[  3] =        -0.000006213643;
  BAS[ATNO][  8].a[  4] =        14.781553782000;     BAS[ATNO][  8].d[  4] =        -0.004187212980;
  BAS[ATNO][  8].a[  5] =         8.804147619400;     BAS[ATNO][  8].d[  5] =         0.015252508070;
  BAS[ATNO][  8].a[  6] =       268.281366850000;     BAS[ATNO][  8].d[  6] =         0.000010509320;
  BAS[ATNO][  8].a[  7] =        14.781553782000;     BAS[ATNO][  8].d[  7] =         0.007081958658;
  BAS[ATNO][  8].a[  8] =         8.804147619400;     BAS[ATNO][  8].d[  8] =        -0.025797023487;
  BAS[ATNO][  8].a[  9] =         2.371727722700;     BAS[ATNO][  8].d[  9] =        -0.008211828218;
  BAS[ATNO][  8].a[ 10] =         1.192706542200;     BAS[ATNO][  8].d[ 10] =        -0.008280015624;
  BAS[ATNO][  8].a[ 11] =         0.583528120400;     BAS[ATNO][  8].d[ 11] =        -0.002887897884;
  BAS[ATNO][  8].a[ 12] =         2.371727722700;     BAS[ATNO][  8].d[ 12] =        -0.043016922587;
  BAS[ATNO][  8].a[ 13] =         1.192706542200;     BAS[ATNO][  8].d[ 13] =        -0.043374116171;
  BAS[ATNO][  8].a[ 14] =         0.583528120400;     BAS[ATNO][  8].d[ 14] =        -0.015127992989;
  BAS[ATNO][  8].a[ 15] =         2.371727722700;     BAS[ATNO][  8].d[ 15] =         0.072755808896;
  BAS[ATNO][  8].a[ 16] =         1.192706542200;     BAS[ATNO][  8].d[ 16] =         0.073359941098;
  BAS[ATNO][  8].a[ 17] =         0.583528120400;     BAS[ATNO][  8].d[ 17] =         0.025586427404;
  BAS[ATNO][  8].a[ 18] =         0.232809683100;     BAS[ATNO][  8].d[ 18] =         0.084488779081;
  BAS[ATNO][  8].a[ 19] =         0.232809683100;     BAS[ATNO][  8].d[ 19] =         0.442586860392;

  // Basis function  10 L = p
  InitBFNGauss(BAS[ATNO][  9]);
  BAS[ATNO][  9].l  = 1;
  BAS[ATNO][  9].ng = 20;
  BAS[ATNO][  9].a[  0] =       268.281366850000;     BAS[ATNO][  9].d[  0] =        -0.000001334521;
  BAS[ATNO][  9].a[  1] =        14.781553782000;     BAS[ATNO][  9].d[  1] =        -0.000899298865;
  BAS[ATNO][  9].a[  2] =         8.804147619400;     BAS[ATNO][  9].d[  2] =         0.003275821712;
  BAS[ATNO][  9].a[  3] =       268.281366850000;     BAS[ATNO][  9].d[  3] =        -0.000003855889;
  BAS[ATNO][  9].a[  4] =        14.781553782000;     BAS[ATNO][  9].d[  4] =        -0.002598383859;
  BAS[ATNO][  9].a[  5] =         8.804147619400;     BAS[ATNO][  9].d[  5] =         0.009464976100;
  BAS[ATNO][  9].a[  6] =       268.281366850000;     BAS[ATNO][  9].d[  6] =         0.000011959188;
  BAS[ATNO][  9].a[  7] =        14.781553782000;     BAS[ATNO][  9].d[  7] =         0.008058986787;
  BAS[ATNO][  9].a[  8] =         8.804147619400;     BAS[ATNO][  9].d[  8] =        -0.029355984901;
  BAS[ATNO][  9].a[  9] =         2.371727722700;     BAS[ATNO][  9].d[  9] =        -0.009312252523;
  BAS[ATNO][  9].a[ 10] =         1.192706542200;     BAS[ATNO][  9].d[ 10] =        -0.009389577368;
  BAS[ATNO][  9].a[ 11] =         0.583528120400;     BAS[ATNO][  9].d[ 11] =        -0.003274890030;
  BAS[ATNO][  9].a[ 12] =         2.371727722700;     BAS[ATNO][  9].d[ 12] =        -0.026906301783;
  BAS[ATNO][  9].a[ 13] =         1.192706542200;     BAS[ATNO][  9].d[ 13] =        -0.027129719866;
  BAS[ATNO][  9].a[ 14] =         0.583528120400;     BAS[ATNO][  9].d[ 14] =        -0.009462284149;
  BAS[ATNO][  9].a[ 15] =         2.371727722700;     BAS[ATNO][  9].d[ 15] =         0.083450922700;
  BAS[ATNO][  9].a[ 16] =         1.192706542200;     BAS[ATNO][  9].d[ 16] =         0.084143862418;
  BAS[ATNO][  9].a[ 17] =         0.583528120400;     BAS[ATNO][  9].d[ 17] =         0.029347635713;
  BAS[ATNO][  9].a[ 18] =         0.232809683100;     BAS[ATNO][  9].d[ 18] =         0.122303887664;
  BAS[ATNO][  9].a[ 19] =         0.232809683100;     BAS[ATNO][  9].d[ 19] =         0.353378014882;

  // Basis function  11 L = p
  InitBFNGauss(BAS[ATNO][ 10]);
  BAS[ATNO][ 10].l  = 1;
  BAS[ATNO][ 10].ng = 20;
  BAS[ATNO][ 10].a[  0] =       268.281366850000;     BAS[ATNO][ 10].d[  0] =         0.000068939879;
  BAS[ATNO][ 10].a[  1] =        14.781553782000;     BAS[ATNO][ 10].d[  1] =         0.046456797403;
  BAS[ATNO][ 10].a[  2] =         8.804147619400;     BAS[ATNO][ 10].d[  2] =        -0.169225372761;
  BAS[ATNO][ 10].a[  3] =       268.281366850000;     BAS[ATNO][ 10].d[  3] =        -0.000015568550;
  BAS[ATNO][ 10].a[  4] =        14.781553782000;     BAS[ATNO][ 10].d[  4] =        -0.010491242505;
  BAS[ATNO][ 10].a[  5] =         8.804147619400;     BAS[ATNO][ 10].d[  5] =         0.038215816047;
  BAS[ATNO][ 10].a[  6] =       268.281366850000;     BAS[ATNO][ 10].d[  6] =        -0.000627080947;
  BAS[ATNO][ 10].a[  7] =        14.781553782000;     BAS[ATNO][ 10].d[  7] =        -0.422573596233;
  BAS[ATNO][ 10].a[  8] =         8.804147619400;     BAS[ATNO][ 10].d[  8] =         1.539283341497;
  BAS[ATNO][ 10].a[  9] =         2.371727722700;     BAS[ATNO][ 10].d[  9] =         0.025964617113;
  BAS[ATNO][ 10].a[ 10] =         1.192706542200;     BAS[ATNO][ 10].d[ 10] =         0.026180215861;
  BAS[ATNO][ 10].a[ 11] =         0.583528120400;     BAS[ATNO][ 10].d[ 11] =         0.009131116826;
  BAS[ATNO][ 10].a[ 12] =         2.371727722700;     BAS[ATNO][ 10].d[ 12] =        -0.005863535799;
  BAS[ATNO][ 10].a[ 13] =         1.192706542200;     BAS[ATNO][ 10].d[ 13] =        -0.005912224019;
  BAS[ATNO][ 10].a[ 14] =         0.583528120400;     BAS[ATNO][ 10].d[ 14] =        -0.002062061234;
  BAS[ATNO][ 10].a[ 15] =         2.371727722700;     BAS[ATNO][ 10].d[ 15] =        -0.236175591982;
  BAS[ATNO][ 10].a[ 16] =         1.192706542200;     BAS[ATNO][ 10].d[ 16] =        -0.238136690108;
  BAS[ATNO][ 10].a[ 17] =         0.583528120400;     BAS[ATNO][ 10].d[ 17] =        -0.083057143210;
  BAS[ATNO][ 10].a[ 18] =         0.232809683100;     BAS[ATNO][ 10].d[ 18] =        -0.035091867507;
  BAS[ATNO][ 10].a[ 19] =         0.232809683100;     BAS[ATNO][ 10].d[ 19] =         0.007924723884;

-------------------------------------------
RADIAL EXPECTATION VALUES <R**-3> TO <R**3>
-------------------------------------------
   0 :     0.000000     1.929397     1.330372     0.815148     0.718511     0.683383
   1 :     2.460520     1.634004     1.215030     0.907441     0.918592     1.140204
   2 :     2.460520     1.634004     1.215030     0.907441     0.918592     1.140204
   3 :     2.461119     1.634235     1.215111     0.907390     0.918555     1.140699
   4 :     0.000000     0.659713     0.707609     1.702756     3.352083     7.943777
   5 :     0.303304     0.318708     0.503439     2.251768     5.620675    16.270893
   6 :     0.000000     0.177373     0.326203     3.852540    16.601582    77.202901
   7 :     0.000000     0.049694     0.159992     7.688182    64.338214   569.311610
   8 :     0.000000     0.514946     0.538730     3.319167    17.556316   126.762026
   9 :     0.000000     8.213452     2.409639     0.562445     0.640173     2.247457
  10 :     0.000000    76.146781     6.895232     0.208860     0.095298     0.231108
  11 :     0.303304     0.318708     0.503439     2.251768     5.620675    16.270893
  12 :     0.304572     0.319549     0.504053     2.250151     5.621660    16.360107
  13 :     0.034948     0.063456     0.222319     5.033530    27.494889   162.083377
  14 :     0.036527     0.065040     0.224516     4.988997    26.995188   157.500954
  15 :     0.036527     0.065040     0.224516     4.988997    26.995188   157.500954
  16 :     0.032587     0.051182     0.183444     6.678250    50.096328   404.475905
  17 :     0.032587     0.051182     0.183444     6.678250    50.096328   404.475905
  18 :     0.032978     0.051902     0.185009     6.635323    49.595400   399.802192
  19 :    39.389135     9.509638     2.828664     0.453637     0.401061     1.227272
  20 :    39.389135     9.509638     2.828664     0.453637     0.401061     1.227272
  21 :    39.388455     9.509430     2.828602     0.453700     0.401341     1.228852
Making the total density                ... o.k.
o.k.
Initializing the integrals              ... done
Making exponents                        ... done
Making rho(0)                           ... done (         0.019875076)
Integral calculation                    ... Two index integrals                     ... done
Solving the equation system             ... done
atomic density will be written to file 49_In_atom49.adf

-------
TIMINGS
-------

Total SCF time: 0 days 0 hours 0 min 0 sec 

Total time                  ....       0.867 sec
Sum of individual times     ....       0.414 sec  ( 47.8%)

Fock matrix formation       ....       0.290 sec  ( 33.5%)
Diagonalization             ....       0.051 sec  (  5.9%)
Density matrix formation    ....       0.001 sec  (  0.1%)
Population analysis         ....       0.000 sec  (  0.0%)
Initial guess               ....       0.000 sec  (  0.0%)
Orbital Transformation      ....       0.000 sec  (  0.0%)
Orbital Orthonormalization  ....       0.000 sec  (  0.0%)
DIIS solution               ....       0.072 sec  (  8.3%)

-------------------------   --------------------
FINAL SINGLE POINT ENERGY      -169.266282746287
-------------------------   --------------------


                            ***************************************
                            *     ORCA property calculations      *
                            ***************************************

                                    ---------------------
                                    Active property flags
                                    ---------------------
   (+) Dipole Moment


------------------------------------------------------------------------------
                       ORCA ELECTRIC PROPERTIES CALCULATION
------------------------------------------------------------------------------

Dipole Moment Calculation                       ... on
Quadrupole Moment Calculation                   ... off
Polarizability Calculation                      ... off
GBWName                                         ... 49_In_atom49.gbw
Electron density file                           ... 49_In_atom49.scfp
The origin for moment calculation is the CENTER OF MASS  = ( 0.000000,  0.000000  0.000000)

-------------
DIPOLE MOMENT
-------------
                                X             Y             Z
Electronic contribution:     -0.00000      -0.00000       0.00000
Nuclear contribution   :      0.00000       0.00000       0.00000
                        -----------------------------------------
Total Dipole Moment    :     -0.00000      -0.00000       0.00000
                        -----------------------------------------
Magnitude (a.u.)       :      0.00000
Magnitude (Debye)      :      0.00000



--------------------
Rotational spectrum 
--------------------
 
Rotational constants in cm-1:     0.000000     0.000000     0.000000 
Rotational constants in MHz :     0.000000     0.000000     0.000000 

 Dipole components along the rotational axes: 
x,y,z [a.u.] :    -0.000000    -0.000000     0.000000 
x,y,z [Debye]:    -0.000000    -0.000000     0.000000 

 

Timings for individual modules:

Sum of individual times         ...        1.114 sec (=   0.019 min)
GTO integral calculation        ...        0.221 sec (=   0.004 min)  19.8 %
SCF iterations                  ...        0.894 sec (=   0.015 min)  80.2 %
                             ****ORCA TERMINATED NORMALLY****
TOTAL RUN TIME: 0 days 0 hours 0 minutes 1 seconds 324 msec
