
                                 *****************
                                 * O   R   C   A *
                                 *****************

           --- An Ab Initio, DFT and Semiempirical electronic structure package ---

                  #######################################################
                  #                        -***-                        #
                  #          Department of theory and spectroscopy      #
                  #               Directorship: Frank Neese             #
                  #        Max Planck Institute fuer Kohlenforschung    #
                  #                Kaiser Wilhelm Platz 1               #
                  #                 D-45470 Muelheim/Ruhr               #
                  #                      Germany                        #
                  #                                                     #
                  #                  All rights reserved                #
                  #                        -***-                        #
                  #######################################################


                         Program Version 4.2.0 -  RELEASE  -


 With contributions from (in alphabetic order):
   Daniel Aravena         : Magnetic Suceptibility
   Michael Atanasov       : Ab Initio Ligand Field Theory (pilot matlab implementation)
   Alexander A. Auer      : GIAO ZORA, VPT2
   Ute Becker             : Parallelization
   Giovanni Bistoni       : ED, misc. LED, open-shell LED, HFLED
   Martin Brehm           : Molecular dynamics
   Dmytro Bykov           : SCF Hessian
   Vijay G. Chilkuri      : MRCI spin determinant printing, contributions to CSF-ICE
   Dipayan Datta          : RHF DLPNO-CCSD density
   Achintya Kumar Dutta   : EOM-CC, STEOM-CC
   Dmitry Ganyushin       : Spin-Orbit,Spin-Spin,Magnetic field MRCI
   Miquel Garcia          : C-PCM Hessian, Gaussian charge scheme
   Yang Guo               : DLPNO-NEVPT2, CIM, IAO-localization
   Andreas Hansen         : Spin unrestricted coupled pair/coupled cluster methods
   Benjamin Helmich-Paris : CASSCF linear response (MC-RPA)
   Lee Huntington         : MR-EOM, pCC
   Robert Izsak           : Overlap fitted RIJCOSX, COSX-SCS-MP3, EOM
   Christian Kollmar      : KDIIS, OOCD, Brueckner-CCSD(T), CCSD density
   Simone Kossmann        : Meta GGA functionals, TD-DFT gradient, OOMP2, MP2 Hessian
   Martin Krupicka        : AUTO-CI
   Lucas Lang             : DCDCAS
   Dagmar Lenk            : GEPOL surface, SMD
   Dimitrios Liakos       : Extrapolation schemes; Compound Job, initial MDCI parallelization
   Dimitrios Manganas     : Further ROCIS development; embedding schemes
   Dimitrios Pantazis     : SARC Basis sets
   Taras Petrenko         : DFT Hessian,TD-DFT gradient, ASA, ECA, R-Raman, ABS, FL, XAS/XES, NRVS
   Peter Pinski           : DLPNO-MP2, DLPNO-MP2 Gradient
   Christoph Reimann      : Effective Core Potentials
   Marius Retegan         : Local ZFS, SOC
   Christoph Riplinger    : Optimizer, TS searches, QM/MM, DLPNO-CCSD(T), (RO)-DLPNO pert. Triples
   Tobias Risthaus        : Range-separated hybrids, TD-DFT gradient, RPA, STAB
   Michael Roemelt        : Original ROCIS implementation
   Masaaki Saitow         : Open-shell DLPNO-CCSD energy and density
   Barbara Sandhoefer     : DKH picture change effects
   Avijit Sen             : IP-ROCIS
   Kantharuban Sivalingam : CASSCF convergence, NEVPT2, FIC-MRCI
   Bernardo de Souza      : ESD, SOC TD-DFT
   Georgi Stoychev        : AutoAux, RI-MP2 NMR
   Willem Van den Heuvel  : Paramagnetic NMR
   Boris Wezisla          : Elementary symmetry handling
   Frank Wennmohs         : Technical directorship


 We gratefully acknowledge several colleagues who have allowed us to
 interface, adapt or use parts of their codes:
   Stefan Grimme, W. Hujo, H. Kruse,             : VdW corrections, initial TS optimization,
                  C. Bannwarth                     DFT functionals, gCP, sTDA/sTD-DF
   Ed Valeev, F. Pavosevic, A. Kumar             : LibInt (2-el integral package), F12 methods
   Garnet Chan, S. Sharma, J. Yang, R. Olivares  : DMRG
   Ulf Ekstrom                                   : XCFun DFT Library
   Mihaly Kallay                                 : mrcc  (arbitrary order and MRCC methods)
   Andreas Klamt, Michael Diedenhofen            : otool_cosmo (COSMO solvation model)
   Jiri Pittner, Ondrej Demel                    : Mk-CCSD
   Frank Weinhold                                : gennbo (NPA and NBO analysis)
   Christopher J. Cramer and Donald G. Truhlar   : smd solvation model
   Lars Goerigk                                  : TD-DFT with DH, B97 family of functionals
   V. Asgeirsson, H. Jonsson                     : NEB implementation
   FAccTs GmbH                                   : IRC, NEB, NEB-TS, Multilevel, MM, QM/MM, CI optimization
   S Lehtola, MJT Oliveira, MAL Marques          : LibXC Library


 Your calculation uses the libint2 library for the computation of 2-el integrals
 For citations please refer to: http://libint.valeyev.net

 Your ORCA version has been built with support for libXC version: 4.2.3
 For citations please refer to: https://tddft.org/programs/libxc/

 This ORCA versions uses:
   CBLAS   interface :  Fast vector & matrix operations
   LAPACKE interface :  Fast linear algebra routines
   SCALAPACK package :  Parallel linear algebra routines


----- Orbital basis set information -----
Your calculation utilizes the basis: def2-TZVPPD
   F. Weigend and R. Ahlrichs, Phys. Chem. Chem. Phys. 7, 3297 (2005).
   D. Rappoport and F. Furche, J. Chem. Phys. 133 134105 (2010).

cite the ECPs for Sb [Def2-ECP] as follows:
Ce-Yb(ecp-28): M. Dolg, H. Stoll, H.Preuss, J. Chem. Phys., 1989, 90, 1730-1734.
Y-Cd(ecp-28), Hf-Hg(ecp-46): D. Andrae,U. Haeussermann, M. Dolg, H. Stoll, H. Preuss, Theor. Chim. Acta, 1990, 77, 123-141.
In-Sb(ecp-28), Tl-Bi(ecp-46): B. Metz, H. Stoll, M. Dolg, J. Chem. Phys., 2000, 113, 2563-2569.
Te-Xe(ecp-28), Po-Rn(ecp-46): K. A. Peterson, D. Figgen, E. Goll, H. Stoll, M. Dolg, J. Chem. Phys., 2003, 119, 11113-11123.
Rb(ecp-28), Cs(ecp-46): T. Leininger, A. Nicklass, W. Kuechle, H. Stoll, M. Dolg, A. Bergner, Chem. Phys. Lett., 1996, 255, 274-280.
Sr(ecp-28), Ba(ecp-46): M. Kaupp, P. V. Schleyer, H. Stoll and H. Preuss, J. Chem. Phys., 1991, 94, 1360-1366.
La(ecp-46): M. Dolg, H. Stoll, A. Savin, H. Preuss, Theor. Chim. Acta, 1989, 75, 173-194.
Lu(ecp-28): X. Cao, M. Dolg, J. Chem. Phys., 2001, 115, 7348-7355.

ECP parameters for Sb [Def2-ECP] have been obtained from:
TURBOMOLE (7.0.2)

================================================================================
                                        WARNINGS
                       Please study these warnings very carefully!
================================================================================


WARNING: your system is open-shell and RHF/RKS was chosen
  ===> : WILL SWITCH to UHF/UKS


WARNING: MDCI localization with Augmented Hessian Foster-Boys
  ===> : Switching off randomization!

WARNING: Post HF methods need fully converged wavefunctions
  ===> : Setting SCFConvForced true
         You can overwrite this default with %scf ConvForced false 


INFO   : the flag for use of LIBINT has been found!

================================================================================
                                       INPUT FILE
================================================================================
NAME = 51_Sb.in
|  1> #
|  2> # 51_Sb CCSD(T)/Def2-TZVPPD
|  3> #
|  4> ! CCSD(T) Def2-TZVPPD tightscf
|  5> 
|  6> *xyz 0 4
|  7>  Sb 0.0 0.0 0.0
|  8> *
|  9> 
| 10> %maxcore 5000 
| 11> 
| 12> %pal
| 13> nprocs 24
| 14> end
| 15> 
| 16> 
| 17>                          ****END OF INPUT****
================================================================================

                       ****************************
                       * Single Point Calculation *
                       ****************************

---------------------------------
CARTESIAN COORDINATES (ANGSTROEM)
---------------------------------
  Sb     0.000000    0.000000    0.000000

----------------------------
CARTESIAN COORDINATES (A.U.)
----------------------------
  NO LB      ZA    FRAG     MASS         X           Y           Z
   0 Sb   23.0000*   0   121.750    0.000000    0.000000    0.000000
* core charge reduced due to ECP

--------------------------------
INTERNAL COORDINATES (ANGSTROEM)
--------------------------------
 Sb     0   0   0     0.000000000000     0.00000000     0.00000000

---------------------------
INTERNAL COORDINATES (A.U.)
---------------------------
 Sb     0   0   0     0.000000000000     0.00000000     0.00000000

---------------------
BASIS SET INFORMATION
---------------------
There are 1 groups of distinct atoms

 Group   1 Type Sb  : 11s9p9d2f contracted to 7s5p4d2f pattern {4211111/33111/6111/11}

Atom   0Sb   basis set group =>   1
-------------------------
ECP PARAMETER INFORMATION
-------------------------

 Group 1, Type Sb ECP Def2-ECP (replacing 28 core electrons, lmax=3)

Atom   0Sb   ECP group =>   1



           ************************************************************
           *        Program running with 24 parallel MPI-processes    *
           *              working on a common directory               *
           ************************************************************
------------------------------------------------------------------------------
                           ORCA GTO INTEGRAL CALCULATION
------------------------------------------------------------------------------

                         BASIS SET STATISTICS AND STARTUP INFO

 # of primitive gaussian shells          ...   31
 # of primitive gaussian functions       ...   97
 # of contracted shells                  ...   18
 # of contracted basis functions         ...   56
 Highest angular momentum                ...    3
 Maximum contraction depth               ...    6
 Integral package used                   ... LIBINT
 Integral threshhold            Thresh   ...  2.500e-11
 Primitive cut-off              TCut     ...  2.500e-12


------------------------------ INTEGRAL EVALUATION ----------------------------


 * One electron integrals 

   ECP integrals                         ... done
 Pre-screening matrix                    ... done
 Shell pair data                         ... done (   0.000 sec)



           ************************************************************
           *        Program running with 24 parallel MPI-processes    *
           *              working on a common directory               *
           ************************************************************
-------------------------------------------------------------------------------
                                 ORCA SCF
-------------------------------------------------------------------------------

------------
SCF SETTINGS
------------
Hamiltonian:
 Ab initio Hamiltonian  Method          .... Hartree-Fock(GTOs)


General Settings:
 Integral files         IntName         .... 51_Sb
 Hartree-Fock type      HFTyp           .... UHF
 Total Charge           Charge          ....    0
 Multiplicity           Mult            ....    4
 Number of Electrons    NEL             ....   23
 Basis Dimension        Dim             ....   56
 Nuclear Repulsion      ENuc            ....      0.0000000000 Eh

Convergence Acceleration:
 DIIS                   CNVDIIS         .... on
   Start iteration      DIISMaxIt       ....    12
   Startup error        DIISStart       ....  0.200000
   # of expansion vecs  DIISMaxEq       ....     5
   Bias factor          DIISBfac        ....   1.050
   Max. coefficient     DIISMaxC        ....  10.000
 Newton-Raphson         CNVNR           .... off
 SOSCF                  CNVSOSCF        .... off
 Level Shifting         CNVShift        .... on
   Level shift para.    LevelShift      ....    0.2500
   Turn off err/grad.   ShiftErr        ....    0.0010
 Zerner damping         CNVZerner       .... off
 Static damping         CNVDamp         .... on
   Fraction old density DampFac         ....    0.7000
   Max. Damping (<1)    DampMax         ....    0.9800
   Min. Damping (>=0)   DampMin         ....    0.0000
   Turn off err/grad.   DampErr         ....    0.1000
 Fernandez-Rico         CNVRico         .... off

SCF Procedure:
 Maximum # iterations   MaxIter         ....   125
 SCF integral mode      SCFMode         .... Direct
   Integral package                     .... LIBINT
 Reset frequency        DirectResetFreq ....    20
 Integral Threshold     Thresh          ....  2.500e-11 Eh
 Primitive CutOff       TCut            ....  2.500e-12 Eh

Convergence Tolerance:
 Convergence Check Mode ConvCheckMode   .... Total+1el-Energy
 Convergence forced     ConvForced      .... 1
 Energy Change          TolE            ....  1.000e-08 Eh
 1-El. energy change                    ....  1.000e-05 Eh
 DIIS Error             TolErr          ....  5.000e-07


Diagonalization of the overlap matrix:
Smallest eigenvalue                        ... 6.849e-03
Time for diagonalization                   ...    0.002 sec
Threshold for overlap eigenvalues          ... 1.000e-08
Number of eigenvalues below threshold      ... 0
Time for construction of square roots      ...    0.014 sec
Total time needed                          ...    0.016 sec

-------------------
DFT GRID GENERATION
-------------------

General Integration Accuracy     IntAcc      ...  4.340
Radial Grid Type                 RadialGrid  ... Gauss-Chebyshev
Angular Grid (max. acc.)         AngularGrid ... Lebedev-110
Angular grid pruning method      GridPruning ... 3 (G Style)
Weight generation scheme         WeightScheme... Becke
Basis function cutoff            BFCut       ...    1.0000e-11
Integration weight cutoff        WCut        ...    1.0000e-14
Grids for H and He will be reduced by one unit

# of grid points (after initial pruning)     ...   3258 (   0.0 sec)
# of grid points (after weights+screening)   ...   3258 (   0.0 sec)
Grid point division into batches done        ...    0.0 sec
Reduced shell lists constructed in    0.0 sec

Total number of grid points                  ...     3258
Total number of batches                      ...       51
Average number of points per batch           ...       63
Average number of grid points per atom       ...     3258
Average number of shells per batch           ...     7.50 (41.67%)
Average number of basis functions per batch  ...    25.50 (45.54%)
Average number of large shells per batch     ...     4.50 (60.00%)
Average number of large basis fcns per batch ...    13.50 (52.94%)
Maximum spatial batch extension              ...  19.89, 29.99, 29.99 au
Average spatial batch extension              ...   1.15,  1.57,  1.76 au

Time for grid setup =    0.058 sec

------------------------------
INITIAL GUESS: MODEL POTENTIAL
------------------------------
Loading Hartree-Fock densities                     ... done
  calling /sw/apps/orca/orca_4_2_0_linux_x86-64_openmpi314/orca 51_Sb_atom51.inp > 51_Sb_atom51.out in order to generate an atomic fitting density for atom 0 (Sb with ECP) on-the-fly... 
    atom 0 (Sb), assumed electronic state with S=4: 1s2 2s2 2p6 3s2 3p6 4s2 3d10 4p6 5s2 4d10 5p3           ... done
Calculating cut-offs                               ... done
Setting up the integral package                    ... done
Initializing the effective Hamiltonian             ... done
Starting the Coulomb interaction                   ... done (   0.0 sec)
Reading the grid                                   ... done
Mapping shells                                     ... done
Starting the XC term evaluation                    ... done (   0.0 sec)
Transforming the Hamiltonian                       ... done (   0.0 sec)
Diagonalizing the Hamiltonian                      ... done (   0.0 sec)
Back transforming the eigenvectors                 ... done (   0.0 sec)
Now organizing SCF variables                       ... done
                      ------------------
                      INITIAL GUESS DONE (   1.2 sec)
                      ------------------
--------------
SCF ITERATIONS
--------------
ITER       Energy         Delta-E        Max-DP      RMS-DP      [F,P]     Damp
               ***  Starting incremental Fock matrix formation  ***
  0   -232.9368667250   0.000000000000 1.81609970  0.05199663  1.4538137 0.7000
  1   -235.0906188151  -2.153752090114 1.25193479  0.03603170  0.8886444 0.7000
  2   -236.3897923414  -1.299173526267 0.84689873  0.02445310  0.5400919 0.7000
  3   -237.2513724241  -0.861580082786 0.57769495  0.01673347  0.3358021 0.7000
  4   -237.8494374929  -0.598065068798 0.39972388  0.01157523  0.2234773 0.7000
                               ***Turning on DIIS***
  5   -238.2703805598  -0.420943066840 0.27885242  0.00808023  0.1600490 0.7000
  6   -239.0869119530  -0.816531393164 0.19649647  0.00571214  0.1148775 0.7000
  7   -239.2258985911  -0.138986638143 0.47006681  0.01375237  0.0813503 0.0000
  8   -239.2894934503  -0.063594859211 0.03424420  0.00092946  0.0027242 0.0000
  9   -239.2791943298   0.010299120517 0.01802238  0.00047305  0.0012955 0.0000
 10   -239.2781171259   0.001077203884 0.00860260  0.00023993  0.0007975 0.0000
 11   -239.2777753536   0.000341772316 0.00404729  0.00008722  0.0002561 0.0000
 12   -239.2774744521   0.000300901520 0.00028423  0.00000860  0.0000247 0.0000
 13   -239.2773597503   0.000114701803 0.00013580  0.00000349  0.0000046 0.0000
                            ***DIIS convergence achieved***

               *****************************************************
               *                     SUCCESS                       *
               *           SCF CONVERGED AFTER  14 CYCLES          *
               *****************************************************


----------------
TOTAL SCF ENERGY
----------------

Total Energy       :         -239.27733632 Eh           -6511.06734 eV

Components:
Nuclear Repulsion  :            0.00000000 Eh               0.00000 eV
Electronic Energy  :         -239.27733632 Eh           -6511.06734 eV
One Electron Energy:         -419.62223454 Eh          -11418.50151 eV
Two Electron Energy:          180.34489822 Eh            4907.43417 eV

Virial components:
Potential Energy   :         -331.58916534 Eh           -9022.99991 eV
Kinetic Energy     :           92.31182902 Eh            2511.93257 eV
Virial Ratio       :            3.59205498


---------------
SCF CONVERGENCE
---------------

  Last Energy change         ...    2.3433e-05  Tolerance :   1.0000e-08
  Last MAX-Density change    ...    1.3101e-05  Tolerance :   1.0000e-07
  Last RMS-Density change    ...    3.5291e-07  Tolerance :   5.0000e-09
  Last DIIS Error            ...    4.2025e-07  Tolerance :   5.0000e-07

             **** THE GBW FILE WAS UPDATED (51_Sb.gbw) ****
             **** DENSITY FILE WAS UPDATED (51_Sb.scfp) ****
             **** ENERGY FILE WAS UPDATED (51_Sb.en.tmp) ****
----------------------
UHF SPIN CONTAMINATION
----------------------

Expectation value of <S**2>     :     3.752434
Ideal value S*(S+1) for S=1.5   :     3.750000
Deviation                       :     0.002434

             **** THE GBW FILE WAS UPDATED (51_Sb.gbw) ****
             **** DENSITY FILE WAS UPDATED (51_Sb.scfp) ****
----------------
ORBITAL ENERGIES
----------------
                 SPIN UP ORBITALS
  NO   OCC          E(Eh)            E(eV) 
   0   1.0000      -6.525023      -177.5549 
   1   1.0000      -4.592148      -124.9587 
   2   1.0000      -4.592148      -124.9587 
   3   1.0000      -4.592148      -124.9587 
   4   1.0000      -1.619546       -44.0701 
   5   1.0000      -1.619546       -44.0701 
   6   1.0000      -1.619546       -44.0701 
   7   1.0000      -1.619546       -44.0701 
   8   1.0000      -1.619546       -44.0701 
   9   1.0000      -0.731554       -19.9066 
  10   1.0000      -0.334257        -9.0956 
  11   1.0000      -0.334257        -9.0956 
  12   1.0000      -0.334257        -9.0956 
  13   0.0000       0.072996         1.9863 
  14   0.0000       0.132403         3.6029 
  15   0.0000       0.132403         3.6029 
  16   0.0000       0.132403         3.6029 
  17   0.0000       0.132403         3.6029 
  18   0.0000       0.132403         3.6029 
  19   0.0000       0.194973         5.3055 
  20   0.0000       0.194973         5.3055 
  21   0.0000       0.194973         5.3055 
  22   0.0000       0.404219        10.9994 
  23   0.0000       0.404219        10.9994 
  24   0.0000       0.404219        10.9994 
  25   0.0000       0.404219        10.9994 
  26   0.0000       0.404219        10.9994 
  27   0.0000       0.525531        14.3004 
  28   0.0000       0.949087        25.8260 
  29   0.0000       0.949087        25.8260 
  30   0.0000       0.949087        25.8260 
  31   0.0000       0.949087        25.8260 
  32   0.0000       0.949087        25.8260 
  33   0.0000       0.949087        25.8260 
  34   0.0000       0.949087        25.8260 
  35   0.0000       0.998288        27.1648 
  36   0.0000       0.998288        27.1648 
  37   0.0000       0.998288        27.1648 
  38   0.0000       1.559406        42.4336 
  39   0.0000       1.559406        42.4336 
  40   0.0000       1.559406        42.4336 
  41   0.0000       1.559406        42.4336 
  42   0.0000       1.559406        42.4336 
  43   0.0000       2.657151        72.3047 
  44   0.0000       2.657151        72.3047 
  45   0.0000       2.657151        72.3047 
  46   0.0000       2.657151        72.3047 
  47   0.0000       2.657151        72.3047 
  48   0.0000       2.657151        72.3047 
  49   0.0000       2.657151        72.3047 
  50   0.0000       3.812401       103.7407 
  51   0.0000      39.759544      1081.9122 
  52   0.0000      39.759544      1081.9122 
  53   0.0000      39.759544      1081.9122 
  54   0.0000      40.619130      1105.3027 
  55   0.0000     113.398720      3085.7361 

                 SPIN DOWN ORBITALS
  NO   OCC          E(Eh)            E(eV) 
   0   1.0000      -6.512828      -177.2231 
   1   1.0000      -4.579848      -124.6240 
   2   1.0000      -4.579848      -124.6240 
   3   1.0000      -4.579848      -124.6240 
   4   1.0000      -1.607802       -43.7505 
   5   1.0000      -1.607802       -43.7505 
   6   1.0000      -1.607802       -43.7505 
   7   1.0000      -1.607802       -43.7505 
   8   1.0000      -1.607802       -43.7505 
   9   1.0000      -0.507537       -13.8108 
  10   0.0000       0.027227         0.7409 
  11   0.0000       0.027227         0.7409 
  12   0.0000       0.027227         0.7409 
  13   0.0000       0.090060         2.4507 
  14   0.0000       0.158118         4.3026 
  15   0.0000       0.158118         4.3026 
  16   0.0000       0.158118         4.3026 
  17   0.0000       0.158118         4.3026 
  18   0.0000       0.158118         4.3026 
  19   0.0000       0.246895         6.7183 
  20   0.0000       0.246895         6.7183 
  21   0.0000       0.246895         6.7183 
  22   0.0000       0.485513        13.2115 
  23   0.0000       0.485513        13.2115 
  24   0.0000       0.485513        13.2115 
  25   0.0000       0.485513        13.2115 
  26   0.0000       0.485513        13.2115 
  27   0.0000       0.569107        15.4862 
  28   0.0000       1.021141        27.7867 
  29   0.0000       1.021141        27.7867 
  30   0.0000       1.021141        27.7867 
  31   0.0000       1.021141        27.7867 
  32   0.0000       1.021141        27.7867 
  33   0.0000       1.021141        27.7867 
  34   0.0000       1.021141        27.7867 
  35   0.0000       1.050599        28.5883 
  36   0.0000       1.050599        28.5883 
  37   0.0000       1.050599        28.5883 
  38   0.0000       1.614036        43.9201 
  39   0.0000       1.614036        43.9201 
  40   0.0000       1.614036        43.9201 
  41   0.0000       1.614036        43.9201 
  42   0.0000       1.614036        43.9201 
  43   0.0000       2.671206        72.6872 
  44   0.0000       2.671206        72.6872 
  45   0.0000       2.671206        72.6872 
  46   0.0000       2.671206        72.6872 
  47   0.0000       2.671206        72.6872 
  48   0.0000       2.671206        72.6872 
  49   0.0000       2.671206        72.6872 
  50   0.0000       3.835310       104.3641 
  51   0.0000      39.764915      1082.0584 
  52   0.0000      39.764915      1082.0584 
  53   0.0000      39.764915      1082.0584 
  54   0.0000      40.623504      1105.4217 
  55   0.0000     113.399118      3085.7469 

                    ********************************
                    * MULLIKEN POPULATION ANALYSIS *
                    ********************************

--------------------------------------------
MULLIKEN ATOMIC CHARGES AND SPIN POPULATIONS
--------------------------------------------
   0 Sb:   -0.000000    3.000000
Sum of atomic charges         :   -0.0000000
Sum of atomic spin populations:    3.0000000

-----------------------------------------------------
MULLIKEN REDUCED ORBITAL CHARGES AND SPIN POPULATIONS
-----------------------------------------------------
CHARGE
  0 Sbs       :     4.000000  s :     4.000000
      pz      :     3.000000  p :     9.000000
      px      :     3.000000
      py      :     3.000000
      dz2     :     2.000000  d :    10.000000
      dxz     :     2.000000
      dyz     :     2.000000
      dx2y2   :     2.000000
      dxy     :     2.000000
      f0      :     0.000000  f :     0.000000
      f+1     :     0.000000
      f-1     :     0.000000
      f+2     :     0.000000
      f-2     :     0.000000
      f+3     :     0.000000
      f-3     :     0.000000

SPIN
  0 Sbs       :    -0.000000  s :    -0.000000
      pz      :     1.000000  p :     3.000000
      px      :     1.000000
      py      :     1.000000
      dz2     :    -0.000000  d :    -0.000000
      dxz     :    -0.000000
      dyz     :     0.000000
      dx2y2   :    -0.000000
      dxy     :     0.000000
      f0      :     0.000000  f :     0.000000
      f+1     :     0.000000
      f-1     :     0.000000
      f+2     :     0.000000
      f-2     :    -0.000000
      f+3     :     0.000000
      f-3     :     0.000000


                     *******************************
                     * LOEWDIN POPULATION ANALYSIS *
                     *******************************

-------------------------------------------
LOEWDIN ATOMIC CHARGES AND SPIN POPULATIONS
-------------------------------------------
   0 Sb:   -0.000000    3.000000

----------------------------------------------------
LOEWDIN REDUCED ORBITAL CHARGES AND SPIN POPULATIONS
----------------------------------------------------
CHARGE
  0 Sbs       :     4.000000  s :     4.000000
      pz      :     3.000000  p :     9.000000
      px      :     3.000000
      py      :     3.000000
      dz2     :     2.000000  d :    10.000000
      dxz     :     2.000000
      dyz     :     2.000000
      dx2y2   :     2.000000
      dxy     :     2.000000
      f0      :     0.000000  f :     0.000000
      f+1     :     0.000000
      f-1     :     0.000000
      f+2     :     0.000000
      f-2     :     0.000000
      f+3     :     0.000000
      f-3     :     0.000000

SPIN
  0 Sbs       :    -0.000000  s :    -0.000000
      pz      :     1.000000  p :     3.000000
      px      :     1.000000
      py      :     1.000000
      dz2     :    -0.000000  d :    -0.000000
      dxz     :    -0.000000
      dyz     :     0.000000
      dx2y2   :    -0.000000
      dxy     :     0.000000
      f0      :     0.000000  f :     0.000000
      f+1     :     0.000000
      f-1     :     0.000000
      f+2     :     0.000000
      f-2     :    -0.000000
      f+3     :     0.000000
      f-3     :     0.000000


                      *****************************
                      * MAYER POPULATION ANALYSIS *
                      *****************************

  NA   - Mulliken gross atomic population
  ZA   - Total nuclear charge
  QA   - Mulliken gross atomic charge
  VA   - Mayer's total valence
  BVA  - Mayer's bonded valence
  FA   - Mayer's free valence

  ATOM       NA         ZA         QA         VA         BVA        FA
  0 Sb    23.0000    23.0000    -0.0000     3.0049     0.0000     3.0049

  Mayer bond orders larger than 0.100000


-------
TIMINGS
-------

Total SCF time: 0 days 0 hours 0 min 14 sec 

Total time                  ....      14.190 sec
Sum of individual times     ....      13.691 sec  ( 96.5%)

Fock matrix formation       ....       2.113 sec  ( 14.9%)
Diagonalization             ....       0.060 sec  (  0.4%)
Density matrix formation    ....       0.006 sec  (  0.0%)
Population analysis         ....       0.062 sec  (  0.4%)
Initial guess               ....       1.164 sec  (  8.2%)
Orbital Transformation      ....       0.000 sec  (  0.0%)
Orbital Orthonormalization  ....       0.000 sec  (  0.0%)
DIIS solution               ....      10.229 sec  ( 72.1%)


           ************************************************************
           *        Program running with 24 parallel MPI-processes    *
           *              working on a common directory               *
           ************************************************************


------------------------------------------------------------------------------- 
                              ORCA-MATRIX DRIVEN CI                            
------------------------------------------------------------------------------- 

--------------------------------
AUTOMATIC CHOICE OF INCORE LEVEL
--------------------------------

Memory available                           ...   2500.00 MB
Memory needed for S+T                      ...      1.90 MB
Memory needed for J+K                      ...      3.84 MB
Memory needed for DIIS                     ...     26.66 MB
Memory needed for 3-ext                    ...      5.46 MB
Memory needed for 4-ext                    ...     13.34 MB
Memory needed for triples                  ...      3.03 MB
 -> Final InCoreLevel    ... 5
 -> check shows that triples correction can be computed


Wavefunction type
-----------------
Correlation treatment                      ...      CCSD     
Single excitations                         ... ON
Orbital optimization                       ... OFF
Calculation of Z vector                    ... OFF
Calculation of Brueckner orbitals          ... OFF
Perturbative triple excitations            ... ON
Calculation of F12 correction              ... OFF
Frozen core treatment                      ... chemical core (8 el)
Reference Wavefunction                     ... UHF
  Alpha-MOs occ    :     4 ...   12 (  9 MO's/  9 electrons)
  Beta-MOs occ     :     4 ...    9 (  6 MO's/  6 electrons)
  Alpha-MOs virt   :    13 ...   55 ( 43 MO's              )
  Beta-MOs virt    :    10 ...   55 ( 46 MO's              )
Number of AO's                             ...     56
Number of electrons                        ...     23
Number of correlated electrons             ...     15

Algorithmic settings
--------------------
Integral transformation                    ... AO direct full transformation
K(C) Formation                             ... FULL-MO TRAFO
Maximum number of iterations               ...        50
Convergence tolerance (max. residuum)      ... 1.000e-05
Level shift for amplitude update           ... 2.000e-01
Maximum number of DIIS vectors             ...         7
DIIS turned on at iteration                ...         0
Damping before turning on DIIS             ...     0.500
Damping after turning on DIIS              ...     0.000
Pair specific amplitude update             ... OFF
Natural orbital iterations                 ... OFF
Perturbative natural orbital generation    ... OFF
Printlevel                                 ... 2

Memory handling:
----------------
Maximum memory for working arrays          ...   2500 MB
Data storage in matrix containers          ... UNCOMPRESSED
Data type for integral storage             ... DOUBLE
In-Core Storage of quantities:
   Amplitudes+Sigma Vector      ... YES
   J+K operators                ... YES
   DIIS vectors                 ... YES
   3-external integrals         ... YES
   4-external integrals         ... YES


Initializing the integral package          ... done
Warning: reference  - re-canonicalizations have been set to INT 1 VIRT 1

--------------------------
UNRESTRICTED FOCK OPERATOR
--------------------------

<ss|ss>:          406 b            0 skpd (  0.0%)    0.000 s ( 0.000 ms/b)
<ss|sp>:          980 b            0 skpd (  0.0%)    0.000 s ( 0.000 ms/b)
<ss|sd>:          784 b            0 skpd (  0.0%)    0.000 s ( 0.000 ms/b)
<ss|sf>:          392 b            0 skpd (  0.0%)    0.000 s ( 0.000 ms/b)
<ss|pp>:          420 b            0 skpd (  0.0%)    0.000 s ( 0.000 ms/b)
<ss|pd>:          560 b            0 skpd (  0.0%)    0.000 s ( 0.001 ms/b)
<ss|pf>:          280 b            0 skpd (  0.0%)    0.000 s ( 0.000 ms/b)
<ss|dd>:          280 b            0 skpd (  0.0%)    0.001 s ( 0.005 ms/b)
<ss|df>:          224 b            0 skpd (  0.0%)    0.000 s ( 0.002 ms/b)
<ss|ff>:           84 b            0 skpd (  0.0%)    0.000 s ( 0.003 ms/b)
<sp|sp>:          630 b            0 skpd (  0.0%)    0.000 s ( 0.000 ms/b)
<sp|sd>:          980 b            0 skpd (  0.0%)    0.000 s ( 0.000 ms/b)
<sp|sf>:          490 b            0 skpd (  0.0%)    0.000 s ( 0.000 ms/b)
<sp|pp>:          525 b            0 skpd (  0.0%)    0.000 s ( 0.001 ms/b)
<sp|pd>:          700 b            0 skpd (  0.0%)    0.001 s ( 0.002 ms/b)
<sp|pf>:          350 b            0 skpd (  0.0%)    0.000 s ( 0.001 ms/b)
<sp|dd>:          350 b            0 skpd (  0.0%)    0.004 s ( 0.012 ms/b)
<sp|df>: done
<sp|ff>: done
<sd|sd>:          406 b            0 skpd (  0.0%)    0.001 s ( 0.001 ms/b)
<sd|sf>:          392 b            0 skpd (  0.0%)    0.000 s ( 0.001 ms/b)
<sd|pp>:          420 b            0 skpd (  0.0%)    0.001 s ( 0.002 ms/b)
<sd|pd>:          560 b           11 skpd (  2.0%)    0.003 s ( 0.005 ms/b)
<sd|pf>: done
<sd|dd>:          280 b            0 skpd (  0.0%)    0.006 s ( 0.022 ms/b)
<sd|df>:          224 b            2 skpd (  0.9%)    0.002 s ( 0.010 ms/b)
<sd|ff>: done
<sf|sf>:          105 b            0 skpd (  0.0%)    0.000 s ( 0.001 ms/b)
<sf|pp>:          210 b            0 skpd (  0.0%)    0.000 s ( 0.001 ms/b)
<sf|pd>: done
<sf|pf>: done
<sf|dd>:          140 b            0 skpd (  0.0%)    0.003 s ( 0.020 ms/b)
<sf|df>: done
<sf|ff>: done
<pp|pp>:          120 b            0 skpd (  0.0%)    0.000 s ( 0.002 ms/b)
<pp|pd>:          300 b            0 skpd (  0.0%)    0.001 s ( 0.002 ms/b)
<pp|pf>:          150 b            0 skpd (  0.0%)    0.000 s ( 0.002 ms/b)
<pp|dd>:          150 b            0 skpd (  0.0%)    0.002 s ( 0.015 ms/b)
<pp|df>:          120 b            0 skpd (  0.0%)    0.001 s ( 0.007 ms/b)
<pp|ff>:           45 b            0 skpd (  0.0%)    0.000 s ( 0.011 ms/b)
<pd|pd>:          210 b            0 skpd (  0.0%)    0.002 s ( 0.011 ms/b)
<pd|pf>:          200 b            0 skpd (  0.0%)    0.001 s ( 0.003 ms/b)
<pd|dd>:          200 b            0 skpd (  0.0%)    0.007 s ( 0.033 ms/b)
<pd|df>:          160 b            0 skpd (  0.0%)    0.002 s ( 0.015 ms/b)
<pd|ff>: done
<pf|pf>:           55 b            0 skpd (  0.0%)    0.000 s ( 0.007 ms/b)
<pf|dd>:          100 b            0 skpd (  0.0%)    0.003 s ( 0.028 ms/b)
<pf|df>: done
<pf|ff>: done
<dd|dd>:           55 b            0 skpd (  0.0%)    0.009 s ( 0.168 ms/b)
<dd|df>:           80 b            0 skpd (  0.0%)    0.003 s ( 0.042 ms/b)
<dd|ff>:           30 b            0 skpd (  0.0%)    0.001 s ( 0.049 ms/b)
<df|df>:           36 b            0 skpd (  0.0%)    0.002 s ( 0.063 ms/b)
<df|ff>: done
<ff|ff>: done
Recanonicalizing the internal orbitals
Recanonicalizing the virtual orbitals
Time needed for Fock operator              ...            0.196 sec
Reference energy                           ...   -239.277336753
Warning: for UHF the TrafoType has to be JK
Warning: for UHF the K(C)-option cannot be MO but must be AOX

-------------------------------
PARTIAL EXCHANGE TRANSFORMATION
-------------------------------

Transformation type                        ... two-operators
Generation of integrals (i,mue|j,nue)      ... ON
Generation of integrals (mue,kappa|nue,tau)... ON
Generation of integrals (i,mue|a,nue)      ... ON
Dimension of the basis                     ...   56
Number of internal alpha-MOs               ...    9 (   4-  12)
Number of internal beta-MOs                ...    6 (   4-   9)
Number of external alpha-MOs               ...   43 (  13-  55)
Number of external beta-MOs                ...   46 (  10-  55)
Pair cutoff                                ... 0.000e+00 Eh
Number of AO pairs in the trafo            ... 1596
Total Number of distinct AO pairs          ... 1596
Memory devoted for trafo                   ... 2500.0 MB 
Max. Number of MO pairs treated together   ... 104489      
Number Format for Storage                  ... Double (8 Byte)
Integral package used                      ... LIBINT

Starting integral evaluation:
    ... done with AO integral generation
Closing buffer AOK[aa] ( 0.00 GB; CompressionRatio= 0.00)
Closing buffer AOK[bb] ( 0.00 GB; CompressionRatio= 0.00)
Closing buffer AOK[ab] ( 0.00 GB; CompressionRatio= 0.00)
Closing buffer AOK[ba] ( 0.00 GB; CompressionRatio= 0.00)
Collecting buffer AOK 
Closing buffer IAAO1[aa] ( 0.00 GB; CompressionRatio= 0.00)
Closing buffer IAAO1[bb] ( 0.00 GB; CompressionRatio= 0.00)
Closing buffer IAAO1[ab] ( 0.00 GB; CompressionRatio= 0.00)
Closing buffer IAAO1[ba] ( 0.00 GB; CompressionRatio= 0.00)
Closing buffer IAAO2[aa] ( 0.00 GB; CompressionRatio= 0.00)
Closing buffer IAAO2[bb] ( 0.00 GB; CompressionRatio= 0.00)
Closing buffer IAAO2[ab] ( 0.00 GB; CompressionRatio= 0.00)
Closing buffer IAAO2[ba] ( 0.00 GB; CompressionRatio= 0.00)
Collecting buffer IAAO 
Closing buffer PRQS    ( 0.00 GB; CompressionRatio= 0.00)
Collecting buffer PRQS 
Number of alpha/alpha MO pairs in trafo    ...   45
Number of beta /beta  MO pairs in trafo    ...   21
Number of alpha/ beta MO pairs in trafo    ...   54
------------------------
SORTING OF (i,mue|j,nue)
------------------------

SORTING OF ALPHA/ALPHA PAIRS
IBATCH = 1 of  1
Closing buffer KAO[aa] ( 0.00 GB; CompressionRatio= 1.00)
Collecting buffer KAO 
SORTING OF BETA /BETA  PAIRS
IBATCH = 1 of  1
Closing buffer KAO[bb] ( 0.00 GB; CompressionRatio= 1.00)
Collecting buffer KAO 
SORTING OF ALPHA/BETA  PAIRS
IBATCH = 1 of  1
Closing buffer KAO[ab] ( 0.00 GB; CompressionRatio= 0.999521912351)
Collecting buffer KAO[ab] 
------------------------
SORTING OF (i,mue|a,nue)
------------------------

Number of alpha/alpha (i,a) pairs in trafo  ...  387
Number of beta /beta  (i,a) pairs in trafo  ...  276
Number of alpha/ beta (i,a) pairs in trafo  ...  414
Number of beta /alpha (i,a) pairs in trafo  ...  258
Setting up the alpha/alpha list             ... done
Setting up the beta /beta  list             ... done
Setting up the alpha/beta  list             ... done
Setting up the beta /alpha list             ... done
    ... Now sorting (i,mue|a,nue)integrals
    ... Integrals (i,b|a,c) will be made on the fly
SORTING OF ALPHA/ALPHA PAIRS
IBATCH = 1 of  1
Closing buffer IPAQ[aa]  0.00 GB; CompressionRatio= 1.00)
SORTING OF BETA /BETA  PAIRS
IBATCH = 1 of  1
Closing buffer IPAQ[bb]( 0.00 GB; CompressionRatio= 1.00)
SORTING OF ALPHA/BETA  PAIRS (NMatSort_ab=18)
IBATCH = 1 of  1
Closing buffer IPAQ[ab]( 0.00 GB; CompressionRatio= 1.00)
SORTING OF BETA/ALPHA  PAIRS
IBATCH = 1 of  1
Closing buffer IPAQ[ba]( 0.00 GB; CompressionRatio= 1.00)
N(AO-Batches) Done                         ...         0 
N(AO-Batches) Skipped                      ...         0 
N(IJ)-pairs Skipped                        ...         0 
TOTAL TIME for half transformation         ...     2.883 sec
AO-integral generation                     ...     0.000 sec
Half transformation                        ...     0.000 sec
K-integral sorting                         ...     0.742 sec
<ss|**>: 
------------------------------
PARTIAL COULOMB TRANSFORMATION
------------------------------

Transformation type                        ... two-operators
Dimension of the basis                     ...   56
Number of internal alpha-MOs               ...    9 (4-12)
Number of internal beta-MOs                ...    6 (4-9)
Pair cutoff                                ... 0.000e+00 Eh
Number of AO pairs included in the trafo   ... 1596
Total Number of distinct AO pairs          ... 1596
Memory devoted for trafo                   ... 2500.0 MB 
Max. Number of MO pairs treated together   ... 205313      
Max. Number of MOs treated per batch       ... 3666      
Number Format for Storage                  ... Double (8 Byte)
AO-integral source                         ... DIRECT
Integral package used                      ... LIBINT

Starting integral evaluation:
<sp|**>:         4788 b        0 skpd     0.003 s (  0.001 ms/b)
<sd|**>:         5985 b        0 skpd     0.016 s (  0.003 ms/b)
        4788 b        0 skpd     0.021 s (  0.004 ms/b)
<sf|**>:         2394 b        0 skpd     0.018 s (  0.008 ms/b)
<pp|**>:         2565 b        0 skpd     0.020 s (  0.008 ms/b)
<pd|**>:         3420 b        0 skpd     0.049 s (  0.014 ms/b)
<pf|**>:         1710 b        0 skpd     0.035 s (  0.020 ms/b)
<dd|**>:         1710 b        0 skpd     0.042 s (  0.024 ms/b)
<df|**>:         1368 b        0 skpd     0.045 s (  0.033 ms/b)
<ff|**>:          513 b        0 skpd     0.037 s (  0.072 ms/b)
Closing buffer AOJ[aa] ( 0.00 GB; CompressionRatio= 0.97)
Closing buffer AOJ[bb] ( 0.00 GB; CompressionRatio= 0.00)
Collecting buffer AOJ 
    ... done with AO integral generation
Number of Alpha-MO pairs included          ...   45
Number of Beta-MO pairs included           ...   21
    ... Now sorting integrals
SORTING ALPHA/ALPHA PAIRS
IBATCH = 1 of  1
Closing buffer JAO[aa] ( 0.00 GB; CompressionRatio= 1.00)
SORTING BETA/BETA PAIRS
IBATCH = 1 of  1
Closing buffer JAO[bb] ( 0.00 GB; CompressionRatio= 1.00)
Collecting buffer JAO 
TOTAL TIME for half transformation         ...     0.409 sec
AO-integral generation                     ...     0.139 sec
Half transformation                        ...     0.148 sec
J-integral sorting                         ...     0.090 sec

-------------------------- SECOND HALF TRANSFORMATION -------------------------
Formation of (ij|kl),(ij|ka), (ij|ab)      ... ok (     0.107 sec)
Formation of (ik|jl),(ik|ja), (ia|jb)      ... ok (     0.187 sec)


-----------------------
SPIN UNRESTRICTED GUESS
-----------------------

Entering MDCI_UHF_Guess, Tailored=0
Spin-components of the MP2 energy:
EMP2(aa)=     -0.067831126
EMP2(bb)=     -0.039433775
EMP2(ab)=     -0.178990100

Initial guess performed in     0.008 sec
E(0)                                       ...   -239.277336753
E(MP2)                                     ...     -0.286255002
Initial E(tot)                             ...   -239.563591755
<T|T>                                      ...      0.075335026
Number of pairs included                   ... 105

------------------------------------------------
                  UHF COUPLED CLUSTER ITERATIONS
------------------------------------------------

Number of amplitudes to be optimized       ...       156277

Iter       E(tot)           E(Corr)          Delta-E          Residual     Time      <S|S>**1/2
  0   -239.563591755     -0.286255002     -0.000000000      0.022051310    0.17      0.000000400
                           *** Turning on DIIS ***
  1   -239.551943857     -0.274607104      0.011647897      0.004223882    0.15      0.021537262
  2   -239.556125638     -0.278788885     -0.004181781      0.001810403    0.16      0.025670552
  3   -239.557049015     -0.279712262     -0.000923377      0.000341559    0.16      0.028367706
  4   -239.557131956     -0.279795203     -0.000082941      0.000090169    0.17      0.028954681
  5   -239.557135328     -0.279798575     -0.000003373      0.000025044    0.17      0.029087112
  6   -239.557136143     -0.279799390     -0.000000815      0.000006441    0.17      0.029120915
               --- The Coupled-Cluster iterations have converged ---

----------------------
COUPLED CLUSTER ENERGY
----------------------

E(0)                                       ...   -239.277336753
E(CORR)                                    ...     -0.279799390
E(TOT)                                     ...   -239.557136143
Singles norm <S|S>**1/2                    ...      0.029120915 ( 0.018283779, 0.010837136)  
T1 diagnostic                              ...      0.007518988                              

------------------
LARGEST AMPLITUDES
------------------
  12a-> 25a   9b-> 12b       0.034296
  10a-> 24a   9b-> 10b       0.032457
  11a-> 26a   9b-> 12b       0.032026
  11a-> 22a   9b-> 10b       0.030832
  10a-> 22a   9b-> 11b       0.030729
  12a-> 26a   9b-> 11b       0.030411
  10a-> 23a   9b-> 12b       0.028551
  12a-> 23a   9b-> 10b       0.028392
  11a-> 24a   9b-> 11b       0.027574
  11a-> 22a  10a-> 24a       0.023064
  11a-> 24a  10a-> 22a       0.023064
  12a-> 18a   9b-> 12b       0.022890
  11a-> 17a   9b-> 11b       0.022295
  11a-> 14a   9b-> 12b       0.022193
  10a-> 18a   9b-> 10b       0.022183
  12a-> 14a   9b-> 11b       0.021968

----------------------
UHF TRIPLES CORRECTION (Algorithm 1)
----------------------

Multiplier for the singles contribution    ...      1.000000000

SPIN-CASE Alpha-Alpha-Alpha:
10% done
20% done
30% done
40% done
50% done
60% done
70% done
80% done
90% done


SPIN-CASE Beta-Beta-Beta:
10% done
20% done
30% done
40% done
50% done
60% done
70% done
80% done
90% done


SPIN-CASE Alpha-Alpha-Beta:
10% done
20% done
30% done
40% done
50% done
60% done
70% done
80% done
90% done


SPIN-CASE Beta-Beta-Alpha:
10% done
20% done
30% done
40% done
50% done
60% done
70% done
80% done
90% done


Triples Correction (T)                     ...     -0.006121724
    alpha-alpha-alpha ... -0.000486196 (  7.9%)
    alpha-alpha-beta  ... -0.003900504 ( 63.7%)
    alpha-beta -beta  ... -0.001645184 ( 26.9%)
    beta -beta -beta  ... -0.000089840 (  1.5%)
Scaling of triples based on CCSD energies (Peterson et al. Molecular Physics 113, 1551 (2015))
E(T*) = f*E(T) where f = E(F12-CCSD)/E(CCSD) 
f = CCSD (with F12)/ CCSD (without F12)    ...      1.000000000
Scaled triples correction (T)              ...     -0.006121724

Final correlation energy                   ...     -0.285921114
E(CCSD)                                    ...   -239.557136143
E(CCSD(T))                                 ...   -239.563257867



        !!!!!!!!!!!!!!!!!!!!!!!!!!!!!!!!!!!!!!!!!!!!!!!!!!!!!!!!!!!!!!!!!!!!!!!!!! 
        !  Warning: Densities are linearized densities                           !
        !!!!!!!!!!!!!!!!!!!!!!!!!!!!!!!!!!!!!!!!!!!!!!!!!!!!!!!!!!!!!!!!!!!!!!!!!! 

NORM  =      1.081210707 sqrt=     1.039812823
W(HF) =      0.924889102
------------------------------------------------------------------------------
                           ORCA POPULATION ANALYSIS
------------------------------------------------------------------------------
Input electron density              ... 51_Sb.mdcip
Input spin density                  ... 51_Sb.mdcir
BaseName (.gbw .S,...)              ... 51_Sb

                    ********************************
                    * MULLIKEN POPULATION ANALYSIS *
                    ********************************

------------------------------------------
MULLIKEN ATOMIC CHARGES AND SPIN DENSITIES
------------------------------------------
   0 Sb:    0.000000    3.000000
Sum of atomic charges       :    0.0000000
Sum of atomic spin densities:    3.0000000

---------------------------------------------------
MULLIKEN REDUCED ORBITAL CHARGES AND SPIN DENSITIES
---------------------------------------------------
CHARGE
  0 Sbs       :     3.956361  s :     3.956361
      pz      :     2.996331  p :     8.988992
      px      :     2.996331
      py      :     2.996331
      dz2     :     2.002357  d :    10.011786
      dxz     :     2.002357
      dyz     :     2.002357
      dx2y2   :     2.002357
      dxy     :     2.002357
      f0      :     0.006123  f :     0.042860
      f+1     :     0.006123
      f-1     :     0.006123
      f+2     :     0.006123
      f-2     :     0.006123
      f+3     :     0.006123
      f-3     :     0.006123

SPIN
  0 Sbs       :     0.030824  s :     0.030824
      pz      :     0.973908  p :     2.921723
      px      :     0.973908
      py      :     0.973908
      dz2     :     0.008873  d :     0.044364
      dxz     :     0.008873
      dyz     :     0.008873
      dx2y2   :     0.008873
      dxy     :     0.008873
      f0      :     0.000441  f :     0.003089
      f+1     :     0.000441
      f-1     :     0.000441
      f+2     :     0.000441
      f-2     :     0.000441
      f+3     :     0.000441
      f-3     :     0.000441


                     *******************************
                     * LOEWDIN POPULATION ANALYSIS *
                     *******************************

-----------------------------------------
LOEWDIN ATOMIC CHARGES AND SPIN DENSITIES
-----------------------------------------
   0 Sb:   -0.000000    3.000000

--------------------------------------------------
LOEWDIN REDUCED ORBITAL CHARGES AND SPIN DENSITIES
--------------------------------------------------
CHARGE
  0 Sbs       :     3.956361  s :     3.956361
      pz      :     2.996331  p :     8.988992
      px      :     2.996331
      py      :     2.996331
      dz2     :     2.002357  d :    10.011786
      dxz     :     2.002357
      dyz     :     2.002357
      dx2y2   :     2.002357
      dxy     :     2.002357
      f0      :     0.006123  f :     0.042860
      f+1     :     0.006123
      f-1     :     0.006123
      f+2     :     0.006123
      f-2     :     0.006123
      f+3     :     0.006123
      f-3     :     0.006123

SPIN
  0 Sbs       :     0.030824  s :     0.030824
      pz      :     0.973908  p :     2.921723
      px      :     0.973908
      py      :     0.973908
      dz2     :     0.008873  d :     0.044364
      dxz     :     0.008873
      dyz     :     0.008873
      dx2y2   :     0.008873
      dxy     :     0.008873
      f0      :     0.000441  f :     0.003089
      f+1     :     0.000441
      f-1     :     0.000441
      f+2     :     0.000441
      f-2     :     0.000441
      f+3     :     0.000441
      f-3     :     0.000441


                      *****************************
                      * MAYER POPULATION ANALYSIS *
                      *****************************

  NA   - Mulliken gross atomic population
  ZA   - Total nuclear charge
  QA   - Mulliken gross atomic charge
  VA   - Mayer's total valence
  BVA  - Mayer's bonded valence
  FA   - Mayer's free valence

  ATOM       NA         ZA         QA         VA         BVA        FA
  0 Sb    23.0000    23.0000     0.0000     3.4657     0.0000     3.4657





------------------------------------------------------------------------------- 
                                     TIMINGS                                   
------------------------------------------------------------------------------- 


Total execution time                   ...        5.450 sec

Fock Matrix Formation                  ...        0.196 sec (  3.6%)
Initial Guess                          ...        0.008 sec (  0.2%)
DIIS Solver                            ...        0.079 sec (  1.5%)
State Vector Update                    ...        0.005 sec (  0.1%)
Sigma-vector construction              ...        1.069 sec ( 19.6%)
  <D|H|D>(0-ext Fock)                  ...        0.002 sec (  0.1% of sigma)
  <D|H|D>(0-ext)                       ...        0.004 sec (  0.4% of sigma)
  <D|H|D>(2-ext)                       ...        0.017 sec (  1.6% of sigma)
  <D|H|D>(4-ext)                       ...        0.399 sec ( 37.3% of sigma)
  <S|H|0>                              ...        0.035 sec (  3.3% of sigma)
  <D|H|S>(1-ext)                       ...        0.008 sec (  0.7% of sigma)
  Fock-dressing                        ...        0.314 sec ( 29.3% of sigma)
  (ik|jl)-dressing                     ...        0.006 sec (  0.5% of sigma)
  (ij|ab),(ia|jb)-dressing             ...        0.217 sec ( 20.3% of sigma)
Total Time for computing (T)           ...        0.096 sec (  1.8% of ALL)
  I/O of integral and amplitudes       ...        0.022 sec ( 23.0% of (T))
  External N**7 contributions          ...        0.026 sec ( 26.7% of (T))
  Internal N**7 contributions          ...        0.009 sec (  9.2% of (T))
  N**6 triples energy contributions    ...        0.036 sec ( 37.4% of (T))


-------------------------   --------------------
FINAL SINGLE POINT ENERGY      -239.563257867088
-------------------------   --------------------


                            ***************************************
                            *     ORCA property calculations      *
                            ***************************************

                                    ---------------------
                                    Active property flags
                                    ---------------------
   (+) Dipole Moment


------------------------------------------------------------------------------
                       ORCA ELECTRIC PROPERTIES CALCULATION
------------------------------------------------------------------------------

Dipole Moment Calculation                       ... on
Quadrupole Moment Calculation                   ... off
Polarizability Calculation                      ... off
GBWName                                         ... 51_Sb.gbw
Electron density file                           ... 51_Sb.scfp
The origin for moment calculation is the CENTER OF MASS  = ( 0.000000,  0.000000  0.000000)

-------------
DIPOLE MOMENT
-------------
                                X             Y             Z
Electronic contribution:      0.00000      -0.00000       0.00000
Nuclear contribution   :      0.00000       0.00000       0.00000
                        -----------------------------------------
Total Dipole Moment    :      0.00000      -0.00000       0.00000
                        -----------------------------------------
Magnitude (a.u.)       :      0.00000
Magnitude (Debye)      :      0.00000



--------------------
Rotational spectrum 
--------------------
 
Rotational constants in cm-1:     0.000000     0.000000     0.000000 
Rotational constants in MHz :     0.000000     0.000000     0.000000 

 Dipole components along the rotational axes: 
x,y,z [a.u.] :     0.000000    -0.000000     0.000000 
x,y,z [Debye]:     0.000000    -0.000000     0.000000 

 

                           *** MDCI DENSITY ***

------------------------------------------------------------------------------
                       ORCA ELECTRIC PROPERTIES CALCULATION
------------------------------------------------------------------------------

Dipole Moment Calculation                       ... on
Quadrupole Moment Calculation                   ... off
Polarizability Calculation                      ... off
GBWName                                         ... 51_Sb.gbw
Electron density file                           ... 51_Sb.mdcip
The origin for moment calculation is the CENTER OF MASS  = ( 0.000000,  0.000000  0.000000)

-------------
DIPOLE MOMENT
-------------
                                X             Y             Z
Electronic contribution:      0.00000      -0.00000       0.00000
Nuclear contribution   :      0.00000       0.00000       0.00000
                        -----------------------------------------
Total Dipole Moment    :      0.00000      -0.00000       0.00000
                        -----------------------------------------
Magnitude (a.u.)       :      0.00000
Magnitude (Debye)      :      0.00000



--------------------
Rotational spectrum 
--------------------
 
Rotational constants in cm-1:     0.000000     0.000000     0.000000 
Rotational constants in MHz :     0.000000     0.000000     0.000000 

 Dipole components along the rotational axes: 
x,y,z [a.u.] :     0.000000    -0.000000     0.000000 
x,y,z [Debye]:     0.000000    -0.000000     0.000000 

 

Timings for individual modules:

Sum of individual times         ...       21.365 sec (=   0.356 min)
GTO integral calculation        ...        0.863 sec (=   0.014 min)   4.0 %
SCF iterations                  ...       14.591 sec (=   0.243 min)  68.3 %
MDCI module                     ...        5.911 sec (=   0.099 min)  27.7 %
                             ****ORCA TERMINATED NORMALLY****
TOTAL RUN TIME: 0 days 0 hours 0 minutes 22 seconds 48 msec
