
                                 *****************
                                 * O   R   C   A *
                                 *****************

           --- An Ab Initio, DFT and Semiempirical electronic structure package ---

                  #######################################################
                  #                        -***-                        #
                  #          Department of theory and spectroscopy      #
                  #               Directorship: Frank Neese             #
                  #        Max Planck Institute fuer Kohlenforschung    #
                  #                Kaiser Wilhelm Platz 1               #
                  #                 D-45470 Muelheim/Ruhr               #
                  #                      Germany                        #
                  #                                                     #
                  #                  All rights reserved                #
                  #                        -***-                        #
                  #######################################################


                         Program Version 4.2.0 -  RELEASE  -


 With contributions from (in alphabetic order):
   Daniel Aravena         : Magnetic Suceptibility
   Michael Atanasov       : Ab Initio Ligand Field Theory (pilot matlab implementation)
   Alexander A. Auer      : GIAO ZORA, VPT2
   Ute Becker             : Parallelization
   Giovanni Bistoni       : ED, misc. LED, open-shell LED, HFLED
   Martin Brehm           : Molecular dynamics
   Dmytro Bykov           : SCF Hessian
   Vijay G. Chilkuri      : MRCI spin determinant printing, contributions to CSF-ICE
   Dipayan Datta          : RHF DLPNO-CCSD density
   Achintya Kumar Dutta   : EOM-CC, STEOM-CC
   Dmitry Ganyushin       : Spin-Orbit,Spin-Spin,Magnetic field MRCI
   Miquel Garcia          : C-PCM Hessian, Gaussian charge scheme
   Yang Guo               : DLPNO-NEVPT2, CIM, IAO-localization
   Andreas Hansen         : Spin unrestricted coupled pair/coupled cluster methods
   Benjamin Helmich-Paris : CASSCF linear response (MC-RPA)
   Lee Huntington         : MR-EOM, pCC
   Robert Izsak           : Overlap fitted RIJCOSX, COSX-SCS-MP3, EOM
   Christian Kollmar      : KDIIS, OOCD, Brueckner-CCSD(T), CCSD density
   Simone Kossmann        : Meta GGA functionals, TD-DFT gradient, OOMP2, MP2 Hessian
   Martin Krupicka        : AUTO-CI
   Lucas Lang             : DCDCAS
   Dagmar Lenk            : GEPOL surface, SMD
   Dimitrios Liakos       : Extrapolation schemes; Compound Job, initial MDCI parallelization
   Dimitrios Manganas     : Further ROCIS development; embedding schemes
   Dimitrios Pantazis     : SARC Basis sets
   Taras Petrenko         : DFT Hessian,TD-DFT gradient, ASA, ECA, R-Raman, ABS, FL, XAS/XES, NRVS
   Peter Pinski           : DLPNO-MP2, DLPNO-MP2 Gradient
   Christoph Reimann      : Effective Core Potentials
   Marius Retegan         : Local ZFS, SOC
   Christoph Riplinger    : Optimizer, TS searches, QM/MM, DLPNO-CCSD(T), (RO)-DLPNO pert. Triples
   Tobias Risthaus        : Range-separated hybrids, TD-DFT gradient, RPA, STAB
   Michael Roemelt        : Original ROCIS implementation
   Masaaki Saitow         : Open-shell DLPNO-CCSD energy and density
   Barbara Sandhoefer     : DKH picture change effects
   Avijit Sen             : IP-ROCIS
   Kantharuban Sivalingam : CASSCF convergence, NEVPT2, FIC-MRCI
   Bernardo de Souza      : ESD, SOC TD-DFT
   Georgi Stoychev        : AutoAux, RI-MP2 NMR
   Willem Van den Heuvel  : Paramagnetic NMR
   Boris Wezisla          : Elementary symmetry handling
   Frank Wennmohs         : Technical directorship


 We gratefully acknowledge several colleagues who have allowed us to
 interface, adapt or use parts of their codes:
   Stefan Grimme, W. Hujo, H. Kruse,             : VdW corrections, initial TS optimization,
                  C. Bannwarth                     DFT functionals, gCP, sTDA/sTD-DF
   Ed Valeev, F. Pavosevic, A. Kumar             : LibInt (2-el integral package), F12 methods
   Garnet Chan, S. Sharma, J. Yang, R. Olivares  : DMRG
   Ulf Ekstrom                                   : XCFun DFT Library
   Mihaly Kallay                                 : mrcc  (arbitrary order and MRCC methods)
   Andreas Klamt, Michael Diedenhofen            : otool_cosmo (COSMO solvation model)
   Jiri Pittner, Ondrej Demel                    : Mk-CCSD
   Frank Weinhold                                : gennbo (NPA and NBO analysis)
   Christopher J. Cramer and Donald G. Truhlar   : smd solvation model
   Lars Goerigk                                  : TD-DFT with DH, B97 family of functionals
   V. Asgeirsson, H. Jonsson                     : NEB implementation
   FAccTs GmbH                                   : IRC, NEB, NEB-TS, Multilevel, MM, QM/MM, CI optimization
   S Lehtola, MJT Oliveira, MAL Marques          : LibXC Library


 Your calculation uses the libint2 library for the computation of 2-el integrals
 For citations please refer to: http://libint.valeyev.net

 Your ORCA version has been built with support for libXC version: 4.2.3
 For citations please refer to: https://tddft.org/programs/libxc/

 This ORCA versions uses:
   CBLAS   interface :  Fast vector & matrix operations
   LAPACKE interface :  Fast linear algebra routines
   SCALAPACK package :  Parallel linear algebra routines


----- Orbital basis set information -----
Your calculation utilizes the basis: def2-SVP
   F. Weigend and R. Ahlrichs, Phys. Chem. Chem. Phys. 7, 3297 (2005).

----- AuxJ basis set information -----
Your calculation utilizes the auxiliary basis: def2/J
   F. Weigend, Phys. Chem. Chem. Phys. 8, 1057 (2006).

================================================================================
                                        WARNINGS
                       Please study these warnings very carefully!
================================================================================


INFO   : the flag for use of LIBINT has been found!

================================================================================
                                       INPUT FILE
================================================================================
NAME = 57_La_atom57.inp
|  1> # input to generate an atomic fitting density for La
|  2> # this file is use internally by ORCA
|  3> #
|  4> # atomic ground state (S=2): 1s2 2s2 2p6 3s2 3p6 4s2 3d10 4p6 5s2 4d10 5p6 6s2 5d1 
|  5> #
|  6> ! RHF AllowRHF def2-SVP def2/J  NoMulliken NoLoewdin NoMayer NoPrintMOs 
|  7> 
|  8> %output print[p_atomdensfit] 2 end
|  9> 
| 10> %scf
| 11>   guess hcore
| 12>   maxiter 1000
| 13>   maxdisk 500000
| 14>   SCFMode Conventional
| 15>   lshift 0.100000
| 16>   hftyp rohf
| 17>   rohf_case sahf
| 18>   rohf_numop   2
| 19>   rohf_norb[1] 5
| 20>   rohf_nel[1]  1
| 21> end
| 22> 
| 23> %basis
| 24>   NewECP 57
| 25>     N_core 46
| 26>     lmax f
| 27>     s 3
| 28>       1       3.3099000000     91.9321770000  2
| 29>       2       1.6550000000     -3.7887640000  2
| 30>       3       4.0286000000     36.0100160000  2
| 31>     p 3
| 32>       1       2.8368000000     63.7594860000  2
| 33>       2       1.4184000000     -0.6479580000  2
| 34>       3       4.0286000000     36.0100160000  2
| 35>     d 3
| 36>       1       2.0213000000     36.1161730000  2
| 37>       2       1.0107000000      0.2191140000  2
| 38>       3       4.0286000000     36.0100160000  2
| 39>     f 1
| 40>       1       4.0286000000    -36.0100160000  2
| 41>   end
| 42>   NewGTO 57
| 43>     s 2 
| 44>      1       5.0873990000     -1.0479303431
| 45>      2       4.2709780000      2.0356668806
| 46>     s 1 
| 47>      1       2.1823656045      1.0000000000
| 48>     s 1 
| 49>      1       0.4896653378      1.0000000000
| 50>     s 1 
| 51>      1       0.2330167535      1.0000000000
| 52>     s 1 
| 53>      1       0.0557195231      1.0000000000
| 54>     s 1 
| 55>      1       0.0228547088      1.0000000000
| 56>     p 4 
| 57>      1       6.0000000000     -0.0332796858
| 58>      2       3.6808191615      0.4284807406
| 59>      3       2.3265462081     -1.0389154466
| 60>      4       0.6434262963      1.3382857902
| 61>     p 1 
| 62>      1       0.3358428196      1.0000000000
| 63>     p 1 
| 64>      1       0.1651905192      1.0000000000
| 65>     p 1 
| 66>      1       0.0354000000      1.0000000000
| 67>     d 3 
| 68>      1       1.2675288018     -0.3307279350
| 69>      2       0.8939534028      0.4732395193
| 70>      3       0.3309576734      0.8396218523
| 71>     d 1 
| 72>      1       0.1346137750      1.0000000000
| 73>     d 1 
| 74>      1       0.0514416298      1.0000000000
| 75>     f 1 
| 76>      1       0.3894100000      1.0000000000
| 77>     f 1 
| 78>      1       0.1204300000      1.0000000000
| 79>     p 1 
| 80>      1       0.0205732215      1.0000000000
| 81>   end
| 82>   NewAuxGTO 57
| 83>     S 1
| 84>      1 1310.72 1.0
| 85>     S 1
| 86>      1  655.36 1.0
| 87>     S 1
| 88>      1  327.68 1.0
| 89>     S 1
| 90>      1  163.84 1.0
| 91>     S 1
| 92>      1   81.82 1.0
| 93>     S 1
| 94>      1   40.96 1.0
| 95>     S 1
| 96>      1   20.48 1.0
| 97>     S 1
| 98>      1   10.24 1.0
| 99>     S 1
|100>      1    5.12 1.0
|101>     S 1
|102>      1    2.56 1.0
|103>     S 1
|104>      1    1.28 1.0
|105>     S 1
|106>      1    0.64 1.0
|107>     S 1
|108>      1    0.32 1.0
|109>     S 1
|110>      1    0.16 1.0
|111>     S 1
|112>      1    0.08 1.0
|113>     S 1
|114>      1    0.04 1.0
|115>     S 1
|116>      1    0.02 1.0
|117>     S 1
|118>      1    0.01 1.0
|119>   end
|120> end
|121> 
|122> * xyz 0 2
|123> 57  0.0 0.0 0.0
|124> *
|125> 
|126> 
|127>                          ****END OF INPUT****
================================================================================

                       ****************************
                       * Single Point Calculation *
                       ****************************

---------------------------------
CARTESIAN COORDINATES (ANGSTROEM)
---------------------------------
  La     0.000000    0.000000    0.000000

----------------------------
CARTESIAN COORDINATES (A.U.)
----------------------------
  NO LB      ZA    FRAG     MASS         X           Y           Z
   0 La   11.0000*   0   138.905    0.000000    0.000000    0.000000
* core charge reduced due to ECP

--------------------------------
INTERNAL COORDINATES (ANGSTROEM)
--------------------------------
 La     0   0   0     0.000000000000     0.00000000     0.00000000

---------------------------
INTERNAL COORDINATES (A.U.)
---------------------------
 La     0   0   0     0.000000000000     0.00000000     0.00000000

---------------------
BASIS SET INFORMATION
---------------------
There are 1 groups of distinct atoms

 Group   1 Type La  : 7s8p5d2f contracted to 6s5p3d2f pattern {211111/41111/311/11}

Atom   0La   basis set group =>   1
---------------------------------
AUXILIARY/J BASIS SET INFORMATION
---------------------------------
There are 1 groups of distinct atoms

 Group   1 Type La  : 18s contracted to 18s pattern {111111111111111111}

Atom   0La   basis set group =>   1
-------------------------
ECP PARAMETER INFORMATION
-------------------------

 Group 1, Type La ECP (replacing 46 core electrons, lmax=3)

Atom   0La   ECP group =>   1

------------------------------------------------------------------------------
                           ORCA GTO INTEGRAL CALCULATION
------------------------------------------------------------------------------

                         BASIS SET STATISTICS AND STARTUP INFO

 # of primitive gaussian shells          ...   22
 # of primitive gaussian functions       ...   70
 # of contracted shells                  ...   16
 # of contracted basis functions         ...   50
 Highest angular momentum                ...    3
 Maximum contraction depth               ...    4
 Integral package used                   ... LIBINT
 Integral threshhold            Thresh   ...  1.000e-10
 Primitive cut-off              TCut     ...  1.000e-11
 Storage cut-off                TCutStore... -1.000e+00
 Buffer length                           ... 1048576 integrals/buffer
 Generate file with integrals 4 distinct ...false


------------------------------ INTEGRAL EVALUATION ----------------------------


 * One electron integrals 

   ECP integrals                         ... done
 Pre-screening matrix                    ... done
 Shell pair data                         ... done (   0.000 sec)
 Statistics run                          ... done
 Maximum amount of storage needed        ...     9 MB
 Maximum amount of storage dedicated     ... 500000 MB
 Beginning two electron integral evaluation:
 Starting repulsion integrals
  <ss|ss>  ...          231 b.         0 skpd (  0.0%)     0.000 s. (  0.000 ms/b)
  <ss|sp>  ...          630 b.         0 skpd (  0.0%)     0.000 s. (  0.000 ms/b)
  <ss|sd>  ...          378 b.         0 skpd (  0.0%)     0.000 s. (  0.000 ms/b)
  <ss|sf>  ...          252 b.         0 skpd (  0.0%)     0.000 s. (  0.000 ms/b)
  <ss|pp>  ...          315 b.         0 skpd (  0.0%)     0.000 s. (  0.000 ms/b)
  <ss|pd>  ...          315 b.         0 skpd (  0.0%)     0.000 s. (  0.001 ms/b)
  <ss|pf>  ...          210 b.         0 skpd (  0.0%)     0.000 s. (  0.001 ms/b)
  <ss|dd>  ...          126 b.         0 skpd (  0.0%)     0.000 s. (  0.001 ms/b)
  <ss|df>  ...          126 b.         0 skpd (  0.0%)     0.000 s. (  0.001 ms/b)
  <ss|ff>  ...           63 b.         0 skpd (  0.0%)     0.000 s. (  0.001 ms/b)
  <sp|sp>  ...          465 b.         0 skpd (  0.0%)     0.000 s. (  0.000 ms/b)
  <sp|sd>  ...          540 b.         0 skpd (  0.0%)     0.000 s. (  0.001 ms/b)
  <sp|sf>  ...          360 b.         0 skpd (  0.0%)     0.000 s. (  0.001 ms/b)
  <sp|pp>  ...          450 b.         0 skpd (  0.0%)     0.000 s. (  0.001 ms/b)
  <sp|pd>  ...          450 b.         0 skpd (  0.0%)     0.001 s. (  0.002 ms/b)
  <sp|pf>  ...          300 b.         0 skpd (  0.0%)     0.001 s. (  0.002 ms/b)
  <sp|dd>  ...          180 b.         0 skpd (  0.0%)     0.001 s. (  0.003 ms/b)
  <sp|df>  ...          180 b.         0 skpd (  0.0%)     0.001 s. (  0.003 ms/b)
  <sp|ff>  ...           90 b.         0 skpd (  0.0%)     0.000 s. (  0.004 ms/b)
  <sd|sd>  ...          171 b.         0 skpd (  0.0%)     0.000 s. (  0.001 ms/b)
  <sd|sf>  ...          216 b.         0 skpd (  0.0%)     0.000 s. (  0.001 ms/b)
  <sd|pp>  ...          270 b.         0 skpd (  0.0%)     0.001 s. (  0.002 ms/b)
  <sd|pd>  ...          270 b.         0 skpd (  0.0%)     0.001 s. (  0.004 ms/b)
  <sd|pf>  ...          180 b.         0 skpd (  0.0%)     0.001 s. (  0.004 ms/b)
  <sd|dd>  ...          108 b.         0 skpd (  0.0%)     0.001 s. (  0.007 ms/b)
  <sd|df>  ...          108 b.         0 skpd (  0.0%)     0.001 s. (  0.008 ms/b)
  <sd|ff>  ...           54 b.         0 skpd (  0.0%)     0.001 s. (  0.010 ms/b)
  <sf|sf>  ...           78 b.         0 skpd (  0.0%)     0.000 s. (  0.002 ms/b)
  <sf|pp>  ...          180 b.         0 skpd (  0.0%)     0.000 s. (  0.003 ms/b)
  <sf|pd>  ...          180 b.         0 skpd (  0.0%)     0.001 s. (  0.005 ms/b)
  <sf|pf>  ...          120 b.         0 skpd (  0.0%)     0.001 s. (  0.006 ms/b)
  <sf|dd>  ...           72 b.         0 skpd (  0.0%)     0.001 s. (  0.010 ms/b)
  <sf|df>  ...           72 b.         0 skpd (  0.0%)     0.001 s. (  0.012 ms/b)
  <sf|ff>  ...           36 b.         0 skpd (  0.0%)     0.001 s. (  0.015 ms/b)
  <pp|pp>  ...          120 b.         0 skpd (  0.0%)     0.000 s. (  0.003 ms/b)
  <pp|pd>  ...          225 b.         0 skpd (  0.0%)     0.001 s. (  0.006 ms/b)
  <pp|pf>  ...          150 b.         0 skpd (  0.0%)     0.001 s. (  0.006 ms/b)
  <pp|dd>  ...           90 b.         0 skpd (  0.0%)     0.001 s. (  0.011 ms/b)
  <pp|df>  ...           90 b.         0 skpd (  0.0%)     0.001 s. (  0.012 ms/b)
  <pp|ff>  ...           45 b.         0 skpd (  0.0%)     0.001 s. (  0.015 ms/b)
  <pd|pd>  ...          120 b.         0 skpd (  0.0%)     0.001 s. (  0.012 ms/b)
  <pd|pf>  ...          150 b.         0 skpd (  0.0%)     0.002 s. (  0.012 ms/b)
  <pd|dd>  ...           90 b.         0 skpd (  0.0%)     0.002 s. (  0.023 ms/b)
  <pd|df>  ...           90 b.         0 skpd (  0.0%)     0.002 s. (  0.027 ms/b)
  <pd|ff>  ...           45 b.         0 skpd (  0.0%)     0.001 s. (  0.033 ms/b)
  <pf|pf>  ...           55 b.         0 skpd (  0.0%)     0.001 s. (  0.017 ms/b)
  <pf|dd>  ...           60 b.         0 skpd (  0.0%)     0.002 s. (  0.030 ms/b)
  <pf|df>  ...           60 b.         0 skpd (  0.0%)     0.002 s. (  0.037 ms/b)
  <pf|ff>  ...           30 b.         0 skpd (  0.0%)     0.001 s. (  0.048 ms/b)
  <dd|dd>  ...           21 b.         0 skpd (  0.0%)     0.001 s. (  0.056 ms/b)
  <dd|df>  ...           36 b.         0 skpd (  0.0%)     0.002 s. (  0.062 ms/b)
  <dd|ff>  ...           18 b.         0 skpd (  0.0%)     0.001 s. (  0.077 ms/b)
  <df|df>  ...           21 b.         0 skpd (  0.0%)     0.002 s. (  0.081 ms/b)
  <df|ff>  ...           18 b.         0 skpd (  0.0%)     0.002 s. (  0.104 ms/b)
  <ff|ff>  ...            6 b.         0 skpd (  0.0%)     0.001 s. (  0.164 ms/b)


                                      INTEGRAL STATISTICS

Integral type statistics:
 Number of integrals retained            ...     813450 
 One   Center Integrals retained         ...     813450 (100.0%)
 Two   Center Integrals retained         ...          0 (  0.0%)
 Three Center Integrals retained         ...          0 (  0.0%)
 Four  Center Integrals retained         ...          0 (  0.0%)

Storage statistics:
 Number of char integrals                ...          0 (  0.0%)
 Number of short int integrals           ...          0 (  0.0%)
 Number of double/float integrals        ...     813450 (100.0%)
 Amount of memory used                   ...         10 MB
 Amount of memory estimated              ...          9 MB ( 94.8%)

Prescreening statistics:
 Total number of shell quadruples        ...       9316 
 Number of skipped shell quadruples      ...          0 (  0.0%)
 # of negligible batches done            ...          0 (  0.0%)

Timings:
 Total evaluation time               ...     0.225 sec (   0.004 min)
 One electron matrix time            ...     0.023 sec (   0.000 min) = 10.1%
 Schwartz matrix evaluation time     ...     0.073 sec (   0.001 min) = 32.2%
 Statistics run                      ...     0.006 sec (   0.000 min) =  2.6%
 Repulsion integral time             ...     0.045 sec (   0.001 min) = 19.9%

-------------------------------------------------------------------------------
                                 ORCA SCF
-------------------------------------------------------------------------------

------------
SCF SETTINGS
------------
Hamiltonian:
 Ab initio Hamiltonian  Method          .... Hartree-Fock(GTOs)


General Settings:
 Integral files         IntName         .... 57_La_atom57
 Hartree-Fock type      HFTyp           .... ROHF
 Total Charge           Charge          ....    0
 Multiplicity           Mult            ....    2
 Number of Electrons    NEL             ....   11
 Basis Dimension        Dim             ....   50
 Nuclear Repulsion      ENuc            ....      0.0000000000 Eh

Convergence Acceleration:
 DIIS                   CNVDIIS         .... on
   Start iteration      DIISMaxIt       ....    12
   Startup error        DIISStart       ....  0.200000
   # of expansion vecs  DIISMaxEq       ....     5
   Bias factor          DIISBfac        ....   1.050
   Max. coefficient     DIISMaxC        ....  10.000
 Newton-Raphson         CNVNR           .... off
 SOSCF                  CNVSOSCF        .... off
 Level Shifting         CNVShift        .... on
   Level shift para.    LevelShift      ....    0.1000
   Turn off err/grad.   ShiftErr        ....    0.0010
 Zerner damping         CNVZerner       .... off
 Static damping         CNVDamp         .... on
   Fraction old density DampFac         ....    0.7000
   Max. Damping (<1)    DampMax         ....    0.9800
   Min. Damping (>=0)   DampMin         ....    0.0000
   Turn off err/grad.   DampErr         ....    0.1000
 Fernandez-Rico         CNVRico         .... off

SCF Procedure:
 Maximum # iterations   MaxIter         ....  1000
 SCF integral mode      SCFMode         .... Conventional
 Integral Threshold     Thresh          ....  1.000e-10 Eh
 Primitive CutOff       TCut            ....  1.000e-11 Eh
 Integral Buffer length BufferLength    .... 1048576
 Integral index format  IndFormat       ....     0
 Integral value format  ValFormat       ....     0
 Integral Storage       Thresh          ....  1.000e-10 Eh

Convergence Tolerance:
 Convergence Check Mode ConvCheckMode   .... Total+1el-Energy
 Convergence forced     ConvForced      .... 0
 Energy Change          TolE            ....  1.000e-06 Eh
 1-El. energy change                    ....  1.000e-03 Eh
 DIIS Error             TolErr          ....  1.000e-06


Diagonalization of the overlap matrix:
Smallest eigenvalue                        ... 1.027e-02
Time for diagonalization                   ...    0.001 sec
Threshold for overlap eigenvalues          ... 1.000e-08
Number of eigenvalues below threshold      ... 0
Time for construction of square roots      ...    0.002 sec
Total time needed                          ...    0.003 sec

--------------------
INITIAL GUESS: HCORE
--------------------
AVERAGE-CONFIGURATION (SAHF) CASE FOUND

-------------------
FINAL ROHF SETTINGS
-------------------
Number of operators             ... 2
  operator   0:   5 orbitals  10 electrons n(mue)= 2.000
  operator   1:   5 orbitals   1 electrons n(mue)= 0.200
Vector coupling coefficients a and b (Zerner convention):
   1.000    1.000           1.000    1.000 
   1.000    0.000           1.000    0.000 

                      -----------------
                      INTIAL GUESS DONE 
                      -----------------

 InCore treatment chosen:
   Memory dedicated               ...    1024 MB
   Memory needed                  ...     10 MB
   Number of tiny    integrals    ...       0
   Number of small   integrals    ...       0
   Number of regular integrals    ...  813450

--------------
SCF ITERATIONS
--------------
ITER       Energy         Delta-E        Max-DP      RMS-DP      [F,P]     Damp
  0    -29.1302449098   0.000000000000 2.97393232  0.08964975  0.4261110 0.7000
                            ****Activating DIIS****
  1    -30.4031705183  -1.272925608422 6.93796419  0.20901162  0.0803380 0.0000
  2    -30.5303883609  -0.127217842603 0.13956626  0.00587871  0.1004332 0.7000
  3    -30.5737046944  -0.043316333530 4.98959059  0.14974960  0.0624574 0.0000
  4    -30.7184199829  -0.144715288520 0.40066625  0.01370458  0.0609428 0.0000
  5    -30.7572533543  -0.038833371328 0.56857647  0.01759740  0.0453384 0.0000
  6    -30.7871724776  -0.029919123305 0.55570793  0.01648694  0.0228268 0.0000
  7    -30.8013474373  -0.014174959764 0.42567993  0.01209444  0.0107265 0.0000
  8    -30.8094484253  -0.008100987954 0.36629319  0.00964816  0.0101229 0.0000
  9    -30.8161344632  -0.006686037877 0.24564844  0.00614741  0.0093814 0.0000
 10    -30.8206222949  -0.004487831757 0.01552638  0.00046149  0.0087507 0.0000
 11    -30.8207927853  -0.000170490398 0.02903687  0.00070008  0.0087158 0.0000
 12    -30.8202257877   0.000566997635 0.00258822  0.00006188  0.0087859 0.0000
 13    -30.8202781210  -0.000052333363 0.06756002  0.00172209  0.0087791 0.0000
 14    -30.8215567087  -0.001278587633 0.07993963  0.00196889  0.0085745 0.0000
 15    -30.8230057896  -0.001449080930 0.09168640  0.00230362  0.0083209 0.0000
 16    -30.8212853748   0.001720414819 0.01808141  0.00049220  0.0086132 0.0000
 17    -30.8215930468  -0.000307672021 0.04165753  0.00104008  0.0085501 0.0000
 18    -30.8223521178  -0.000759070986 0.07138060  0.00177820  0.0084161 0.0000
 19    -30.8236685503  -0.001316432563 0.07394525  0.00187063  0.0081745 0.0000
 20    -30.8223352733   0.001333277062 0.01334338  0.00033953  0.0084317 0.0000
 21    -30.8220791922   0.000256081040 0.03280520  0.00081983  0.0084741 0.0000
 22    -30.8226700887  -0.000590896455 0.03750311  0.00091695  0.0083656 0.0000
 23    -30.8233587669  -0.000688678207 0.02233260  0.00054181  0.0082411 0.0000
 24    -30.8237710991  -0.000412332174 0.01528545  0.00041408  0.0081656 0.0000
 25    -30.8240140545  -0.000242955464 0.01513164  0.00039173  0.0081083 0.0000
 26    -30.8237932146   0.000220839918 0.07528227  0.00186999  0.0081594 0.0000
 27    -30.8251650416  -0.001371826982 0.07010157  0.00165810  0.0078810 0.0000
 28    -30.8239137723   0.001251269320 0.02921640  0.00075329  0.0081349 0.0000
 29    -30.8244570366  -0.000543264307 0.03155108  0.00081204  0.0080270 0.0000
 30    -30.8250364377  -0.000579401151 0.02534532  0.00058278  0.0079049 0.0000
 31    -30.8254908089  -0.000454371162 0.00495171  0.00011936  0.0078116 0.0000
 32    -30.8255755426  -0.000084733731 0.00981122  0.00021180  0.0077915 0.0000
 33    -30.8254139639   0.000161578792 0.07959731  0.00198805  0.0078285 0.0000
 34    -30.8268741297  -0.001460165875 0.14252844  0.00362241  0.0080833 0.0000
 35    -30.8242446983   0.002629431403 0.05306113  0.00142927  0.0080712 0.0000
 36    -30.8232610285   0.000983669830 0.09630660  0.00257900  0.0082658 0.0000
 37    -30.8214925940   0.001768434505 0.10190285  0.00280622  0.0085879 0.0000
 38    -30.8196312591   0.001861334894 0.07604507  0.00218556  0.0088957 0.0000
 39    -30.8182430122   0.001388246893 0.05046205  0.00131511  0.0091065 0.0000
 40    -30.8176022093   0.000640802859 0.05942695  0.00158713  0.0092011 0.0000
 41    -30.8167950125   0.000807196878 0.06027333  0.00147348  0.0093125 0.0000
 42    -30.8162963247   0.000498687781 0.08952786  0.00216386  0.0093738 0.0000
 43    -30.8158992490   0.000397075686 0.18786720  0.00469729  0.0093994 0.0000
 44    -30.8151839752   0.000715273829 0.28883566  0.00769322  0.0093692 0.0000
 45    -30.8138571869   0.001326788248 0.14199730  0.00300250  0.0091819 0.0000
 46    -30.8145911199  -0.000733932995 0.07359470  0.00199408  0.0088267 0.0000
 47    -30.8155846745  -0.000993554572 0.07032577  0.00181585  0.0087238 0.0000
 48    -30.8163590758  -0.000774401330 0.06518700  0.00177793  0.0086847 0.0000
 49    -30.8167331433  -0.000374067460 0.02701209  0.00058321  0.0087558 0.0000
 50    -30.8168676061  -0.000134462806 0.13001242  0.00350686  0.0086818 0.0000
 51    -30.8189209284  -0.002053322353 0.25351201  0.00766260  0.0082824 0.0000
 52    -30.8146051648   0.004315763650 0.05316592  0.00102636  0.0089915 0.0000
 53    -30.8141175206   0.000487644194 0.04618566  0.00094230  0.0091256 0.0000
 54    -30.8136242998   0.000493220810 0.01804615  0.00054227  0.0092378 0.0000
 55    -30.8133637349   0.000260564891 0.00771719  0.00017027  0.0092733 0.0000
 56    -30.8134752225  -0.000111487574 0.23217434  0.00679870  0.0092551 0.0000
 57    -30.8173102744  -0.003835051912 0.22885885  0.00634424  0.0086340 0.0000
 58    -30.8136905185   0.003619755867 0.08958630  0.00268047  0.0092461 0.0000
 59    -30.8152085033  -0.001517984807 0.05773043  0.00138249  0.0090526 0.0000
 60    -30.8159983890  -0.000789885708 0.05355189  0.00162248  0.0089009 0.0000
 61    -30.8169109721  -0.000912583026 0.05735676  0.00171505  0.0087513 0.0000
 62    -30.8178676071  -0.000956635075 0.10319537  0.00281914  0.0085942 0.0000
 63    -30.8163163896   0.001551217549 0.20048540  0.00608114  0.0088876 0.0000
 64    -30.8198227824  -0.003506392830 0.35403734  0.01049859  0.0082888 0.0000
 65    -30.8138281094   0.005994673029 0.03610159  0.00110511  0.0091977 0.0000
 66    -30.8132400890   0.000588020355 0.00370051  0.00012166  0.0092748 0.0000
 67    -30.8132968199  -0.000056730908 0.00602679  0.00017069  0.0092727 0.0000
 68    -30.8133901456  -0.000093325675 0.08622154  0.00266858  0.0092638 0.0000
 69    -30.8148888341  -0.001498688482 0.08154496  0.00241031  0.0090473 0.0000
 70    -30.8161859361  -0.001297102058 0.04067096  0.00120481  0.0088628 0.0000
 71    -30.8155447056   0.000641230541 0.07254936  0.00214283  0.0089567 0.0000
 72    -30.8167351564  -0.001190450755 0.05417904  0.00157541  0.0087828 0.0000
 73    -30.8158672404   0.000867915914 0.12555643  0.00373267  0.0089072 0.0000
 74    -30.8179661546  -0.002098914165 0.08563097  0.00258127  0.0085799 0.0000
 75    -30.8164944222   0.001471732367 0.00612605  0.00018772  0.0088181 0.0000
 76    -30.8166087850  -0.000114362722 0.05142090  0.00149950  0.0088029 0.0000
 77    -30.8174466454  -0.000837860417 0.01973535  0.00057787  0.0086761 0.0000
 78    -30.8177731951  -0.000326549760 0.07500617  0.00215747  0.0086244 0.0000
 79    -30.8189894037  -0.001216208518 0.11434914  0.00322403  0.0084284 0.0000
 80    -30.8172098662   0.001779537509 0.08656526  0.00249631  0.0086996 0.0000
 81    -30.8186395056  -0.001429639428 0.06488998  0.00183710  0.0084784 0.0000
 82    -30.8196459350  -0.001006429410 0.08261445  0.00235193  0.0083095 0.0000
 83    -30.8183183122   0.001327622757 0.04647228  0.00136888  0.0085278 0.0000
 84    -30.8191202942  -0.000801981934 0.02473365  0.00072885  0.0083932 0.0000
 85    -30.8195624409  -0.000442146776 0.11090769  0.00306513  0.0083184 0.0000
 86    -30.8212698776  -0.001707436650 0.25010207  0.00700064  0.0080247 0.0000
 87    -30.8173486785   0.003921199087 0.07285613  0.00203619  0.0086625 0.0000
 88    -30.8163110853   0.001037593246 0.07493080  0.00225971  0.0088076 0.0000
 89    -30.8177052853  -0.001394200041 0.00511670  0.00018482  0.0086000 0.0000
 90    -30.8175346614   0.000170623891 0.00172460  0.00004002  0.0086179 0.0000
 91    -30.8175510372  -0.000016375817 0.11786180  0.00328837  0.0086127 0.0000
 92    -30.8192605454  -0.001709508138 0.08362231  0.00238448  0.0083438 0.0000
 93    -30.8206486813  -0.001388135921 0.10433168  0.00287520  0.0081020 0.0000
 94    -30.8191108253   0.001537856028 0.00534425  0.00015572  0.0083606 0.0000
 95    -30.8190531321   0.000057693202 0.04996499  0.00139815  0.0083735 0.0000
 96    -30.8198023999  -0.000749267857 0.08436013  0.00233139  0.0082464 0.0000
 97    -30.8210905399  -0.001288140017 0.01450101  0.00044195  0.0080229 0.0000
 98    -30.8214857328  -0.000395192910 0.15967776  0.00449960  0.0079668 0.0000
 99    -30.8187163616   0.002769371277 0.05229647  0.00151428  0.0084070 0.0000
100    -30.8195809638  -0.000864602259 0.08475710  0.00236937  0.0082569 0.0000
101    -30.8209225265  -0.001341562628 0.00467205  0.00012279  0.0080223 0.0000
102    -30.8208576045   0.000064921980 0.00978402  0.00027697  0.0080310 0.0000
103    -30.8206978978   0.000159706636 0.02122535  0.00059931  0.0080606 0.0000
104    -30.8203693622   0.000328535640 0.11242489  0.00312002  0.0081184 0.0000
105    -30.8221457384  -0.001776376220 0.12721272  0.00351491  0.0077902 0.0000
106    -30.8201513206   0.001994417817 0.05097760  0.00139956  0.0081525 0.0000
107    -30.8193821329   0.000769187737 0.07881450  0.00217521  0.0082773 0.0000
108    -30.8182204467   0.001161686196 0.04645668  0.00127018  0.0084574 0.0000
109    -30.8176199943   0.000600452349 0.05582162  0.00160961  0.0085446 0.0000
110    -30.8185597510  -0.000939756675 0.17000750  0.00470645  0.0083989 0.0000
111    -30.8210750170  -0.002515265972 0.30542494  0.00859432  0.0079680 0.0000
112    -30.8163393857   0.004735631286 0.07547958  0.00209802  0.0087340 0.0000
113    -30.8153258949   0.001013490787 0.03990666  0.00123457  0.0088655 0.0000
114    -30.8160926177  -0.000766722780 0.06921247  0.00195787  0.0087503 0.0000
115    -30.8170981061  -0.001005488439 0.01514749  0.00045037  0.0086062 0.0000
116    -30.8168523054   0.000245800717 0.09514498  0.00267752  0.0086452 0.0000
117    -30.8182365693  -0.001384263920 0.04859899  0.00147503  0.0084347 0.0000
118    -30.8192311517  -0.000994582347 0.16560633  0.00471949  0.0082763 0.0000
119    -30.8164963821   0.002734769601 0.10454637  0.00298442  0.0086788 0.0000
120    -30.8181189883  -0.001622606219 0.01144915  0.00033162  0.0084316 0.0000
121    -30.8182918892  -0.000172900890 0.06383806  0.00180611  0.0084013 0.0000
122    -30.8192861172  -0.000994228075 0.02631293  0.00072923  0.0082359 0.0000
123    -30.8191074349   0.000178682386 0.01268562  0.00042108  0.0082725 0.0000
124    -30.8187491933   0.000358241583 0.14491980  0.00402233  0.0083182 0.0000
125    -30.8209816328  -0.002232439515 0.14529410  0.00400648  0.0079389 0.0000
126    -30.8188147734   0.002166859418 0.09696077  0.00272227  0.0083059 0.0000
127    -30.8203458451  -0.001531071778 0.02595281  0.00072494  0.0080455 0.0000
128    -30.8207447767  -0.000398931548 0.02895895  0.00080613  0.0079735 0.0000
129    -30.8203208949   0.000423881818 0.11429783  0.00311559  0.0080528 0.0000
130    -30.8220554641  -0.001734569182 0.20789066  0.00565169  0.0077450 0.0000
131    -30.8191732476   0.002882216466 0.17060640  0.00468923  0.0082529 0.0000
132    -30.8216883338  -0.002515086257 0.00853039  0.00026864  0.0078145 0.0000
133    -30.8215256157   0.000162718193 0.03890485  0.00103427  0.0078411 0.0000
134    -30.8220999964  -0.000574380746 0.03928989  0.00111933  0.0077447 0.0000
135    -30.8228428337  -0.000742837346 0.33109846  0.00903327  0.0076130 0.0000
136    -30.8178006796   0.005042154115 0.06395927  0.00172866  0.0084369 0.0000
137    -30.8172707656   0.000529914080 0.03478528  0.00094991  0.0085111 0.0000
138    -30.8176753689  -0.000404603334 0.02910132  0.00079262  0.0084517 0.0000
139    -30.8173590548   0.000316314082 0.02450703  0.00067117  0.0085000 0.0000
140    -30.8170313048   0.000327750000 0.30983098  0.00843104  0.0085429 0.0000
141    -30.8213565447  -0.004325239872 0.03116795  0.00094335  0.0078838 0.0000
142    -30.8224188962  -0.001062351493 0.47134503  0.01313958  0.0077536 0.0000
143    -30.8144359937   0.007982902456 0.04622540  0.00143822  0.0088372 0.0000
144    -30.8152450163  -0.000809022557 0.05405923  0.00157809  0.0087042 0.0000
145    -30.8160828451  -0.000837828811 0.11218656  0.00316237  0.0085779 0.0000
146    -30.8177419782  -0.001659133164 0.06960820  0.00191409  0.0083307 0.0000
147    -30.8168264267   0.000915551551 0.02057516  0.00061395  0.0084625 0.0000
148    -30.8164628929   0.000363533775 0.07668561  0.00224564  0.0085166 0.0000
149    -30.8177142799  -0.001251386999 0.09289544  0.00255578  0.0083111 0.0000
150    -30.8190306768  -0.001316396846 0.13285811  0.00369489  0.0081065 0.0000
151    -30.8171426936   0.001887983119 0.07414751  0.00213225  0.0084070 0.0000
152    -30.8183671512  -0.001224457513 0.01229539  0.00036947  0.0082125 0.0000
153    -30.8184213986  -0.000054247469 0.14222927  0.00394756  0.0081950 0.0000
154    -30.8206287318  -0.002207333191 0.20365801  0.00566652  0.0078258 0.0000
155    -30.8175601382   0.003068593663 0.04461598  0.00132163  0.0083335 0.0000
156    -30.8184064124  -0.000846274262 0.08501031  0.00235557  0.0082016 0.0000
157    -30.8195717167  -0.001165304316 0.00792496  0.00022679  0.0079987 0.0000
158    -30.8194252654   0.000146451310 0.07375719  0.00203348  0.0080210 0.0000
159    -30.8205817789  -0.001156513486 0.18813099  0.00517868  0.0078281 0.0000
160    -30.8179201023   0.002661676609 0.15371639  0.00430061  0.0082720 0.0000
161    -30.8203621332  -0.002442030901 0.00508527  0.00030048  0.0078767 0.0000
162    -30.8200995633   0.000262569941 0.02826163  0.00077639  0.0078953 0.0000
163    -30.8205242075  -0.000424644217 0.04547570  0.00123896  0.0078206 0.0000
164    -30.8212471227  -0.000722915174 0.06227777  0.00167162  0.0076997 0.0000
165    -30.8204491026   0.000798020087 0.13343998  0.00360532  0.0078377 0.0000
166    -30.8223429815  -0.001893878916 0.28875838  0.00789702  0.0074857 0.0000
167    -30.8181092876   0.004233693904 0.10095426  0.00278088  0.0082238 0.0000
168    -30.8169512352   0.001158052380 0.09060183  0.00255724  0.0084124 0.0000
169    -30.8184006593  -0.001449424112 0.00508802  0.00021274  0.0082019 0.0000
170    -30.8183042685   0.000096390801 0.06667201  0.00185387  0.0081920 0.0000
171    -30.8193224322  -0.001018163664 0.02481088  0.00071180  0.0080355 0.0000
172    -30.8195307746  -0.000208342443 0.15732098  0.00433402  0.0079941 0.0000
173    -30.8222284467  -0.002697672042 0.42549565  0.01174074  0.0075589 0.0000
174    -30.8157385215   0.006489925180 0.02651176  0.00080132  0.0085474 0.0000
175    -30.8161674147  -0.000428893181 0.10566321  0.00299007  0.0084756 0.0000
176    -30.8177718071  -0.001604392477 0.03724619  0.00105591  0.0082383 0.0000
177    -30.8172105059   0.000561301254 0.06170898  0.00187129  0.0083266 0.0000
178    -30.8187627843  -0.001552278391 0.09074601  0.00285990  0.0081328 0.0000
179    -30.8164142043   0.002348579960 0.12754101  0.00364123  0.0084078 0.0000
180    -30.8183726699  -0.001958465559 0.02678101  0.00074094  0.0080877 0.0000
181    -30.8187516679  -0.000378998060 0.01426474  0.00039169  0.0080251 0.0000
182    -30.8185455725   0.000206095448 0.01837792  0.00052568  0.0080576 0.0000
183    -30.8188316826  -0.000286110090 0.03192562  0.00089641  0.0080055 0.0000
184    -30.8183588949   0.000472787711 0.19328408  0.00534387  0.0080873 0.0000
185    -30.8212795176  -0.002920622716 0.34804422  0.00966757  0.0075706 0.0000
186    -30.8161372008   0.005142316785 0.03057252  0.00090406  0.0084271 0.0000
187    -30.8166501511  -0.000512950323 0.03908903  0.00111954  0.0083447 0.0000
188    -30.8172440887  -0.000593937623 0.02766973  0.00078543  0.0082487 0.0000
189    -30.8176592077  -0.000415118960 0.09562673  0.00267896  0.0081808 0.0000
190    -30.8190900288  -0.001430821073 0.29883881  0.00844048  0.0079420 0.0000
191    -30.8146940681   0.004395960638 0.01681214  0.00040240  0.0086209 0.0000
192    -30.8149925684  -0.000298500308 0.06240669  0.00178990  0.0085673 0.0000
193    -30.8158768666  -0.000884298125 0.02394425  0.00069005  0.0084351 0.0000
194    -30.8162317900  -0.000354923405 0.00644638  0.00018897  0.0083795 0.0000
195    -30.8163287286  -0.000096938653 0.03026144  0.00083594  0.0083630 0.0000
196    -30.8166931771  -0.000364448497 0.16841082  0.00477841  0.0083129 0.0000
197    -30.8194244611  -0.002731283982 0.29450660  0.00830411  0.0078778 0.0000
198    -30.8149603082   0.004464152889 0.04274269  0.00123084  0.0085475 0.0000
199    -30.8155733988  -0.000613090540 0.04984983  0.00142834  0.0084555 0.0000
200    -30.8163021877  -0.000728788984 0.05837375  0.00165583  0.0083436 0.0000
201    -30.8171540960  -0.000851908266 0.08445291  0.00243586  0.0082097 0.0000
202    -30.8186080320  -0.001453935945 0.27021892  0.00771380  0.0079782 0.0000
203    -30.8144706294   0.004137402569 0.11363607  0.00328556  0.0086015 0.0000
204    -30.8161794594  -0.001708830012 0.05503273  0.00157387  0.0083470 0.0000
205    -30.8170021684  -0.000822708973 0.00843669  0.00025061  0.0082163 0.0000
206    -30.8171478959  -0.000145727501 0.01610718  0.00044087  0.0081874 0.0000
207    -30.8169372377   0.000210658195 0.06436754  0.00183746  0.0082165 0.0000
208    -30.8160172855   0.000919952178 0.20763957  0.00585665  0.0083626 0.0000
209    -30.8192034189  -0.003186133398 0.24141050  0.00679566  0.0078606 0.0000
210    -30.8154913568   0.003712062123 0.03101509  0.00093849  0.0084148 0.0000
211    -30.8160039650  -0.000512608237 0.01435101  0.00042587  0.0083256 0.0000
212    -30.8162303281  -0.000226363072 0.02702097  0.00077937  0.0082863 0.0000
213    -30.8166352993  -0.000404971203 0.13126318  0.00368949  0.0082201 0.0000
214    -30.8185529923  -0.001917693027 0.30318859  0.00859637  0.0079059 0.0000
215    -30.8141752282   0.004377764088 0.03725090  0.00118098  0.0085833 0.0000
216    -30.8148710627  -0.000695834475 0.06130622  0.00175909  0.0084684 0.0000
217    -30.8157475558  -0.000876493119 0.04116768  0.00117474  0.0083367 0.0000
218    -30.8163378567  -0.000590300867 0.00285992  0.00007954  0.0082446 0.0000
219    -30.8162949484   0.000042908239 0.03601833  0.00103518  0.0082482 0.0000
220    -30.8157457643   0.000549184112 0.14427023  0.00414317  0.0083319 0.0000
221    -30.8179989698  -0.002253205503 0.15758854  0.00453709  0.0079666 0.0000
222    -30.8155402270   0.002458742841 0.07952715  0.00227962  0.0083617 0.0000
223    -30.8167161771  -0.001175950064 0.01304318  0.00038273  0.0081758 0.0000
224    -30.8169132179  -0.000197040806 0.02968082  0.00084601  0.0081398 0.0000
225    -30.8173509407  -0.000437722873 0.08264329  0.00232531  0.0080656 0.0000
226    -30.8185779847  -0.001227043995 0.22786713  0.00643926  0.0078585 0.0000
227    -30.8153037861   0.003274198668 0.13815359  0.00395358  0.0083857 0.0000
228    -30.8173962119  -0.002092425825 0.01743362  0.00050046  0.0080590 0.0000
229    -30.8170879493   0.000308262568 0.04174146  0.00118334  0.0080964 0.0000
230    -30.8177082747  -0.000620325386 0.01397671  0.00039470  0.0079926 0.0000
231    -30.8179178070  -0.000209532282 0.07148846  0.00200756  0.0079583 0.0000
232    -30.8169251005   0.000992706519 0.20504703  0.00572269  0.0081228 0.0000
233    -30.8199376823  -0.003012581778 0.37338909  0.01048507  0.0076087 0.0000
234    -30.8144959023   0.005441779984 0.01652817  0.00043739  0.0084697 0.0000
235    -30.8147707228  -0.000274820490 0.01321004  0.00039633  0.0084162 0.0000
236    -30.8149803363  -0.000209613561 0.01373350  0.00041337  0.0083813 0.0000
237    -30.8152012421  -0.000220905765 0.12059419  0.00343182  0.0083449 0.0000
238    -30.8169349564  -0.001733714276 0.19075744  0.00545029  0.0080768 0.0000
239    -30.8141844666   0.002750489785 0.04052117  0.00126693  0.0084881 0.0000
240    -30.8149078888  -0.000723422250 0.06923689  0.00197912  0.0083657 0.0000
241    -30.8158825998  -0.000974710973 0.04441337  0.00125703  0.0082180 0.0000
242    -30.8164960841  -0.000613484280 0.01495236  0.00042417  0.0081217 0.0000
243    -30.8166927393  -0.000196655187 0.08727538  0.00246994  0.0080887 0.0000
244    -30.8155016450   0.001191094247 0.20600458  0.00584282  0.0082748 0.0000
245    -30.8185626887  -0.003061043656 0.27150801  0.00771381  0.0077774 0.0000
246    -30.8145510841   0.004011604605 0.06750045  0.00196456  0.0084032 0.0000
247    -30.8155640257  -0.001012941610 0.00745260  0.00022909  0.0082463 0.0000
248    -30.8156848140  -0.000120788288 0.00521878  0.00014202  0.0082236 0.0000
249    -30.8157684215  -0.000083607560 0.13033195  0.00368687  0.0082058 0.0000
250    -30.8176173176  -0.001848896104 0.32258104  0.00921669  0.0079059 0.0000
251    -30.8130686952   0.004548622452 0.07034910  0.00198897  0.0085948 0.0000
252    -30.8123382478   0.000730447420 0.04850596  0.00143606  0.0086736 0.0000
253    -30.8130297778  -0.000691530027 0.02655500  0.00078883  0.0085758 0.0000
254    -30.8134208194  -0.000391041650 0.00851100  0.00025651  0.0085179 0.0000
255    -30.8135475804  -0.000126760919 0.15738042  0.00447080  0.0084974 0.0000
256    -30.8155981971  -0.002050616756 0.10834365  0.00316539  0.0082119 0.0000
257    -30.8174669170  -0.001868719850 0.44550008  0.01282633  0.0079180 0.0000
258    -30.8110776813   0.006389235699 0.08764638  0.00263450  0.0087945 0.0000
259    -30.8123654213  -0.001287740084 0.07201943  0.00211533  0.0086156 0.0000
260    -30.8133723728  -0.001006951459 0.09180840  0.00265985  0.0084733 0.0000
261    -30.8146542816  -0.001281908795 0.08176092  0.00230512  0.0082844 0.0000
262    -30.8136900770   0.000964204626 0.14268106  0.00418713  0.0083850 0.0000
263    -30.8116904422   0.001999634764 0.17039198  0.00503901  0.0086824 0.0000
264    -30.8142066968  -0.002516254618 0.09159650  0.00259377  0.0083263 0.0000
265    -30.8152906859  -0.001083989088 0.07452506  0.00209821  0.0081717 0.0000
266    -30.8144193597   0.000871326208 0.02575876  0.00075881  0.0082922 0.0000
267    -30.8147857771  -0.000366417408 0.01485282  0.00041799  0.0082320 0.0000
268    -30.8149298731  -0.000144095949 0.27787971  0.00777314  0.0082131 0.0000
269    -30.8187031386  -0.003773265571 0.62475047  0.01775350  0.0076194 0.0000
270    -30.8106407151   0.008062423524 0.15942835  0.00472719  0.0085887 0.0000
271    -30.8129747502  -0.002334035120 0.00416736  0.00024489  0.0084667 0.0000
272    -30.8127072175   0.000267532711 0.01625183  0.00042407  0.0084800 0.0000
273    -30.8129865276  -0.000279310093 0.13428029  0.00392971  0.0084273 0.0000
274    -30.8150151122  -0.002028584545 0.50025118  0.01499970  0.0081418 0.0000
275    -30.8078810342   0.007134077955 0.10272984  0.00540091  0.0090261 0.0000
276    -30.8084930609  -0.000612026704 0.00897268  0.00037212  0.0079104 0.0000
277    -30.8084643705   0.000028690425 0.02646848  0.00109190  0.0076817 0.0000
278    -30.8091813734  -0.000717002946 0.01393514  0.00053743  0.0066054 0.0000
279    -30.8089955766   0.000185796826 0.28624238  0.00996090  0.0067134 0.0000
280    -30.8113664217  -0.002370845123 0.12540813  0.00464008  0.0085713 0.0000
281    -30.8147225719  -0.003356150171 0.63796355  0.02065325  0.0083222 0.0000
282    -30.8047287354   0.009993836477 0.05534729  0.00217542  0.0087791 0.0000
283    -30.8049889556  -0.000260220230 0.10933308  0.00354356  0.0092856 0.0000
284    -30.8067463419  -0.001757386298 0.16454259  0.00544027  0.0091070 0.0000
285    -30.8087202099  -0.001973867908 0.01619166  0.00070421  0.0088472 0.0000
286    -30.8087311197  -0.000010909838 0.06093730  0.00276363  0.0088523 0.0000
287    -30.8096654974  -0.000934377709 0.15021187  0.00715560  0.0088314 0.0000
288    -30.8079900875   0.001675409925 0.24329820  0.00814790  0.0089658 0.0000
289    -30.8110879153  -0.003097827834 0.16803113  0.00543168  0.0085362 0.0000
290    -30.8083670973   0.002720818047 0.04876702  0.00157353  0.0088590 0.0000
291    -30.8091037317  -0.000736634479 0.04257356  0.00139848  0.0087496 0.0000
292    -30.8097708516  -0.000667119828 0.09584917  0.00322101  0.0086502 0.0000
293    -30.8111831459  -0.001412294354 0.06685797  0.00318391  0.0084652 0.0000
294    -30.8119206905  -0.000737544539 0.17657411  0.00616735  0.0083745 0.0000
295    -30.8095205159   0.002400174521 0.14452010  0.00450166  0.0087010 0.0000
296    -30.8114703583  -0.001949842392 0.06633795  0.00209007  0.0084049 0.0000
297    -30.8123203119  -0.000849953576 0.03810217  0.00133450  0.0082697 0.0000
298    -30.8118040407   0.000516271203 0.01437393  0.00059094  0.0083584 0.0000
299    -30.8119920251  -0.000187984440 0.10104039  0.00343463  0.0083234 0.0000
300    -30.8137750728  -0.001783047650 0.09614895  0.00404418  0.0081181 0.0000
301    -30.8138294395  -0.000054366690 0.05943160  0.00275839  0.0080767 0.0000
302    -30.8141635650  -0.000334125482 0.17428173  0.00519702  0.0079840 0.0000
303    -30.8118499880   0.002313576921 0.11119775  0.00332453  0.0083378 0.0000
304    -30.8135200737  -0.001670085678 0.09752253  0.00297406  0.0081021 0.0000
305    -30.8146888867  -0.001168813003 0.14738545  0.00459582  0.0078918 0.0000
306    -30.8128604623   0.001828424447 0.02554307  0.00104766  0.0082033 0.0000
307    -30.8126550541   0.000205408145 0.02821064  0.00133971  0.0082456 0.0000
308    -30.8134327957  -0.000777741549 0.20620626  0.00609161  0.0081992 0.0000
309    -30.8159483763  -0.002515580601 0.39379987  0.01158160  0.0077515 0.0000
310    -30.8104897859   0.005458590418 0.01977764  0.00092197  0.0084952 0.0000
311    -30.8106930956  -0.000203309760 0.05093045  0.00168865  0.0084850 0.0000
312    -30.8116573800  -0.000964284325 0.07161774  0.00238186  0.0083965 0.0000
313    -30.8124100702  -0.000752690273 0.07916781  0.00267557  0.0082465 0.0000
314    -30.8133204159  -0.000910345685 0.17337260  0.00555407  0.0080936 0.0000
315    -30.8112333163   0.002087099568 0.21822964  0.00648245  0.0084231 0.0000
316    -30.8145689610  -0.003335644673 0.21112252  0.00647299  0.0079920 0.0000
317    -30.8110835658   0.003485395260 0.09976214  0.00309558  0.0083673 0.0000
318    -30.8123650777  -0.001281511988 0.00822883  0.00049017  0.0081726 0.0000
319    -30.8123780998  -0.000013022036 0.02717641  0.00133732  0.0081731 0.0000
320    -30.8126074341  -0.000229334276 0.18987164  0.00584846  0.0081795 0.0000
321    -30.8151795826  -0.002572148513 0.31725527  0.01078737  0.0077980 0.0000
322    -30.8114902077   0.003689374886 0.17630354  0.00536697  0.0084220 0.0000
323    -30.8137408143  -0.002250606655 0.03094285  0.00168351  0.0080940 0.0000
324    -30.8129470584   0.000793755966 0.11099858  0.00332000  0.0081034 0.0000
325    -30.8146004036  -0.001653345208 0.03576169  0.00215119  0.0078840 0.0000
326    -30.8144491756   0.000151227989 0.04575012  0.00299693  0.0078247 0.0000
327    -30.8157137587  -0.001264583115 0.06271963  0.00321125  0.0077769 0.0000
328    -30.8158982394  -0.000184480723 0.25695818  0.00761620  0.0076459 0.0000
329    -30.8123557815   0.003542457960 0.14731620  0.00486783  0.0081200 0.0000
330    -30.8150363539  -0.002680572453 0.04612963  0.00209888  0.0078378 0.0000
331    -30.8141480936   0.000888260322 0.01658188  0.00076780  0.0078449 0.0000
332    -30.8142964209  -0.000148327267 0.01355250  0.00064452  0.0077948 0.0000
333    -30.8143557715  -0.000059350670 0.03825330  0.00201285  0.0078179 0.0000
334    -30.8148854378  -0.000529666259 0.17989186  0.00529669  0.0077641 0.0000
335    -30.8173087652  -0.002423327373 0.53365380  0.01578967  0.0073481 0.0000
336    -30.8105253243   0.006783440886 0.03908280  0.00189056  0.0083682 0.0000
337    -30.8110937458  -0.000568421474 0.02649090  0.00091643  0.0083659 0.0000
338    -30.8112785821  -0.000184836300 0.09024934  0.00273047  0.0083150 0.0000
339    -30.8125214728  -0.001242890733 0.11432721  0.00414064  0.0081596 0.0000
340    -30.8147290012  -0.002207528447 0.20060408  0.01022008  0.0079647 0.0000
341    -30.8124921055   0.002236895731 0.12401721  0.00524641  0.0083382 0.0000
342    -30.8138683652  -0.001376259715 0.03907503  0.00200100  0.0080431 0.0000
343    -30.8127173149   0.001151050324 0.14458619  0.00432750  0.0080467 0.0000
344    -30.8144751332  -0.001757818341 0.03667760  0.00107173  0.0077651 0.0000
345    -30.8140045097   0.000470623524 0.11088521  0.00391765  0.0078256 0.0000
346    -30.8159764036  -0.001971893918 0.10546025  0.00560131  0.0076131 0.0000
347    -30.8149783272   0.000998076405 0.02210257  0.00132216  0.0078369 0.0000
348    -30.8141270859   0.000851241349 0.23267315  0.00670491  0.0078459 0.0000
349    -30.8171276427  -0.003000556848 0.39847228  0.01154278  0.0073654 0.0000
350    -30.8121296790   0.004997963735 0.14525231  0.00428142  0.0080954 0.0000
351    -30.8144200958  -0.002290416844 0.05881503  0.00277335  0.0078282 0.0000
352    -30.8134459751   0.000974120732 0.01047935  0.00052343  0.0079151 0.0000
353    -30.8133725450   0.000073430063 0.15607720  0.00464433  0.0078986 0.0000
354    -30.8154574210  -0.002084875976 0.35579959  0.01036722  0.0075887 0.0000
355    -30.8110650654   0.004392355624 0.27502610  0.00831595  0.0082042 0.0000
356    -30.8158805538  -0.004815488379 0.19157391  0.00992589  0.0077286 0.0000
357    -30.8131697579   0.002710795822 0.05854610  0.00166611  0.0081180 0.0000
358    -30.8143740973  -0.001204339400 0.01218126  0.00053588  0.0080410 0.0000
359    -30.8144926533  -0.000118555945 0.05862271  0.00179516  0.0079978 0.0000
360    -30.8131055972   0.001387056090 0.24197379  0.00764802  0.0080539 0.0000
361    -30.8157728796  -0.002667282410 0.06693721  0.00313073  0.0075677 0.0000
362    -30.8176356506  -0.001862770960 0.33044703  0.01135700  0.0075494 0.0000
363    -30.8117138546   0.005921795982 0.09625833  0.00313541  0.0081138 0.0000
364    -30.8131286985  -0.001414843897 0.00567191  0.00030334  0.0079090 0.0000
365    -30.8128536332   0.000275065241 0.32530767  0.00903358  0.0079227 0.0000
366    -30.8179424649  -0.005088831684 0.59833147  0.01794280  0.0073910 0.0000
367    -30.8095591127   0.008383352250 0.18211740  0.00663806  0.0082911 0.0000
368    -30.8132911533  -0.003732040668 0.17367539  0.00721828  0.0080106 0.0000
369    -30.8097340953   0.003557058046 0.06750919  0.00324276  0.0082751 0.0000
370    -30.8109379672  -0.001203871877 0.19115335  0.00730025  0.0081406 0.0000
371    -30.8144277153  -0.003489748122 0.18181185  0.00800734  0.0078327 0.0000
372    -30.8131582859   0.001269429415 0.04564530  0.00300282  0.0080942 0.0000
373    -30.8134102770  -0.000251991139 0.13993777  0.00588620  0.0079342 0.0000
374    -30.8123209508   0.001089326241 0.10791174  0.00347204  0.0079031 0.0000
375    -30.8142137194  -0.001892768603 0.08233158  0.00336394  0.0077134 0.0000
376    -30.8162112327  -0.001997513306 0.21705240  0.00907456  0.0076140 0.0000
377    -30.8160701225   0.000141110210 0.17643810  0.00676997  0.0077925 0.0000
378    -30.8124333209   0.003636801541 0.23617928  0.00753109  0.0077531 0.0000
379    -30.8165225798  -0.004089258872 0.20785962  0.00755417  0.0075169 0.0000
380    -30.8170849110  -0.000562331222 0.20584041  0.00828305  0.0074295 0.0000
381    -30.8153168543   0.001768056694 0.10450588  0.00437925  0.0076719 0.0000
382    -30.8183519411  -0.003035086717 0.27301417  0.01010662  0.0073690 0.0000
383    -30.8167500774   0.001601863660 0.14890537  0.00543787  0.0076113 0.0000
384    -30.8179999035  -0.001249826049 0.05288763  0.00199894  0.0073276 0.0000
385    -30.8169919584   0.001007945054 0.11350528  0.00353743  0.0074820 0.0000
386    -30.8185979984  -0.001606039957 0.11260996  0.00482198  0.0074350 0.0000
387    -30.8208496772  -0.002251678868 0.13555172  0.00511920  0.0070151 0.0000
388    -30.8199310943   0.000918582958 0.12383310  0.00478617  0.0074313 0.0000
389    -30.8190393853   0.000891708995 0.08245050  0.00301275  0.0073634 0.0000
390    -30.8200856561  -0.001046270827 0.14066108  0.00494706  0.0074115 0.0000
391    -30.8230189874  -0.002933331310 0.18080199  0.00632822  0.0070517 0.0000
392    -30.8214560855   0.001562901944 0.15808755  0.00535091  0.0071442 0.0000
393    -30.8214233959   0.000032689590 0.22228567  0.00649085  0.0072719 0.0000
394    -30.8253180414  -0.003894645488 0.20495920  0.00836475  0.0074501 0.0000
395    -30.8259439976  -0.000625956235 0.09465827  0.00591027  0.0070768 0.0000
396    -30.8253215804   0.000622417234 0.06196513  0.00349121  0.0079458 0.0000
397    -30.8281519933  -0.002830412911 0.10520214  0.00539684  0.0091418 0.0000
398    -30.8251985587   0.002953434592 0.21575267  0.00598423  0.0071187 0.0000
399    -30.8296949841  -0.004496425444 0.27303355  0.00569459  0.0085817 0.0000
400    -30.8256884417   0.004006542450 0.22663882  0.00590100  0.0073840 0.0000
401    -30.8292844846  -0.003596042968 0.10758624  0.00524802  0.0085424 0.0000
402    -30.8272473931   0.002037091573 0.05180444  0.00106918  0.0074638 0.0000
403    -30.8282766052  -0.001029212086 0.16140861  0.00535763  0.0076687 0.0000
404    -30.8324773279  -0.004200722699 0.47518442  0.01229993  0.0090539 0.0000
405    -30.8223164799   0.010160847910 0.32141298  0.00600668  0.0070832 0.0000
406    -30.8277177309  -0.005401250918 0.18137257  0.00367797  0.0072887 0.0000
407    -30.8247343152   0.002983415698 0.17866248  0.00559263  0.0071107 0.0000
408    -30.8294405845  -0.004706269298 0.06728191  0.00249018  0.0082723 0.0000
409    -30.8285124449   0.000928139534 0.39106528  0.01188897  0.0079310 0.0000
410    -30.8227888002   0.005723644713 0.39809703  0.00834114  0.0095041 0.0000
411    -30.8284931542  -0.005704354018 0.23928879  0.00511267  0.0083900 0.0000
412    -30.8240949108   0.004398243395 0.25759454  0.00802399  0.0077594 0.0000
413    -30.8323178425  -0.008222931623 0.34931317  0.01421861  0.0114818 0.0000
414    -30.8236294114   0.008688431072 0.15161100  0.00452386  0.0069817 0.0000
415    -30.8258333542  -0.002203942804 0.05666893  0.00187299  0.0077642 0.0000
416    -30.8253812244   0.000452129764 0.04655612  0.00156316  0.0077411 0.0000
417    -30.8267076633  -0.001326438905 0.26222259  0.00502841  0.0075897 0.0000
418    -30.8300759013  -0.003368237971 0.56122901  0.01167291  0.0085187 0.0000
419    -30.8232537017   0.006822199657 0.20958265  0.00661356  0.0070143 0.0000
420    -30.8287691085  -0.005515406834 0.15660080  0.00484208  0.0086022 0.0000
421    -30.8243608078   0.004408300680 0.00925305  0.00044462  0.0075309 0.0000
422    -30.8243086674   0.000052140390 0.02525338  0.00096101  0.0075988 0.0000
423    -30.8240559257   0.000252741690 0.30814483  0.00956706  0.0077044 0.0000
424    -30.8169297665   0.007126159187 0.21071490  0.00645736  0.0070976 0.0000
425    -30.8216361149  -0.004706348326 0.15963583  0.00396548  0.0075932 0.0000
426    -30.8190966995   0.002539415350 0.10448417  0.00409979  0.0069213 0.0000
427    -30.8166432604   0.002453439151 0.10670976  0.00414078  0.0069211 0.0000
428    -30.8175282545  -0.000884994139 0.08291252  0.00319739  0.0071647 0.0000
429    -30.8159160504   0.001612204066 0.19637933  0.00576252  0.0069248 0.0000
430    -30.8188823658  -0.002966315333 0.11336835  0.00341538  0.0079883 0.0000
431    -30.8172714172   0.001610948559 0.09928914  0.00420662  0.0072295 0.0000
432    -30.8157846979   0.001486719328 0.03673605  0.00180661  0.0069493 0.0000
433    -30.8165332579  -0.000748560029 0.03251487  0.00158120  0.0068979 0.0000
434    -30.8172445753  -0.000711317396 0.23457665  0.00601558  0.0069020 0.0000
435    -30.8195173037  -0.002272728355 0.38692740  0.01204870  0.0083166 0.0000
436    -30.8149867863   0.004530517361 0.06459883  0.00282691  0.0071647 0.0000
437    -30.8162481973  -0.001261411001 0.12471860  0.00456856  0.0070916 0.0000
438    -30.8175629172  -0.001314719866 0.05863469  0.00267527  0.0070404 0.0000
439    -30.8175135771   0.000049340058 0.04121322  0.00217486  0.0071275 0.0000
440    -30.8169922912   0.000521285927 0.13377782  0.00419961  0.0073944 0.0000
441    -30.8200632700  -0.003070978848 0.23863726  0.00738603  0.0074641 0.0000
442    -30.8192949603   0.000768309748 0.14813805  0.00426221  0.0078375 0.0000
443    -30.8193011038  -0.000006143562 0.08466430  0.00301184  0.0087119 0.0000
444    -30.8188018257   0.000499278129 0.03916128  0.00182523  0.0082699 0.0000
445    -30.8192731546  -0.000471328897 0.11156722  0.00432176  0.0086413 0.0000
446    -30.8231270887  -0.003853934088 0.22130020  0.00843893  0.0093350 0.0000
447    -30.8204617211   0.002665367615 0.08916779  0.00365853  0.0092553 0.0000
448    -30.8199301872   0.000531533845 0.05143066  0.00207102  0.0093540 0.0000
449    -30.8192856391   0.000644548190 0.14633023  0.00418826  0.0094436 0.0000
450    -30.8208020912  -0.001516452173 0.07605132  0.00310975  0.0105910 0.0000
451    -30.8212868409  -0.000484749718 0.10176550  0.00429388  0.0102456 0.0000
452    -30.8220667525  -0.000779911593 0.26730929  0.00836271  0.0113681 0.0000
453    -30.8188084529   0.003258299612 0.17091642  0.00377540  0.0086818 0.0000
454    -30.8214358650  -0.002627412085 0.09411228  0.00390196  0.0095760 0.0000
455    -30.8211713818   0.000264483198 0.07632636  0.00276707  0.0104411 0.0000
456    -30.8202406819   0.000930699928 0.06063812  0.00227259  0.0096039 0.0000
457    -30.8205403634  -0.000299681552 0.05270179  0.00143579  0.0098758 0.0000
458    -30.8197783977   0.000761965732 0.24755169  0.00578712  0.0095305 0.0000
459    -30.8233718987  -0.003593501042 0.33865483  0.01115093  0.0114405 0.0000
460    -30.8199038933   0.003468005458 0.01180637  0.00045010  0.0087634 0.0000
461    -30.8200449717  -0.000141078370 0.11259974  0.00385345  0.0088323 0.0000
462    -30.8228770315  -0.002832059851 0.11715819  0.00482955  0.0097455 0.0000
463    -30.8196798498   0.003197181661 0.13426868  0.00409395  0.0095912 0.0000
464    -30.8210250521  -0.001345202293 0.12663646  0.00450437  0.0108059 0.0000
465    -30.8225201899  -0.001495137737 0.10430768  0.00320705  0.0100237 0.0000
466    -30.8204391557   0.002081034167 0.15248024  0.00414434  0.0101622 0.0000
467    -30.8227784932  -0.002339337482 0.23141505  0.00776970  0.0116463 0.0000
468    -30.8199700270   0.002808466177 0.18801303  0.00472490  0.0096164 0.0000
469    -30.8224320715  -0.002462044434 0.15528738  0.00467146  0.0112958 0.0000
470    -30.8202092956   0.002222775845 0.04495510  0.00141506  0.0099216 0.0000
471    -30.8207382951  -0.000528999543 0.11238936  0.00291274  0.0098145 0.0000
472    -30.8226005434  -0.001862248267 0.17038498  0.00632445  0.0107723 0.0000
473    -30.8194968024   0.003103741018 0.06561755  0.00239485  0.0095577 0.0000
474    -30.8197798856  -0.000283083213 0.22401256  0.00524294  0.0097286 0.0000
475    -30.8231093863  -0.003329500677 0.27132415  0.00879671  0.0110103 0.0000
476    -30.8204238354   0.002685550854 0.01492802  0.00064635  0.0098669 0.0000
477    -30.8203048367   0.000118998778 0.10791553  0.00288285  0.0100179 0.0000
478    -30.8222485679  -0.001943731260 0.10183998  0.00432595  0.0104153 0.0000
479    -30.8228831770  -0.000634609060 0.11929270  0.00499926  0.0112884 0.0000
480    -30.8217936344   0.001089542552 0.11316007  0.00384702  0.0112645 0.0000
481    -30.8238563345  -0.002062700125 0.12389757  0.00502817  0.0111435 0.0000
482    -30.8222784150   0.001577919540 0.21013758  0.00549603  0.0114294 0.0000
483    -30.8259528519  -0.003674436870 0.35607570  0.01184720  0.0129417 0.0000
484    -30.8214830717   0.004469780166 0.07126214  0.00273689  0.0107289 0.0000
485    -30.8207678640   0.000715207683 0.12767084  0.00382571  0.0107863 0.0000
486    -30.8205274054   0.000240458637 0.15871089  0.00450293  0.0114082 0.0000
487    -30.8233687865  -0.002841381064 0.16375682  0.00593898  0.0124593 0.0000
488    -30.8233176421   0.000051144309 0.17248918  0.00637102  0.0127461 0.0000
489    -30.8249440050  -0.001626362899 0.26858376  0.00877941  0.0128759 0.0000
490    -30.8202710521   0.004672952981 0.19383263  0.00474713  0.0110214 0.0000
491    -30.8230040190  -0.002732966966 0.16078759  0.00457919  0.0126659 0.0000
492    -30.8213026232   0.001701395845 0.00509362  0.00021249  0.0123501 0.0000
493    -30.8212599821   0.000042641095 0.03989943  0.00193925  0.0123409 0.0000
494    -30.8224014216  -0.001141439485 0.02125741  0.00095217  0.0126669 0.0000
495    -30.8224760708  -0.000074649245 0.19497993  0.00523284  0.0125996 0.0000
496    -30.8238778157  -0.001401744857 0.34905247  0.01146457  0.0146795 0.0000
497    -30.8238961520  -0.000018336276 0.19890157  0.00518008  0.0107924 0.0000
498    -30.8264884350  -0.002592283003 0.20960531  0.00824320  0.0127354 0.0000
499    -30.8213942204   0.005094214591 0.05980828  0.00278545  0.0110193 0.0000
500    -30.8226560928  -0.001261872476 0.01565995  0.00055291  0.0105421 0.0000
501    -30.8225348149   0.000121277949 0.00654859  0.00014843  0.0106153 0.0000
502    -30.8224361020   0.000098712875 0.27734558  0.00708756  0.0105998 0.0000
503    -30.8263617771  -0.003925675049 0.61112021  0.01918171  0.0133605 0.0000
504    -30.8170217458   0.009340031317 0.08890628  0.00371123  0.0078437 0.0000
505    -30.8212988678  -0.004277122060 0.14870517  0.00574316  0.0082615 0.0000
506    -30.8156259089   0.005672958912 0.12760812  0.00382998  0.0076577 0.0000
507    -30.8169401002  -0.001314191325 0.19114638  0.00472120  0.0081218 0.0000
508    -30.8196874866  -0.002747386330 0.31927074  0.00668462  0.0092240 0.0000
509    -30.8149863930   0.004701093565 0.13788855  0.00405697  0.0081143 0.0000
510    -30.8154217020  -0.000435309005 0.20064563  0.00570753  0.0085486 0.0000
511    -30.8183801232  -0.002958421229 0.10091234  0.00459244  0.0083712 0.0000
512    -30.8183805738  -0.000000450595 0.09756028  0.00416742  0.0088531 0.0000
513    -30.8171361432   0.001244430638 0.15264242  0.00451880  0.0094329 0.0000
514    -30.8171647045  -0.000028561309 0.10266030  0.00295234  0.0096124 0.0000
515    -30.8176444003  -0.000479695822 0.16073097  0.00425668  0.0100923 0.0000
516    -30.8207603115  -0.003115911142 0.30079488  0.01074522  0.0106892 0.0000
517    -30.8163760023   0.004384309119 0.19406503  0.00677304  0.0090103 0.0000
518    -30.8197229999  -0.003346997579 0.18057565  0.00695781  0.0109303 0.0000
519    -30.8188244335   0.000898566441 0.13797900  0.00418737  0.0102353 0.0000
520    -30.8172484123   0.001576021158 0.04402814  0.00158445  0.0101376 0.0000
521    -30.8180681126  -0.000819700296 0.12984380  0.00411644  0.0101900 0.0000
522    -30.8193490265  -0.001280913873 0.22916439  0.00720770  0.0102222 0.0000
523    -30.8199124951  -0.000563468582 0.55358468  0.01515624  0.0123982 0.0000
524    -30.8173822969   0.002530198183 0.13713693  0.00544449  0.0079722 0.0000
525    -30.8206546390  -0.003272342132 0.16113248  0.00575616  0.0080527 0.0000
526    -30.8210238083  -0.000369169247 0.06411329  0.00248321  0.0090728 0.0000
527    -30.8202311170   0.000792691279 0.02837777  0.00091679  0.0088057 0.0000
528    -30.8204393593  -0.000208242300 0.03087549  0.00105581  0.0088592 0.0000
529    -30.8199556761   0.000483683201 0.29555801  0.00907007  0.0087198 0.0000
530    -30.8271480043  -0.007192328242 0.52332387  0.02159050  0.0108635 0.0000
531    -30.8173028998   0.009845104512 0.17961114  0.00386815  0.0074664 0.0000
532    -30.8199995047  -0.002696604855 0.07469137  0.00359591  0.0082013 0.0000
533    -30.8174251633   0.002574341407 0.01938110  0.00064492  0.0081128 0.0000
534    -30.8174243197   0.000000843546 0.26219789  0.01114858  0.0082051 0.0000
535    -30.8222178221  -0.004793502396 0.22230036  0.00875705  0.0099755 0.0000
536    -30.8229731028  -0.000755280661 0.49886628  0.01328081  0.0097660 0.0000
537    -30.8159292049   0.007043897844 0.07129181  0.00228617  0.0079910 0.0000
538    -30.8164274772  -0.000498272274 0.06633631  0.00271699  0.0080117 0.0000
539    -30.8170434542  -0.000615976957 0.21781991  0.00560481  0.0086190 0.0000
540    -30.8202504426  -0.003206988493 0.17137632  0.00408441  0.0097951 0.0000
541    -30.8167291168   0.003521325835 0.13741119  0.00505991  0.0088288 0.0000
542    -30.8176690745  -0.000939957637 0.09911399  0.00423100  0.0092274 0.0000
543    -30.8161085037   0.001560570760 0.10386840  0.00371650  0.0088475 0.0000
544    -30.8172968643  -0.001188360586 0.03622587  0.00175606  0.0096990 0.0000
545    -30.8176409738  -0.000344109568 0.13686019  0.00373534  0.0099164 0.0000
546    -30.8205326076  -0.002891633728 0.09192492  0.00466396  0.0107382 0.0000
547    -30.8194611169   0.001071490631 0.25798083  0.00686752  0.0106547 0.0000
548    -30.8157245697   0.003736547267 0.31742470  0.00774414  0.0090109 0.0000
549    -30.8205903072  -0.004865737484 0.30700223  0.01031120  0.0108862 0.0000
550    -30.8154397057   0.005150601476 0.15852511  0.00517746  0.0092083 0.0000
551    -30.8178569730  -0.002417267342 0.05295088  0.00224981  0.0094179 0.0000
552    -30.8173876550   0.000469318000 0.20916380  0.00484612  0.0094858 0.0000
553    -30.8204059118  -0.003018256799 0.24927787  0.00624437  0.0106108 0.0000
554    -30.8164576376   0.003948274207 0.13393311  0.00351769  0.0105324 0.0000
555    -30.8151018741   0.001355763505 0.38601803  0.00867550  0.0096598 0.0000
556    -30.8201253823  -0.005023508201 0.35368805  0.00949130  0.0115757 0.0000
557    -30.8159051281   0.004220254185 0.17586563  0.00444206  0.0099004 0.0000
558    -30.8181990902  -0.002293962038 0.18461639  0.00580124  0.0111140 0.0000
559    -30.8216690111  -0.003469920903 0.39467348  0.01194552  0.0110409 0.0000
560    -30.8172831850   0.004385826075 0.12620348  0.00519290  0.0107072 0.0000
561    -30.8194230995  -0.002139914506 0.09899451  0.00454006  0.0118748 0.0000
562    -30.8166931790   0.002729920467 0.14605291  0.00520668  0.0108521 0.0000
563    -30.8181859554  -0.001492776401 0.10050232  0.00294377  0.0123419 0.0000
564    -30.8172983635   0.000887591971 0.19874331  0.00626111  0.0114218 0.0000
565    -30.8198620702  -0.002563706747 0.27067179  0.00775606  0.0123649 0.0000
566    -30.8186316311   0.001230439125 0.04825764  0.00222387  0.0121308 0.0000
567    -30.8194738979  -0.000842266834 0.18791488  0.00530562  0.0122925 0.0000
568    -30.8210029195  -0.001529021599 0.32891136  0.01446956  0.0141955 0.0000
569    -30.8178272618   0.003175657699 0.23688600  0.00716332  0.0100302 0.0000
570    -30.8205759727  -0.002748710892 0.38013389  0.00852359  0.0122697 0.0000
571    -30.8154538911   0.005122081594 0.06956697  0.00290399  0.0100782 0.0000
572    -30.8155994052  -0.000145514072 0.04787430  0.00165961  0.0101049 0.0000
573    -30.8164950285  -0.000895623322 0.14508773  0.00664309  0.0103619 0.0000
574    -30.8158004835   0.000694545009 0.35223012  0.00896167  0.0090204 0.0000
575    -30.8198221574  -0.004021673948 0.37601816  0.01084378  0.0106783 0.0000
576    -30.8194971474   0.000325010016 0.08002777  0.00341281  0.0106281 0.0000
577    -30.8219836863  -0.002486538866 0.33257692  0.01117212  0.0108084 0.0000
578    -30.8167181622   0.005265524082 0.04235193  0.00224210  0.0102691 0.0000
579    -30.8164054610   0.000312701203 0.18940733  0.00758516  0.0101815 0.0000
580    -30.8187707728  -0.002365311755 0.15960834  0.00632691  0.0122689 0.0000
581    -30.8160468879   0.002723884883 0.26136508  0.00543487  0.0104991 0.0000
582    -30.8202680349  -0.004221147030 0.39256446  0.00959448  0.0116409 0.0000
583    -30.8147520059   0.005516028996 0.04938857  0.00202805  0.0099869 0.0000
584    -30.8152807129  -0.000528706950 0.12866707  0.00459320  0.0102626 0.0000
585    -30.8177732310  -0.002492518098 0.21667029  0.00878257  0.0113611 0.0000
586    -30.8187097252  -0.000936494233 0.23931527  0.01027025  0.0121973 0.0000
587    -30.8203854411  -0.001675715945 0.34625024  0.01099412  0.0113956 0.0000
588    -30.8183596429   0.002025798247 0.10918271  0.00522510  0.0109979 0.0000
589    -30.8177504628   0.000609180147 0.21950658  0.00586833  0.0122879 0.0000
590    -30.8206887828  -0.002938320042 0.28175980  0.00720161  0.0127396 0.0000
591    -30.8174484240   0.003240358815 0.05970651  0.00280222  0.0113161 0.0000
592    -30.8181781575  -0.000729733490 0.18168407  0.00872828  0.0112863 0.0000
593    -30.8218335953  -0.003655437798 0.30051895  0.01194721  0.0133886 0.0000
594    -30.8228573754  -0.001023780088 0.15164285  0.00581926  0.0131430 0.0000
595    -30.8239024026  -0.001045027210 0.43940081  0.01462139  0.0137127 0.0000
596    -30.8208181655   0.003084237037 0.24213921  0.00798273  0.0121362 0.0000
597    -30.8259547016  -0.005136536090 0.28390460  0.01198490  0.0138248 0.0000
598    -30.8182149088   0.007739792805 0.05595460  0.00162157  0.0130964 0.0000
599    -30.8188168591  -0.000601950248 0.10542596  0.00413642  0.0135814 0.0000
600    -30.8215363576  -0.002719498517 0.13542271  0.00556060  0.0141956 0.0000
601    -30.8194256025   0.002110755120 0.18622811  0.00664749  0.0138060 0.0000
602    -30.8200876313  -0.000662028854 0.07745349  0.00395146  0.0151479 0.0000
603    -30.8195726414   0.000514989918 0.13871451  0.00510015  0.0146143 0.0000
604    -30.8214178413  -0.001845199921 0.06238906  0.00276083  0.0155840 0.0000
605    -30.8212348314   0.000183009917 0.21368025  0.00868300  0.0148250 0.0000
606    -30.8199425895   0.001292241871 0.21731306  0.00601725  0.0139892 0.0000
607    -30.8211379071  -0.001195317538 0.15782061  0.00499971  0.0158531 0.0000
608    -30.8190585060   0.002079401025 0.15115062  0.00436285  0.0141963 0.0000
609    -30.8224637358  -0.003405229750 0.12628239  0.00626134  0.0151619 0.0000
610    -30.8190270616   0.003436674146 0.09404693  0.00368898  0.0146577 0.0000
611    -30.8205581732  -0.001531111558 0.13172539  0.00532113  0.0151448 0.0000
612    -30.8209056852  -0.000347511965 0.11548741  0.00390723  0.0159491 0.0000
613    -30.8209061916  -0.000000506469 0.12494023  0.00362964  0.0159231 0.0000
614    -30.8221548888  -0.001248697127 0.13029600  0.00502348  0.0159598 0.0000
615    -30.8213934210   0.000761467761 0.13412034  0.00582824  0.0162967 0.0000
616    -30.8246300572  -0.003236636181 0.28637284  0.01015044  0.0173703 0.0000
617    -30.8245675343   0.000062522863 0.12115094  0.00515410  0.0168295 0.0000
618    -30.8208302789   0.003737255376 0.08421937  0.00250224  0.0161832 0.0000
619    -30.8217617731  -0.000931494131 0.17036772  0.00473589  0.0167496 0.0000
620    -30.8243160590  -0.002554285929 0.15225254  0.00556448  0.0178293 0.0000
621    -30.8229872257   0.001328833294 0.05858733  0.00246593  0.0173154 0.0000
622    -30.8227549403   0.000232285405 0.08006750  0.00356110  0.0174171 0.0000
623    -30.8230960907  -0.000341150413 0.17842006  0.00517412  0.0170311 0.0000
624    -30.8247597224  -0.001663631688 0.04121364  0.00220493  0.0179208 0.0000
625    -30.8241102587   0.000649463709 0.06657643  0.00194879  0.0177328 0.0000
626    -30.8249518799  -0.000841621168 0.10769051  0.00474333  0.0178942 0.0000
627    -30.8262069971  -0.001255117226 0.12970523  0.00593795  0.0181993 0.0000
628    -30.8265733792  -0.000366382124 0.13901127  0.00576409  0.0182493 0.0000
629    -30.8274354518  -0.000862072551 0.08529637  0.00418412  0.0181104 0.0000
630    -30.8272330828   0.000202368963 0.14619198  0.00480287  0.0181818 0.0000
631    -30.8292875414  -0.002054458590 0.09519187  0.00290918  0.0182551 0.0000
632    -30.8280231971   0.001264344324 0.17068036  0.00378578  0.0183284 0.0000
633    -30.8304525436  -0.002429346556 0.10196018  0.00405594  0.0182552 0.0000
634    -30.8310576610  -0.000605117343 0.11152331  0.00335600  0.0174127 0.0000
635    -30.8331127032  -0.002055042201 0.11111957  0.00335650  0.0175848 0.0000
636    -30.8294796661   0.003633037074 0.04296658  0.00180030  0.0179062 0.0000
637    -30.8301222572  -0.000642591079 0.13754059  0.00367001  0.0177768 0.0000
638    -30.8327812990  -0.002659041876 0.11076650  0.00279506  0.0172824 0.0000
639    -30.8359264373  -0.003145138279 0.01996276  0.00067698  0.0168454 0.0000
640    -30.8362563016  -0.000329864313 0.06781373  0.00240307  0.0161988 0.0000
641    -30.8348711373   0.001385164326 0.03992597  0.00127772  0.0158969 0.0000
642    -30.8359455740  -0.001074436700 0.10931933  0.00275840  0.0156052 0.0000
643    -30.8393718636  -0.003426289546 0.04596389  0.00128301  0.0140231 0.0000
644    -30.8419681619  -0.002596298378 0.03095929  0.00100579  0.0119815 0.0000
645    -30.8433446788  -0.001376516858 0.03631655  0.00112687  0.0130184 0.0000
646    -30.8449665432  -0.001621864354 0.03314797  0.00092185  0.0139486 0.0000
647    -30.8469943846  -0.002027841457 0.09717641  0.00259837  0.0155948 0.0000
648    -30.8512104807  -0.004216096063 0.01198837  0.00066689  0.0178218 0.0000
649    -30.8533802407  -0.002169760014 0.05011059  0.00160425  0.0199772 0.0000
650    -30.8533892339  -0.000008993230 0.05230536  0.00167551  0.0213460 0.0000
651    -30.8542889587  -0.000899724762 0.03339656  0.00134001  0.0208207 0.0000
652    -30.8589804405  -0.004691481861 0.09389347  0.00328589  0.0248080 0.0000
653    -30.8565361385   0.002444302068 0.08275297  0.00214663  0.0198552 0.0000
654    -30.8636862606  -0.007150122119 0.02211846  0.00154480  0.0234462 0.0000
655    -30.8697625548  -0.006076294209 0.15734907  0.00422507  0.0274073 0.0000
656    -30.8519619956   0.017800559152 0.05253002  0.00132173  0.0169407 0.0000
657    -30.8525777538  -0.000615758153 0.03080575  0.00091894  0.0162136 0.0000
658    -30.8527971788  -0.000219424951 0.04328148  0.00129697  0.0156621 0.0000
659    -30.8543582838  -0.001561105066 0.04085256  0.00136706  0.0162682 0.0000
660    -30.8554647868  -0.001106502978 0.08075350  0.00323302  0.0166226 0.0000
661    -30.8702239535  -0.014759166714 0.13177267  0.00402436  0.0263039 0.0000
662    -30.8531039716   0.017119981883 0.03481238  0.00094409  0.0152240 0.0000
663    -30.8542009346  -0.001096963010 0.03317460  0.00092812  0.0154827 0.0000
664    -30.8553440022  -0.001143067520 0.02211120  0.00072346  0.0157698 0.0000
665    -30.8568131206  -0.001469118438 0.01935574  0.00070390  0.0164619 0.0000
666    -30.8567642438   0.000048876752 0.05028771  0.00269114  0.0167226 0.0000
667    -30.8678748739  -0.011110630014 0.04515020  0.00260305  0.0254200 0.0000
668    -30.8614920942   0.006382779634 0.01409584  0.00046887  0.0197257 0.0000
669    -30.8632636791  -0.001771584923 0.01597042  0.00077176  0.0211200 0.0000
670    -30.8656591723  -0.002395493194 0.00838735  0.00055999  0.0230378 0.0000
671    -30.8658830171  -0.000223844772 0.07313503  0.00252864  0.0230385 0.0000
672    -30.8783368937  -0.012453876625 0.11119535  0.00576692  0.0284830 0.0000
673    -30.8535621035   0.024774790218 0.04762481  0.00123023  0.0113821 0.0000
674    -30.8567348204  -0.003172716837 0.00867543  0.00042378  0.0151483 0.0000
675    -30.8572194018  -0.000484581461 0.01153470  0.00039571  0.0150002 0.0000
676    -30.8580156443  -0.000796242519 0.03398087  0.00148148  0.0151792 0.0000
677    -30.8641549683  -0.006139323944 0.03700909  0.00214024  0.0196554 0.0000
678    -30.8554986732   0.008656295071 0.09632893  0.00199616  0.0111488 0.0000
679    -30.8591399971  -0.003641323883 0.03447760  0.00068244  0.0121172 0.0000
680    -30.8602863056  -0.001146308460 0.02901751  0.00057223  0.0120432 0.0000
681    -30.8616540761  -0.001367770570 0.02505392  0.00053626  0.0126713 0.0000
682    -30.8632337744  -0.001579698315 0.16849648  0.00416975  0.0140801 0.0000
683    -30.8628946888   0.000339085668 0.18871875  0.00425024  0.0190410 0.0000
684    -30.8689014287  -0.006006739950 0.11187908  0.00270604  0.0201627 0.0000
685    -30.8594093441   0.009492084646 0.02105521  0.00112547  0.0131785 0.0000
686    -30.8599625567  -0.000553212656 0.06626630  0.00169965  0.0145009 0.0000
687    -30.8637395243  -0.003776967542 0.04972704  0.00136435  0.0178016 0.0000
688    -30.8693431384  -0.005603614154 0.08949254  0.00217618  0.0211976 0.0000
689    -30.8656586953   0.003684443099 0.09998797  0.00273605  0.0204622 0.0000
690    -30.8699809361  -0.004322240769 0.06735035  0.00239647  0.0188908 0.0000
691    -30.8659044485   0.004076487585 0.09726847  0.00265302  0.0204995 0.0000
692    -30.8770787692  -0.011174320688 0.08676079  0.00311370  0.0250816 0.0000
693    -30.8665820665   0.010496702696 0.01244224  0.00064704  0.0195300 0.0000
694    -30.8693402748  -0.002758208279 0.03708951  0.00107305  0.0218740 0.0000
695    -30.8696456764  -0.000305401586 0.04590126  0.00152867  0.0210235 0.0000
696    -30.8700168375  -0.000371161123 0.10690177  0.00333878  0.0230665 0.0000
697    -30.8853509781  -0.015334140611 0.16538327  0.00649808  0.0274599 0.0000
698    -30.8552920839   0.030058894203 0.05655427  0.00161947  0.0118016 0.0000
699    -30.8565056029  -0.001213519047 0.02866665  0.00093241  0.0113364 0.0000
700    -30.8579977027  -0.001492099800 0.00903906  0.00039578  0.0121151 0.0000
701    -30.8593902828  -0.001392580085 0.01481432  0.00066295  0.0148188 0.0000
702    -30.8587688105   0.000621472368 0.04220128  0.00199441  0.0136750 0.0000
703    -30.8615897491  -0.002820938667 0.05713444  0.00250361  0.0155354 0.0000
704    -30.8642569986  -0.002667249473 0.08093901  0.00280540  0.0196224 0.0000
705    -30.8555531645   0.008703834088 0.02695510  0.00127165  0.0111337 0.0000
706    -30.8565259326  -0.000972768114 0.02891831  0.00102751  0.0123500 0.0000
707    -30.8593016114  -0.002775678723 0.02297630  0.00068747  0.0144146 0.0000
708    -30.8616913894  -0.002389778057 0.01196185  0.00052427  0.0160420 0.0000
709    -30.8617594460  -0.000068056612 0.03706750  0.00186536  0.0160160 0.0000
710    -30.8652621179  -0.003502671901 0.03283497  0.00232019  0.0182856 0.0000
711    -30.8621459050   0.003116212895 0.04266228  0.00178705  0.0161735 0.0000
712    -30.8701443039  -0.007998398857 0.02038109  0.00102570  0.0215572 0.0000
713    -30.8668222073   0.003322096544 0.00575588  0.00030980  0.0190344 0.0000
714    -30.8679834832  -0.001161275860 0.01596597  0.00053656  0.0197090 0.0000
715    -30.8700353259  -0.002051842661 0.00395896  0.00010906  0.0210450 0.0000
716    -30.8696917928   0.000343533076 0.05425854  0.00248815  0.0209279 0.0000
[...]
  BAS[ATNO][ 16].a[ 19] =         0.335842819600;     BAS[ATNO][ 16].d[ 19] =         0.000103818168;
  BAS[ATNO][ 16].a[ 20] =         0.335842819600;     BAS[ATNO][ 16].d[ 20] =         0.000041284665;
  BAS[ATNO][ 16].a[ 21] =         0.335842819600;     BAS[ATNO][ 16].d[ 21] =         0.000066339399;

  // Basis function  18 L = p
  InitBFNGauss(BAS[ATNO][ 17]);
  BAS[ATNO][ 17].l  = 1;
  BAS[ATNO][ 17].ng = 22;
  BAS[ATNO][ 17].a[  0] =         5.087399000000;     BAS[ATNO][ 17].d[  0] =        -0.000000600072;
  BAS[ATNO][ 17].a[  1] =         4.270978000000;     BAS[ATNO][ 17].d[  1] =         0.000001272218;
  BAS[ATNO][ 17].a[  2] =         2.182365604500;     BAS[ATNO][ 17].d[  2] =        -0.000002013015;
  BAS[ATNO][ 17].a[  3] =         0.489665337800;     BAS[ATNO][ 17].d[  3] =         0.000009992334;
  BAS[ATNO][ 17].a[  4] =         0.233016753500;     BAS[ATNO][ 17].d[  4] =        -0.000012650921;
  BAS[ATNO][ 17].a[  5] =         0.022854708800;     BAS[ATNO][ 17].d[  5] =         0.000009845453;
  BAS[ATNO][ 17].a[  6] =         6.000000000000;     BAS[ATNO][ 17].d[  6] =        -0.000000316126;
  BAS[ATNO][ 17].a[  7] =         3.680819161500;     BAS[ATNO][ 17].d[  7] =         0.000004070168;
  BAS[ATNO][ 17].a[  8] =         2.326546208100;     BAS[ATNO][ 17].d[  8] =        -0.000009868729;
  BAS[ATNO][ 17].a[  9] =         0.643426296300;     BAS[ATNO][ 17].d[  9] =         0.000012712469;
  BAS[ATNO][ 17].a[ 10] =         6.000000000000;     BAS[ATNO][ 17].d[ 10] =        -0.000000763974;
  BAS[ATNO][ 17].a[ 11] =         3.680819161500;     BAS[ATNO][ 17].d[ 11] =         0.000009836279;
  BAS[ATNO][ 17].a[ 12] =         2.326546208100;     BAS[ATNO][ 17].d[ 12] =        -0.000023849526;
  BAS[ATNO][ 17].a[ 13] =         0.643426296300;     BAS[ATNO][ 17].d[ 13] =         0.000030721925;
  BAS[ATNO][ 17].a[ 14] =         6.000000000000;     BAS[ATNO][ 17].d[ 14] =        -0.000000528888;
  BAS[ATNO][ 17].a[ 15] =         3.680819161500;     BAS[ATNO][ 17].d[ 15] =         0.000006809513;
  BAS[ATNO][ 17].a[ 16] =         2.326546208100;     BAS[ATNO][ 17].d[ 16] =        -0.000016510680;
  BAS[ATNO][ 17].a[ 17] =         0.643426296300;     BAS[ATNO][ 17].d[ 17] =         0.000021268341;
  BAS[ATNO][ 17].a[ 18] =         0.335842819600;     BAS[ATNO][ 17].d[ 18] =         0.000048295971;
  BAS[ATNO][ 17].a[ 19] =         0.335842819600;     BAS[ATNO][ 17].d[ 19] =         0.000117196590;
  BAS[ATNO][ 17].a[ 20] =         0.335842819600;     BAS[ATNO][ 17].d[ 20] =         0.000081974187;
  BAS[ATNO][ 17].a[ 21] =         0.165190519200;     BAS[ATNO][ 17].d[ 21] =        -0.000067250828;

  // Basis function  19 L = s
  InitBFNGauss(BAS[ATNO][ 18]);
  BAS[ATNO][ 18].l  = 0;
  BAS[ATNO][ 18].ng = 22;
  BAS[ATNO][ 18].a[  0] =         5.087399000000;     BAS[ATNO][ 18].d[  0] =         0.000004130027;
  BAS[ATNO][ 18].a[  1] =         4.270978000000;     BAS[ATNO][ 18].d[  1] =        -0.000008022823;
  BAS[ATNO][ 18].a[  2] =         2.182365604500;     BAS[ATNO][ 18].d[  2] =         0.000009085693;
  BAS[ATNO][ 18].a[  3] =         0.489665337800;     BAS[ATNO][ 18].d[  3] =        -0.000023428488;
  BAS[ATNO][ 18].a[  4] =         0.233016753500;     BAS[ATNO][ 18].d[  4] =         0.000023996106;
  BAS[ATNO][ 18].a[  5] =         0.055719523100;     BAS[ATNO][ 18].d[  5] =        -0.000010634422;
  BAS[ATNO][ 18].a[  6] =         0.022854708800;     BAS[ATNO][ 18].d[  6] =         0.000004787741;
  BAS[ATNO][ 18].a[  7] =         6.000000000000;     BAS[ATNO][ 18].d[  7] =         0.000000046677;
  BAS[ATNO][ 18].a[  8] =         3.680819161500;     BAS[ATNO][ 18].d[  8] =        -0.000000470704;
  BAS[ATNO][ 18].a[  9] =         2.326546208100;     BAS[ATNO][ 18].d[  9] =         0.000000907362;
  BAS[ATNO][ 18].a[ 10] =         0.643426296300;     BAS[ATNO][ 18].d[ 10] =        -0.000000614671;
  BAS[ATNO][ 18].a[ 11] =         3.680819161500;     BAS[ATNO][ 18].d[ 11] =        -0.000000181576;
  BAS[ATNO][ 18].a[ 12] =         2.326546208100;     BAS[ATNO][ 18].d[ 12] =         0.000000350018;
  BAS[ATNO][ 18].a[ 13] =         0.643426296300;     BAS[ATNO][ 18].d[ 13] =        -0.000000237112;
  BAS[ATNO][ 18].a[ 14] =         6.000000000000;     BAS[ATNO][ 18].d[ 14] =         0.000000043317;
  BAS[ATNO][ 18].a[ 15] =         3.680819161500;     BAS[ATNO][ 18].d[ 15] =        -0.000000436821;
  BAS[ATNO][ 18].a[ 16] =         2.326546208100;     BAS[ATNO][ 18].d[ 16] =         0.000000842046;
  BAS[ATNO][ 18].a[ 17] =         0.643426296300;     BAS[ATNO][ 18].d[ 17] =        -0.000000570424;
  BAS[ATNO][ 18].a[ 18] =         0.165190519200;     BAS[ATNO][ 18].d[ 18] =        -0.000001022985;
  BAS[ATNO][ 18].a[ 19] =         1.267528801800;     BAS[ATNO][ 18].d[ 19] =        -0.000015100744;
  BAS[ATNO][ 18].a[ 20] =         0.893953402800;     BAS[ATNO][ 18].d[ 20] =         0.000015239317;
  BAS[ATNO][ 18].a[ 21] =         0.330957673400;     BAS[ATNO][ 18].d[ 21] =         0.000010009809;

  // Basis function  20 L = s
  InitBFNGauss(BAS[ATNO][ 19]);
  BAS[ATNO][ 19].l  = 0;
  BAS[ATNO][ 19].ng = 22;
  BAS[ATNO][ 19].a[  0] =         5.087399000000;     BAS[ATNO][ 19].d[  0] =         0.000005092645;
  BAS[ATNO][ 19].a[  1] =         4.270978000000;     BAS[ATNO][ 19].d[  1] =        -0.000009892764;
  BAS[ATNO][ 19].a[  2] =         2.182365604500;     BAS[ATNO][ 19].d[  2] =         0.000011204264;
  BAS[ATNO][ 19].a[  3] =         0.489665337800;     BAS[ATNO][ 19].d[  3] =        -0.000030523707;
  BAS[ATNO][ 19].a[  4] =         0.233016753500;     BAS[ATNO][ 19].d[  4] =         0.000033435479;
  BAS[ATNO][ 19].a[  5] =         0.055719523100;     BAS[ATNO][ 19].d[  5] =        -0.000016671484;
  BAS[ATNO][ 19].a[  6] =         0.022854708800;     BAS[ATNO][ 19].d[  6] =         0.000006887872;
  BAS[ATNO][ 19].a[  7] =         3.680819161500;     BAS[ATNO][ 19].d[  7] =         0.000000164908;
  BAS[ATNO][ 19].a[  8] =         2.326546208100;     BAS[ATNO][ 19].d[  8] =        -0.000000317889;
  BAS[ATNO][ 19].a[  9] =         0.643426296300;     BAS[ATNO][ 19].d[  9] =         0.000000215346;
  BAS[ATNO][ 19].a[ 10] =         6.000000000000;     BAS[ATNO][ 19].d[ 10] =        -0.000000082654;
  BAS[ATNO][ 19].a[ 11] =         3.680819161500;     BAS[ATNO][ 19].d[ 11] =         0.000000833510;
  BAS[ATNO][ 19].a[ 12] =         2.326546208100;     BAS[ATNO][ 19].d[ 12] =        -0.000001606731;
  BAS[ATNO][ 19].a[ 13] =         0.643426296300;     BAS[ATNO][ 19].d[ 13] =         0.000001088442;
  BAS[ATNO][ 19].a[ 14] =         6.000000000000;     BAS[ATNO][ 19].d[ 14] =         0.000000066055;
  BAS[ATNO][ 19].a[ 15] =         3.680819161500;     BAS[ATNO][ 19].d[ 15] =        -0.000000666123;
  BAS[ATNO][ 19].a[ 16] =         2.326546208100;     BAS[ATNO][ 19].d[ 16] =         0.000001284065;
  BAS[ATNO][ 19].a[ 17] =         0.643426296300;     BAS[ATNO][ 19].d[ 17] =        -0.000000869860;
  BAS[ATNO][ 19].a[ 18] =         0.335842819600;     BAS[ATNO][ 19].d[ 18] =         0.000000550471;
  BAS[ATNO][ 19].a[ 19] =         0.165190519200;     BAS[ATNO][ 19].d[ 19] =         0.000001307342;
  BAS[ATNO][ 19].a[ 20] =         0.165190519200;     BAS[ATNO][ 19].d[ 20] =        -0.000001695412;
  BAS[ATNO][ 19].a[ 21] =         0.035400000000;     BAS[ATNO][ 19].d[ 21] =        -0.000002192895;

  // Basis function  21 L = d
  InitBFNGauss(BAS[ATNO][ 20]);
  BAS[ATNO][ 20].l  = 2;
  BAS[ATNO][ 20].ng = 22;
  BAS[ATNO][ 20].a[  0] =         5.087399000000;     BAS[ATNO][ 20].d[  0] =         0.000000050096;
  BAS[ATNO][ 20].a[  1] =         4.270978000000;     BAS[ATNO][ 20].d[  1] =        -0.000000115916;
  BAS[ATNO][ 20].a[  2] =         2.182365604500;     BAS[ATNO][ 20].d[  2] =         0.000000256915;
  BAS[ATNO][ 20].a[  3] =         0.489665337800;     BAS[ATNO][ 20].d[  3] =        -0.000003165080;
  BAS[ATNO][ 20].a[  4] =         0.233016753500;     BAS[ATNO][ 20].d[  4] =         0.000007405800;
  BAS[ATNO][ 20].a[  5] =         0.055719523100;     BAS[ATNO][ 20].d[  5] =        -0.000015838538;
  BAS[ATNO][ 20].a[  6] =         6.000000000000;     BAS[ATNO][ 20].d[  6] =         0.000000002313;
  BAS[ATNO][ 20].a[  7] =         3.680819161500;     BAS[ATNO][ 20].d[  7] =        -0.000000038021;
  BAS[ATNO][ 20].a[  8] =         2.326546208100;     BAS[ATNO][ 20].d[  8] =         0.000000115956;
  BAS[ATNO][ 20].a[  9] =         0.643426296300;     BAS[ATNO][ 20].d[  9] =        -0.000000284033;
  BAS[ATNO][ 20].a[ 10] =         3.680819161500;     BAS[ATNO][ 20].d[ 10] =         0.000000016359;
  BAS[ATNO][ 20].a[ 11] =         2.326546208100;     BAS[ATNO][ 20].d[ 11] =        -0.000000049890;
  BAS[ATNO][ 20].a[ 12] =         0.643426296300;     BAS[ATNO][ 20].d[ 12] =         0.000000122204;
  BAS[ATNO][ 20].a[ 13] =         3.680819161500;     BAS[ATNO][ 20].d[ 13] =         0.000000017531;
  BAS[ATNO][ 20].a[ 14] =         2.326546208100;     BAS[ATNO][ 20].d[ 14] =        -0.000000053466;
  BAS[ATNO][ 20].a[ 15] =         0.643426296300;     BAS[ATNO][ 20].d[ 15] =         0.000000130964;
  BAS[ATNO][ 20].a[ 16] =         0.165190519200;     BAS[ATNO][ 20].d[ 16] =        -0.000001489088;
  BAS[ATNO][ 20].a[ 17] =         1.267528801800;     BAS[ATNO][ 20].d[ 17] =        -0.000012186824;
  BAS[ATNO][ 20].a[ 18] =         0.893953402800;     BAS[ATNO][ 20].d[ 18] =         0.000017438160;
  BAS[ATNO][ 20].a[ 19] =         0.330957673400;     BAS[ATNO][ 20].d[ 19] =         0.000030938794;
  BAS[ATNO][ 20].a[ 20] =         1.267528801800;     BAS[ATNO][ 20].d[ 20] =        -0.000004360392;
  BAS[ATNO][ 20].a[ 21] =         0.893953402800;     BAS[ATNO][ 20].d[ 21] =         0.000006239297;

  // Basis function  22 L = p
  InitBFNGauss(BAS[ATNO][ 21]);
  BAS[ATNO][ 21].l  = 1;
  BAS[ATNO][ 21].ng = 22;
  BAS[ATNO][ 21].a[  0] =         5.087399000000;     BAS[ATNO][ 21].d[  0] =         0.000063936643;
  BAS[ATNO][ 21].a[  1] =         4.270978000000;     BAS[ATNO][ 21].d[  1] =        -0.000135552758;
  BAS[ATNO][ 21].a[  2] =         2.182365604500;     BAS[ATNO][ 21].d[  2] =         0.000135137470;
  BAS[ATNO][ 21].a[  3] =         0.489665337800;     BAS[ATNO][ 21].d[  3] =        -0.000146334677;
  BAS[ATNO][ 21].a[  4] =         0.233016753500;     BAS[ATNO][ 21].d[  4] =         0.000138490346;
  BAS[ATNO][ 21].a[  5] =         0.055719523100;     BAS[ATNO][ 21].d[  5] =        -0.000090092385;
  BAS[ATNO][ 21].a[  6] =         0.022854708800;     BAS[ATNO][ 21].d[  6] =         0.000058720801;
  BAS[ATNO][ 21].a[  7] =         6.000000000000;     BAS[ATNO][ 21].d[  7] =         0.056513777277;
  BAS[ATNO][ 21].a[  8] =         3.680819161500;     BAS[ATNO][ 21].d[  8] =        -0.727623009638;
  BAS[ATNO][ 21].a[  9] =         2.326546208100;     BAS[ATNO][ 21].d[  9] =         1.764230483163;
  BAS[ATNO][ 21].a[ 10] =         0.643426296300;     BAS[ATNO][ 21].d[ 10] =        -2.272605142201;
  BAS[ATNO][ 21].a[ 11] =         6.000000000000;     BAS[ATNO][ 21].d[ 11] =         0.024432314999;
  BAS[ATNO][ 21].a[ 12] =         3.680819161500;     BAS[ATNO][ 21].d[ 12] =        -0.314569569208;
  BAS[ATNO][ 21].a[ 13] =         2.326546208100;     BAS[ATNO][ 21].d[ 13] =         0.762720826198;
  BAS[ATNO][ 21].a[ 14] =         0.643426296300;     BAS[ATNO][ 21].d[ 14] =        -0.982503866826;
  BAS[ATNO][ 21].a[ 15] =         6.000000000000;     BAS[ATNO][ 21].d[ 15] =         0.065058091030;
  BAS[ATNO][ 21].a[ 16] =         3.680819161500;     BAS[ATNO][ 21].d[ 16] =        -0.837632277970;
  BAS[ATNO][ 21].a[ 17] =         2.326546208100;     BAS[ATNO][ 21].d[ 17] =         2.030964357779;
  BAS[ATNO][ 21].a[ 18] =         0.643426296300;     BAS[ATNO][ 21].d[ 18] =        -2.616200143441;
  BAS[ATNO][ 21].a[ 19] =         0.335842819600;     BAS[ATNO][ 21].d[ 19] =         2.547066361509;
  BAS[ATNO][ 21].a[ 20] =         0.335842819600;     BAS[ATNO][ 21].d[ 20] =         1.101160296308;
  BAS[ATNO][ 21].a[ 21] =         0.335842819600;     BAS[ATNO][ 21].d[ 21] =         2.932157167904;

-------------------------------------------
RADIAL EXPECTATION VALUES <R**-3> TO <R**3>
-------------------------------------------
   0 :     0.000000     0.501846     0.677904     1.608707     2.821616     5.395745
   1 :     0.000000     0.082024     0.249801     4.730975    25.360011   151.927538
   2 :     0.097506     0.182867     0.396755     2.940272    10.099179   201.871968
   3 :     0.000000     0.050578     0.180973     7.121279    58.173113   514.740447
   4 :     0.000000     0.295904     0.463820     3.114332    14.214500    90.628831
   5 :     0.289863     0.395238     0.598044     1.846149     3.764164     8.483138
   6 :     0.289863     0.395239     0.598045     1.846148     3.764154     8.483095
   7 :     0.289863     0.395238     0.598044     1.846150     3.764166     8.483147
   8 :     0.097584     0.182991     0.396926     2.938234    10.081766   201.306055
   9 :     0.097599     0.183012     0.396953     2.937960    10.079609   201.236426
  10 :     0.097598     0.183011     0.396952     2.937966    10.079645   201.237869
  11 :     0.097600     0.183014     0.396955     2.937937    10.079433   201.231077
  12 :     0.000000     0.000000     0.000000     0.000000     0.000000     0.000000
  13 :     0.010356     0.030792     0.153544     7.517855    62.496122   563.692955
  14 :     0.000000     0.000000     0.000000     0.000000     0.000000     0.000000
  15 :     0.000000     0.000000     0.000000     0.000000     0.000000     0.000000
  16 :     0.017026     0.041645     0.168070     7.865891    74.823511   800.544548
  17 :     0.000000     0.000000     0.000000     0.000000     0.000000     0.000000
  18 :     0.021604     0.053544     0.197794     6.012882    39.513377  1370.445940
  19 :     4.400457     2.036321     1.216472     1.432296     4.400367    26.092301
  20 :     4.400457     2.036321     1.216472     1.432296     4.400368    26.092312
  21 :     0.000000    19.951681     3.560000     0.393086     0.284342     0.715283
  22 :     0.021604     0.053545     0.197795     6.012868    39.513263  1370.442168
  23 :     0.021604     0.053545     0.197794     6.012877    39.513333  1370.444111
  24 :     0.021612     0.053557     0.197812     6.012664    39.511582  1370.384059
  25 :     0.021678     0.053664     0.197961     6.010906    39.497196  1369.868335
  26 :     0.023428     0.074348     0.261315     4.113109    18.004920   582.699409
  27 :     0.023428     0.074348     0.261315     4.113109    18.004920   582.699389
  28 :     0.023428     0.074348     0.261315     4.113108    18.004918   582.699320
  29 :     0.023428     0.074348     0.261315     4.113109    18.004921   582.699437
  30 :     0.023428     0.074348     0.261315     4.113107    18.004905   582.698779
  31 :     0.023428     0.074348     0.261315     4.113107    18.004912   582.699044
  32 :     0.023428     0.074348     0.261315     4.113107    18.004908   582.698879
  33 :     0.130971     0.184028     0.358567     3.997274    22.804797   178.497452
  34 :     0.130970     0.184028     0.358566     3.997289    22.804958   178.498973
  35 :     0.130970     0.184027     0.358566     3.997298    22.805081   178.500338
  36 :     0.123797     0.200554     0.393004     3.414501    15.208503   417.743399
  37 :     0.123798     0.200556     0.393006     3.414491    15.208449   417.742255
  38 :     0.123802     0.200561     0.393012     3.414449    15.208181   417.734767
  39 :     0.123797     0.200554     0.393004     3.414502    15.208518   417.744086
  40 :     0.123815     0.200578     0.393032     3.414258    15.206580   417.674595
  41 :     0.119063     0.216989     0.438606     2.657524     8.494511   228.876993
  42 :     0.119063     0.216989     0.438606     2.657524     8.494512   228.877048
  43 :     0.119063     0.216989     0.438606     2.657525     8.494515   228.877178
  44 :     0.119063     0.216989     0.438606     2.657526     8.494525   228.877584
  45 :     0.119063     0.216989     0.438606     2.657524     8.494508   228.876878
  46 :     0.119063     0.216989     0.438606     2.657525     8.494519   228.877335
  47 :     0.119063     0.216989     0.438606     2.657525     8.494516   228.877230
  48 :     0.000000     2.121668     1.276187     1.003792     1.699491     6.517317
  49 :     4.400457     2.036321     1.216472     1.432296     4.400368    26.092312
Making the total density                ... o.k.
o.k.
Initializing the integrals              ... done
Making exponents                        ... done
Making rho(0)                           ... done (         0.000103963)
Integral calculation                    ... Two index integrals                     ... done
Solving the equation system             ... done
atomic density will be written to file 57_La_atom57.adf

-------
TIMINGS
-------

Total SCF time: 0 days 0 hours 0 min 30 sec 

Total time                  ....      30.213 sec
Sum of individual times     ....      27.476 sec  ( 90.9%)

Fock matrix formation       ....      23.729 sec  ( 78.5%)
Diagonalization             ....       1.812 sec  (  6.0%)
Density matrix formation    ....       0.034 sec  (  0.1%)
Population analysis         ....       0.000 sec  (  0.0%)
Initial guess               ....       0.001 sec  (  0.0%)
Orbital Transformation      ....       0.000 sec  (  0.0%)
Orbital Orthonormalization  ....       0.000 sec  (  0.0%)
DIIS solution               ....       1.901 sec  (  6.3%)

-------------------------   --------------------
FINAL SINGLE POINT ENERGY       -31.070441256007
-------------------------   --------------------


                            ***************************************
                            *     ORCA property calculations      *
                            ***************************************

                                    ---------------------
                                    Active property flags
                                    ---------------------
   (+) Dipole Moment


------------------------------------------------------------------------------
                       ORCA ELECTRIC PROPERTIES CALCULATION
------------------------------------------------------------------------------

Dipole Moment Calculation                       ... on
Quadrupole Moment Calculation                   ... off
Polarizability Calculation                      ... off
GBWName                                         ... 57_La_atom57.gbw
Electron density file                           ... 57_La_atom57.scfp
The origin for moment calculation is the CENTER OF MASS  = ( 0.000000,  0.000000  0.000000)

-------------
DIPOLE MOMENT
-------------
                                X             Y             Z
Electronic contribution:     -0.00099      -0.00102      -0.00117
Nuclear contribution   :      0.00000       0.00000       0.00000
                        -----------------------------------------
Total Dipole Moment    :     -0.00099      -0.00102      -0.00117
                        -----------------------------------------
Magnitude (a.u.)       :      0.00184
Magnitude (Debye)      :      0.00467



--------------------
Rotational spectrum 
--------------------
 
Rotational constants in cm-1:     0.000000     0.000000     0.000000 
Rotational constants in MHz :     0.000000     0.000000     0.000000 

 Dipole components along the rotational axes: 
x,y,z [a.u.] :    -0.000987    -0.001020    -0.001168 
x,y,z [Debye]:    -0.002510    -0.002592    -0.002969 

 

Timings for individual modules:

Sum of individual times         ...       30.554 sec (=   0.509 min)
GTO integral calculation        ...        0.314 sec (=   0.005 min)   1.0 %
SCF iterations                  ...       30.240 sec (=   0.504 min)  99.0 %
                             ****ORCA TERMINATED NORMALLY****
TOTAL RUN TIME: 0 days 0 hours 0 minutes 30 seconds 787 msec
