
                                 *****************
                                 * O   R   C   A *
                                 *****************

           --- An Ab Initio, DFT and Semiempirical electronic structure package ---

                  #######################################################
                  #                        -***-                        #
                  #          Department of theory and spectroscopy      #
                  #               Directorship: Frank Neese             #
                  #        Max Planck Institute fuer Kohlenforschung    #
                  #                Kaiser Wilhelm Platz 1               #
                  #                 D-45470 Muelheim/Ruhr               #
                  #                      Germany                        #
                  #                                                     #
                  #                  All rights reserved                #
                  #                        -***-                        #
                  #######################################################


                         Program Version 4.2.0 -  RELEASE  -


 With contributions from (in alphabetic order):
   Daniel Aravena         : Magnetic Suceptibility
   Michael Atanasov       : Ab Initio Ligand Field Theory (pilot matlab implementation)
   Alexander A. Auer      : GIAO ZORA, VPT2
   Ute Becker             : Parallelization
   Giovanni Bistoni       : ED, misc. LED, open-shell LED, HFLED
   Martin Brehm           : Molecular dynamics
   Dmytro Bykov           : SCF Hessian
   Vijay G. Chilkuri      : MRCI spin determinant printing, contributions to CSF-ICE
   Dipayan Datta          : RHF DLPNO-CCSD density
   Achintya Kumar Dutta   : EOM-CC, STEOM-CC
   Dmitry Ganyushin       : Spin-Orbit,Spin-Spin,Magnetic field MRCI
   Miquel Garcia          : C-PCM Hessian, Gaussian charge scheme
   Yang Guo               : DLPNO-NEVPT2, CIM, IAO-localization
   Andreas Hansen         : Spin unrestricted coupled pair/coupled cluster methods
   Benjamin Helmich-Paris : CASSCF linear response (MC-RPA)
   Lee Huntington         : MR-EOM, pCC
   Robert Izsak           : Overlap fitted RIJCOSX, COSX-SCS-MP3, EOM
   Christian Kollmar      : KDIIS, OOCD, Brueckner-CCSD(T), CCSD density
   Simone Kossmann        : Meta GGA functionals, TD-DFT gradient, OOMP2, MP2 Hessian
   Martin Krupicka        : AUTO-CI
   Lucas Lang             : DCDCAS
   Dagmar Lenk            : GEPOL surface, SMD
   Dimitrios Liakos       : Extrapolation schemes; Compound Job, initial MDCI parallelization
   Dimitrios Manganas     : Further ROCIS development; embedding schemes
   Dimitrios Pantazis     : SARC Basis sets
   Taras Petrenko         : DFT Hessian,TD-DFT gradient, ASA, ECA, R-Raman, ABS, FL, XAS/XES, NRVS
   Peter Pinski           : DLPNO-MP2, DLPNO-MP2 Gradient
   Christoph Reimann      : Effective Core Potentials
   Marius Retegan         : Local ZFS, SOC
   Christoph Riplinger    : Optimizer, TS searches, QM/MM, DLPNO-CCSD(T), (RO)-DLPNO pert. Triples
   Tobias Risthaus        : Range-separated hybrids, TD-DFT gradient, RPA, STAB
   Michael Roemelt        : Original ROCIS implementation
   Masaaki Saitow         : Open-shell DLPNO-CCSD energy and density
   Barbara Sandhoefer     : DKH picture change effects
   Avijit Sen             : IP-ROCIS
   Kantharuban Sivalingam : CASSCF convergence, NEVPT2, FIC-MRCI
   Bernardo de Souza      : ESD, SOC TD-DFT
   Georgi Stoychev        : AutoAux, RI-MP2 NMR
   Willem Van den Heuvel  : Paramagnetic NMR
   Boris Wezisla          : Elementary symmetry handling
   Frank Wennmohs         : Technical directorship


 We gratefully acknowledge several colleagues who have allowed us to
 interface, adapt or use parts of their codes:
   Stefan Grimme, W. Hujo, H. Kruse,             : VdW corrections, initial TS optimization,
                  C. Bannwarth                     DFT functionals, gCP, sTDA/sTD-DF
   Ed Valeev, F. Pavosevic, A. Kumar             : LibInt (2-el integral package), F12 methods
   Garnet Chan, S. Sharma, J. Yang, R. Olivares  : DMRG
   Ulf Ekstrom                                   : XCFun DFT Library
   Mihaly Kallay                                 : mrcc  (arbitrary order and MRCC methods)
   Andreas Klamt, Michael Diedenhofen            : otool_cosmo (COSMO solvation model)
   Jiri Pittner, Ondrej Demel                    : Mk-CCSD
   Frank Weinhold                                : gennbo (NPA and NBO analysis)
   Christopher J. Cramer and Donald G. Truhlar   : smd solvation model
   Lars Goerigk                                  : TD-DFT with DH, B97 family of functionals
   V. Asgeirsson, H. Jonsson                     : NEB implementation
   FAccTs GmbH                                   : IRC, NEB, NEB-TS, Multilevel, MM, QM/MM, CI optimization
   S Lehtola, MJT Oliveira, MAL Marques          : LibXC Library


 Your calculation uses the libint2 library for the computation of 2-el integrals
 For citations please refer to: http://libint.valeyev.net

 Your ORCA version has been built with support for libXC version: 4.2.3
 For citations please refer to: https://tddft.org/programs/libxc/

 This ORCA versions uses:
   CBLAS   interface :  Fast vector & matrix operations
   LAPACKE interface :  Fast linear algebra routines
   SCALAPACK package :  Parallel linear algebra routines


Setting NCore(Ta) from 46 to 60
----- Orbital basis set information -----
Your calculation utilizes the basis: def2-TZVPPD
   F. Weigend and R. Ahlrichs, Phys. Chem. Chem. Phys. 7, 3297 (2005).
   D. Rappoport and F. Furche, J. Chem. Phys. 133 134105 (2010).

cite the ECPs for Ta [Def2-ECP] as follows:
Ce-Yb(ecp-28): M. Dolg, H. Stoll, H.Preuss, J. Chem. Phys., 1989, 90, 1730-1734.
Y-Cd(ecp-28), Hf-Hg(ecp-46): D. Andrae,U. Haeussermann, M. Dolg, H. Stoll, H. Preuss, Theor. Chim. Acta, 1990, 77, 123-141.
In-Sb(ecp-28), Tl-Bi(ecp-46): B. Metz, H. Stoll, M. Dolg, J. Chem. Phys., 2000, 113, 2563-2569.
Te-Xe(ecp-28), Po-Rn(ecp-46): K. A. Peterson, D. Figgen, E. Goll, H. Stoll, M. Dolg, J. Chem. Phys., 2003, 119, 11113-11123.
Rb(ecp-28), Cs(ecp-46): T. Leininger, A. Nicklass, W. Kuechle, H. Stoll, M. Dolg, A. Bergner, Chem. Phys. Lett., 1996, 255, 274-280.
Sr(ecp-28), Ba(ecp-46): M. Kaupp, P. V. Schleyer, H. Stoll and H. Preuss, J. Chem. Phys., 1991, 94, 1360-1366.
La(ecp-46): M. Dolg, H. Stoll, A. Savin, H. Preuss, Theor. Chim. Acta, 1989, 75, 173-194.
Lu(ecp-28): X. Cao, M. Dolg, J. Chem. Phys., 2001, 115, 7348-7355.

ECP parameters for Ta [Def2-ECP] have been obtained from:
TURBOMOLE (7.0.2)

================================================================================
                                        WARNINGS
                       Please study these warnings very carefully!
================================================================================


WARNING: your system is open-shell and RHF/RKS was chosen
  ===> : WILL SWITCH to UHF/UKS


WARNING: MDCI localization with Augmented Hessian Foster-Boys
  ===> : Switching off randomization!

WARNING: Post HF methods need fully converged wavefunctions
  ===> : Setting SCFConvForced true
         You can overwrite this default with %scf ConvForced false 


INFO   : the flag for use of LIBINT has been found!

================================================================================
                                       INPUT FILE
================================================================================
NAME = 73_Ta.in
|  1> #
|  2> # 73_Ta CCSD(T)/Def2-TZVPPD
|  3> #
|  4> ! CCSD(T) Def2-TZVPPD tightscf slowconv
|  5> 
|  6> *xyz 0 4
|  7>  Ta 0.0 0.0 0.0
|  8> *
|  9> 
| 10> %maxcore 5000 
| 11> 
| 12> %pal
| 13> nprocs 24
| 14> end
| 15> 
| 16> %method
| 17> NewNCore Ta 60 end
| 18> end
| 19> 
| 20> 
| 21>                          ****END OF INPUT****
================================================================================

                       ****************************
                       * Single Point Calculation *
                       ****************************

---------------------------------
CARTESIAN COORDINATES (ANGSTROEM)
---------------------------------
  Ta     0.000000    0.000000    0.000000

----------------------------
CARTESIAN COORDINATES (A.U.)
----------------------------
  NO LB      ZA    FRAG     MASS         X           Y           Z
   0 Ta   13.0000*   0   180.948    0.000000    0.000000    0.000000
* core charge reduced due to ECP

--------------------------------
INTERNAL COORDINATES (ANGSTROEM)
--------------------------------
 Ta     0   0   0     0.000000000000     0.00000000     0.00000000

---------------------------
INTERNAL COORDINATES (A.U.)
---------------------------
 Ta     0   0   0     0.000000000000     0.00000000     0.00000000

---------------------
BASIS SET INFORMATION
---------------------
There are 1 groups of distinct atoms

 Group   1 Type Ta  : 9s8p5d2f1g contracted to 6s5p3d2f1g pattern {411111/41111/311/11/1}

Atom   0Ta   basis set group =>   1
-------------------------
ECP PARAMETER INFORMATION
-------------------------

 Group 1, Type Ta ECP Def2-ECP (replacing 60 core electrons, lmax=3)

Atom   0Ta   ECP group =>   1



           ************************************************************
           *        Program running with 24 parallel MPI-processes    *
           *              working on a common directory               *
           ************************************************************
------------------------------------------------------------------------------
                           ORCA GTO INTEGRAL CALCULATION
------------------------------------------------------------------------------

                         BASIS SET STATISTICS AND STARTUP INFO

 # of primitive gaussian shells          ...   25
 # of primitive gaussian functions       ...   81
 # of contracted shells                  ...   17
 # of contracted basis functions         ...   59
 Highest angular momentum                ...    4
 Maximum contraction depth               ...    4
 Integral package used                   ... LIBINT
 Integral threshhold            Thresh   ...  2.500e-11
 Primitive cut-off              TCut     ...  2.500e-12


------------------------------ INTEGRAL EVALUATION ----------------------------


 * One electron integrals 

   ECP integrals                         ... done
 Pre-screening matrix                    ... done
 Shell pair data                         ... done (   0.000 sec)



           ************************************************************
           *        Program running with 24 parallel MPI-processes    *
           *              working on a common directory               *
           ************************************************************
-------------------------------------------------------------------------------
                                 ORCA SCF
-------------------------------------------------------------------------------

------------
SCF SETTINGS
------------
Hamiltonian:
 Ab initio Hamiltonian  Method          .... Hartree-Fock(GTOs)


General Settings:
 Integral files         IntName         .... 73_Ta
 Hartree-Fock type      HFTyp           .... UHF
 Total Charge           Charge          ....    0
 Multiplicity           Mult            ....    4
 Number of Electrons    NEL             ....   13
 Basis Dimension        Dim             ....   59
 Nuclear Repulsion      ENuc            ....      0.0000000000 Eh

Convergence Acceleration:
 DIIS                   CNVDIIS         .... on
   Start iteration      DIISMaxIt       ....     0
   Startup error        DIISStart       ....  0.200000
   # of expansion vecs  DIISMaxEq       ....     5
   Bias factor          DIISBfac        ....   1.050
   Max. coefficient     DIISMaxC        ....  10.000
 Newton-Raphson         CNVNR           .... off
 SOSCF                  CNVSOSCF        .... off
 Level Shifting         CNVShift        .... on
   Level shift para.    LevelShift      ....    0.2500
   Turn off err/grad.   ShiftErr        ....    0.0000
 Zerner damping         CNVZerner       .... off
 Static damping         CNVDamp         .... on
   Fraction old density DampFac         ....    0.8500
   Max. Damping (<1)    DampMax         ....    0.9800
   Min. Damping (>=0)   DampMin         ....    0.0000
   Turn off err/grad.   DampErr         ....    0.0300
 Fernandez-Rico         CNVRico         .... off

SCF Procedure:
 Maximum # iterations   MaxIter         ....   125
 SCF integral mode      SCFMode         .... Direct
   Integral package                     .... LIBINT
 Reset frequency        DirectResetFreq ....    20
 Integral Threshold     Thresh          ....  2.500e-11 Eh
 Primitive CutOff       TCut            ....  2.500e-12 Eh

Convergence Tolerance:
 Convergence Check Mode ConvCheckMode   .... Total+1el-Energy
 Convergence forced     ConvForced      .... 1
 Energy Change          TolE            ....  1.000e-08 Eh
 1-El. energy change                    ....  1.000e-05 Eh
 DIIS Error             TolErr          ....  5.000e-07


Diagonalization of the overlap matrix:
Smallest eigenvalue                        ... 2.105e-02
Time for diagonalization                   ...    0.002 sec
Threshold for overlap eigenvalues          ... 1.000e-08
Number of eigenvalues below threshold      ... 0
Time for construction of square roots      ...    0.012 sec
Total time needed                          ...    0.013 sec

-------------------
DFT GRID GENERATION
-------------------

General Integration Accuracy     IntAcc      ...  4.340
Radial Grid Type                 RadialGrid  ... Gauss-Chebyshev
Angular Grid (max. acc.)         AngularGrid ... Lebedev-110
Angular grid pruning method      GridPruning ... 3 (G Style)
Weight generation scheme         WeightScheme... Becke
Basis function cutoff            BFCut       ...    1.0000e-11
Integration weight cutoff        WCut        ...    1.0000e-14
Grids for H and He will be reduced by one unit

# of grid points (after initial pruning)     ...   3590 (   0.0 sec)
# of grid points (after weights+screening)   ...   3590 (   0.0 sec)
Grid point division into batches done        ...    0.0 sec
Reduced shell lists constructed in    0.0 sec

Total number of grid points                  ...     3590
Total number of batches                      ...       57
Average number of points per batch           ...       62
Average number of grid points per atom       ...     3590
Average number of shells per batch           ...     5.25 (30.88%)
Average number of basis functions per batch  ...    18.75 (31.78%)
Average number of large shells per batch     ...     3.75 (71.43%)
Average number of large basis fcns per batch ...     9.75 (52.00%)
Maximum spatial batch extension              ...  25.56, 38.92, 38.92 au
Average spatial batch extension              ...   1.27,  1.82,  2.05 au

Time for grid setup =    0.068 sec

------------------------------
INITIAL GUESS: MODEL POTENTIAL
------------------------------
Loading Hartree-Fock densities                     ... done
  calling /sw/apps/orca/orca_4_2_0_linux_x86-64_openmpi314/orca 73_Ta_atom73.inp > 73_Ta_atom73.out in order to generate an atomic fitting density for atom 0 (Ta with ECP) on-the-fly... 
    atom 0 (Ta), assumed electronic state with S=4: 1s2 2s2 2p6 3s2 3p6 4s2 3d10 4p6 5s2 4d10 5p6 6s2 4f14 5d3           ... done
Calculating cut-offs                               ... done
Setting up the integral package                    ... done
Initializing the effective Hamiltonian             ... done
Starting the Coulomb interaction                   ... done (   0.0 sec)
Reading the grid                                   ... done
Mapping shells                                     ... done
Starting the XC term evaluation                    ... done (   0.0 sec)
Transforming the Hamiltonian                       ... done (   0.0 sec)
Diagonalizing the Hamiltonian                      ... done (   0.0 sec)
Back transforming the eigenvectors                 ... done (   0.0 sec)
Now organizing SCF variables                       ... done
                      ------------------
                      INITIAL GUESS DONE (   1.9 sec)
                      ------------------
--------------
SCF ITERATIONS
--------------
ITER       Energy         Delta-E        Max-DP      RMS-DP      [F,P]     Damp
               ***  Starting incremental Fock matrix formation  ***
  0    -56.1039951404   0.000000000000 0.10887152  0.00260566  0.3815764 0.8500
  1    -56.1344544523  -0.030459311858 0.09792617  0.00251270  0.3245248 0.8500
                               ***Turning on DIIS***
  2    -56.1600923561  -0.025637903814 0.08277241  0.00221033  0.2748555 0.8500
  3    -56.4562064085  -0.296114052370 0.06805066  0.00187083  0.2327776 0.8500
  4    -56.6342999750  -0.178093566549 0.05980987  0.00159428  0.1976554 0.8500
  5    -56.6502854385  -0.015985463500 0.05455196  0.00138255  0.1681890 0.8500
  6    -56.6193010709   0.030984367593 0.04935824  0.00120766  0.1432115 0.8500
  7    -56.5633783225   0.055922748440 0.04467805  0.00106393  0.1219530 0.8500
  8    -56.5183064979   0.045071824645 0.04022104  0.00093575  0.1037922 0.8500
  9    -56.4826069814   0.035699516436 0.03593701  0.00081971  0.0882998 0.8500
 10    -56.4535748847   0.029032096732 0.03190343  0.00071568  0.0751045 0.8500
 11    -56.4293419219   0.024232962760 0.02818645  0.00062342  0.0638756 0.8500
 12    -56.4088041871   0.020537734783 0.02481304  0.00054221  0.0543236 0.8500
 13    -56.3913339952   0.017470191896 0.02178208  0.00047104  0.0461991 0.8500
 14    -56.3764731696   0.014860825670 0.01907879  0.00040885  0.0392891 0.8500
 15    -56.3638388445   0.012634325097 0.01668137  0.00035464  0.0334123 0.8500
 16    -56.3531013486   0.010737495912 0.09709748  0.00204980  0.0284143 0.0000
 17    -56.2916489743   0.061452374243 0.00517933  0.00009722  0.0020255 0.0000
 18    -56.2923967842  -0.000747809881 0.00553357  0.00010627  0.0019386 0.0000
 19    -56.2925436850  -0.000146900793 0.00573478  0.00012010  0.0017809 0.0000
               *** Restarting incremental Fock matrix formation ***
                                   *** Resetting DIIS ***
 20    -56.2923640259   0.000179659135 0.00078056  0.00002601  0.0015638 0.0000
 21    -56.2924164953  -0.000052469433 0.00094875  0.00002711  0.0014757 0.0000
 22    -56.2926743106  -0.000257815334 0.00201277  0.00005376  0.0014111 0.0000
 23    -56.2931328044  -0.000458493805 0.00583620  0.00015060  0.0012393 0.0000
 24    -56.2929484696   0.000184334855 0.00178930  0.00004990  0.0009820 0.0000
 25    -56.2928904400   0.000058029608 0.00493138  0.00012728  0.0007597 0.0000
 26    -56.2926280744   0.000262365611 0.00130833  0.00004007  0.0006870 0.0000
 27    -56.2926579537  -0.000029879335 0.00191581  0.00005305  0.0003633 0.0000
 28    -56.2926337448   0.000024208872 0.00097017  0.00002996  0.0003023 0.0000
 29    -56.2925762021   0.000057542681 0.00037718  0.00001509  0.0001839 0.0000
 30    -56.2925764550  -0.000000252862 0.00023037  0.00000828  0.0000978 0.0000
 31    -56.2925511642   0.000025290806 0.00012894  0.00000373  0.0000662 0.0000
 32    -56.2925480245   0.000003139734 0.00006487  0.00000231  0.0000452 0.0000
 33    -56.2925512751  -0.000003250666 0.00005198  0.00000187  0.0000313 0.0000
 34    -56.2925563284  -0.000005053249 0.00004185  0.00000156  0.0000226 0.0000
 35    -56.2925580058  -0.000001677379 0.00003047  0.00000132  0.0000166 0.0000
 36    -56.2925590132  -0.000001007475 0.00001897  0.00000097  0.0000124 0.0000
 37    -56.2925580689   0.000000944324 0.00001688  0.00000081  0.0000106 0.0000
 38    -56.2925572713   0.000000797641 0.00001488  0.00000074  0.0000104 0.0000
 39    -56.2925567418   0.000000529495 0.00001791  0.00000078  0.0000093 0.0000
               *** Restarting incremental Fock matrix formation ***
                                   *** Resetting DIIS ***
 40    -56.2925574222  -0.000000680462 0.00000414  0.00000023  0.0000085 0.0000
 41    -56.2925574107   0.000000011571 0.00000484  0.00000025  0.0000079 0.0000
                 **** Energy Check signals convergence ****

               *****************************************************
               *                     SUCCESS                       *
               *           SCF CONVERGED AFTER  42 CYCLES          *
               *****************************************************


----------------
TOTAL SCF ENERGY
----------------

Total Energy       :          -56.29255742 Eh           -1531.79836 eV

Components:
Nuclear Repulsion  :            0.00000000 Eh               0.00000 eV
Electronic Energy  :          -56.29255742 Eh           -1531.79836 eV
One Electron Energy:          -94.56403956 Eh           -2573.21834 eV
Two Electron Energy:           38.27148215 Eh            1041.41997 eV

Virial components:
Potential Energy   :          -75.74785311 Eh           -2061.20387 eV
Kinetic Energy     :           19.45529569 Eh             529.40551 eV
Virial Ratio       :            3.89343109


---------------
SCF CONVERGENCE
---------------

  Last Energy change         ...   -5.4877e-09  Tolerance :   1.0000e-08
  Last MAX-Density change    ...    8.7705e-06  Tolerance :   1.0000e-07
  Last RMS-Density change    ...    4.0068e-07  Tolerance :   5.0000e-09
  Last DIIS Error            ...    7.4678e-06  Tolerance :   5.0000e-07

             **** THE GBW FILE WAS UPDATED (73_Ta.gbw) ****
             **** DENSITY FILE WAS UPDATED (73_Ta.scfp) ****
             **** ENERGY FILE WAS UPDATED (73_Ta.en.tmp) ****
----------------------
UHF SPIN CONTAMINATION
----------------------

Expectation value of <S**2>     :     3.776585
Ideal value S*(S+1) for S=1.5   :     3.750000
Deviation                       :     0.026585

             **** THE GBW FILE WAS UPDATED (73_Ta.gbw) ****
             **** DENSITY FILE WAS UPDATED (73_Ta.scfp) ****
----------------
ORBITAL ENERGIES
----------------
                 SPIN UP ORBITALS
  NO   OCC          E(Eh)            E(eV) 
   0   1.0000      -3.186123       -86.6988 
   1   1.0000      -1.791056       -48.7371 
   2   1.0000      -1.791038       -48.7366 
   3   1.0000      -1.791028       -48.7364 
   4   1.0000      -0.327282        -8.9058 
   5   1.0000      -0.327270        -8.9055 
   6   1.0000      -0.327255        -8.9051 
   7   1.0000      -0.282424        -7.6851 
   8   0.0000       0.027253         0.7416 
   9   0.0000       0.027258         0.7417 
  10   0.0000       0.027260         0.7418 
  11   0.0000       0.081857         2.2274 
  12   0.0000       0.081864         2.2276 
  13   0.0000       0.146883         3.9969 
  14   0.0000       0.146888         3.9970 
  15   0.0000       0.146891         3.9971 
  16   0.0000       0.171145         4.6571 
  17   0.0000       0.300513         8.1774 
  18   0.0000       0.300515         8.1774 
  19   0.0000       0.300517         8.1775 
  20   0.0000       0.345412         9.3991 
  21   0.0000       0.345414         9.3992 
  22   0.0000       0.647711        17.6251 
  23   0.0000       0.667780        18.1712 
  24   0.0000       0.667788        18.1714 
  25   0.0000       0.667802        18.1718 
  26   0.0000       0.681627        18.5480 
  27   0.0000       0.681631        18.5481 
  28   0.0000       0.681642        18.5484 
  29   0.0000       0.859999        23.4018 
  30   0.0000       0.860004        23.4019 
  31   0.0000       0.860005        23.4019 
  32   0.0000       1.324340        36.0371 
  33   0.0000       1.324345        36.0373 
  34   0.0000       1.324354        36.0375 
  35   0.0000       1.364516        37.1304 
  36   0.0000       1.364517        37.1304 
  37   0.0000       1.763413        47.9849 
  38   0.0000       1.763414        47.9849 
  39   0.0000       1.763415        47.9850 
  40   0.0000       1.769148        48.1410 
  41   0.0000       1.769149        48.1410 
  42   0.0000       1.770453        48.1765 
  43   0.0000       1.770455        48.1765 
  44   0.0000       1.770457        48.1766 
  45   0.0000       1.771769        48.2123 
  46   0.0000       1.901874        51.7526 
  47   0.0000       2.073011        56.4095 
  48   0.0000       2.101156        57.1754 
  49   0.0000       2.101163        57.1756 
  50   0.0000       2.101177        57.1759 
  51   0.0000       2.123988        57.7967 
  52   0.0000       2.123996        57.7969 
  53   0.0000       2.124010        57.7973 
  54   0.0000      35.074918       954.4370 
  55   0.0000      35.074922       954.4372 
  56   0.0000      35.074931       954.4374 
  57   0.0000      78.529642      2136.9002 
  58   0.0000     677.926304     18447.3126 

                 SPIN DOWN ORBITALS
  NO   OCC          E(Eh)            E(eV) 
   0   1.0000      -3.083068       -83.8946 
   1   1.0000      -1.632390       -44.4196 
   2   1.0000      -1.632375       -44.4192 
   3   1.0000      -1.632348       -44.4185 
   4   1.0000      -0.217417        -5.9162 
   5   0.0000       0.034470         0.9380 
   6   0.0000       0.034476         0.9381 
   7   0.0000       0.034481         0.9383 
   8   0.0000       0.118754         3.2315 
   9   0.0000       0.118761         3.2317 
  10   0.0000       0.136774         3.7218 
  11   0.0000       0.136776         3.7219 
  12   0.0000       0.136786         3.7221 
  13   0.0000       0.171359         4.6629 
  14   0.0000       0.171368         4.6632 
  15   0.0000       0.171376         4.6634 
  16   0.0000       0.201861         5.4929 
  17   0.0000       0.362903         9.8751 
  18   0.0000       0.362906         9.8752 
  19   0.0000       0.378354        10.2955 
  20   0.0000       0.378355        10.2956 
  21   0.0000       0.378361        10.2957 
  22   0.0000       0.722598        19.6629 
  23   0.0000       0.722607        19.6631 
  24   0.0000       0.722609        19.6632 
  25   0.0000       0.729937        19.8626 
  26   0.0000       0.729949        19.8629 
  27   0.0000       0.729955        19.8631 
  28   0.0000       0.739171        20.1139 
  29   0.0000       0.911427        24.8012 
  30   0.0000       0.911441        24.8016 
  31   0.0000       0.911456        24.8020 
  32   0.0000       1.384849        37.6837 
  33   0.0000       1.384850        37.6837 
  34   0.0000       1.405124        38.2354 
  35   0.0000       1.405127        38.2355 
  36   0.0000       1.405133        38.2356 
  37   0.0000       1.806692        49.1626 
  38   0.0000       1.812423        49.3185 
  39   0.0000       1.812426        49.3186 
  40   0.0000       1.812427        49.3186 
  41   0.0000       1.816511        49.4298 
  42   0.0000       1.816512        49.4298 
  43   0.0000       1.828600        49.7587 
  44   0.0000       1.828605        49.7589 
  45   0.0000       1.828612        49.7591 
  46   0.0000       1.953531        53.1583 
  47   0.0000       2.189183        59.5707 
  48   0.0000       2.189195        59.5710 
  49   0.0000       2.189201        59.5712 
  50   0.0000       2.203544        59.9615 
  51   0.0000       2.203566        59.9621 
  52   0.0000       2.203578        59.9624 
  53   0.0000       2.221953        60.4624 
  54   0.0000      35.092970       954.9283 
  55   0.0000      35.092978       954.9285 
  56   0.0000      35.092991       954.9288 
  57   0.0000      78.533757      2137.0122 
  58   0.0000     677.926423     18447.3158 

                    ********************************
                    * MULLIKEN POPULATION ANALYSIS *
                    ********************************

--------------------------------------------
MULLIKEN ATOMIC CHARGES AND SPIN POPULATIONS
--------------------------------------------
   0 Ta:   -0.000000    3.000000
Sum of atomic charges         :   -0.0000000
Sum of atomic spin populations:    3.0000000

-----------------------------------------------------
MULLIKEN REDUCED ORBITAL CHARGES AND SPIN POPULATIONS
-----------------------------------------------------
CHARGE
  0 Tas       :     3.999816  s :     3.999816
      pz      :     1.999379  p :     5.998136
      px      :     1.999379
      py      :     1.999379
      dz2     :     0.004373  d :     2.999916
      dxz     :     0.994113
      dyz     :     0.999967
      dx2y2   :     0.001613
      dxy     :     0.999850
      f0      :     0.000618  f :     0.001864
      f+1     :     0.000235
      f-1     :     0.000233
      f+2     :     0.000003
      f-2     :     0.000000
      f+3     :     0.000387
      f-3     :     0.000388
      g0      :     0.000106  g :     0.000268
      g+1     :     0.000005
      g-1     :     0.000004
      g+2     :     0.000000
      g-2     :     0.000028
      g+3     :     0.000025
      g-3     :     0.000024
      g+4     :     0.000077
      g-4     :     0.000000

SPIN
  0 Tas       :    -0.000076  s :    -0.000076
      pz      :    -0.000562  p :    -0.001685
      px      :    -0.000562
      py      :    -0.000562
      dz2     :     0.004373  d :     2.999916
      dxz     :     0.994113
      dyz     :     0.999967
      dx2y2   :     0.001613
      dxy     :     0.999850
      f0      :     0.000559  f :     0.001685
      f+1     :     0.000212
      f-1     :     0.000211
      f+2     :     0.000003
      f-2     :     0.000000
      f+3     :     0.000350
      f-3     :     0.000351
      g0      :     0.000044  g :     0.000161
      g+1     :     0.000004
      g-1     :     0.000004
      g+2     :     0.000000
      g-2     :     0.000028
      g+3     :     0.000025
      g-3     :     0.000024
      g+4     :     0.000032
      g-4     :     0.000000


                     *******************************
                     * LOEWDIN POPULATION ANALYSIS *
                     *******************************

-------------------------------------------
LOEWDIN ATOMIC CHARGES AND SPIN POPULATIONS
-------------------------------------------
   0 Ta:   -0.000000    3.000000

----------------------------------------------------
LOEWDIN REDUCED ORBITAL CHARGES AND SPIN POPULATIONS
----------------------------------------------------
CHARGE
  0 Tas       :     3.999816  s :     3.999816
      pz      :     1.999379  p :     5.998136
      px      :     1.999379
      py      :     1.999379
      dz2     :     0.004373  d :     2.999916
      dxz     :     0.994113
      dyz     :     0.999967
      dx2y2   :     0.001613
      dxy     :     0.999850
      f0      :     0.000618  f :     0.001864
      f+1     :     0.000235
      f-1     :     0.000233
      f+2     :     0.000003
      f-2     :     0.000000
      f+3     :     0.000387
      f-3     :     0.000388
      g0      :     0.000106  g :     0.000268
      g+1     :     0.000005
      g-1     :     0.000004
      g+2     :     0.000000
      g-2     :     0.000028
      g+3     :     0.000025
      g-3     :     0.000024
      g+4     :     0.000077
      g-4     :     0.000000

SPIN
  0 Tas       :    -0.000076  s :    -0.000076
      pz      :    -0.000562  p :    -0.001685
      px      :    -0.000562
      py      :    -0.000562
      dz2     :     0.004373  d :     2.999916
      dxz     :     0.994113
      dyz     :     0.999967
      dx2y2   :     0.001613
      dxy     :     0.999850
      f0      :     0.000559  f :     0.001685
      f+1     :     0.000212
      f-1     :     0.000211
      f+2     :     0.000003
      f-2     :     0.000000
      f+3     :     0.000350
      f-3     :     0.000351
      g0      :     0.000044  g :     0.000161
      g+1     :     0.000004
      g-1     :     0.000004
      g+2     :     0.000000
      g-2     :     0.000028
      g+3     :     0.000025
      g-3     :     0.000024
      g+4     :     0.000032
      g-4     :     0.000000


                      *****************************
                      * MAYER POPULATION ANALYSIS *
                      *****************************

  NA   - Mulliken gross atomic population
  ZA   - Total nuclear charge
  QA   - Mulliken gross atomic charge
  VA   - Mayer's total valence
  BVA  - Mayer's bonded valence
  FA   - Mayer's free valence

  ATOM       NA         ZA         QA         VA         BVA        FA
  0 Ta    13.0000    13.0000    -0.0000     3.0532     0.0000     3.0532

  Mayer bond orders larger than 0.100000


-------
TIMINGS
-------

Total SCF time: 0 days 0 hours 0 min 10 sec 

Total time                  ....      10.059 sec
Sum of individual times     ....       9.347 sec  ( 92.9%)

Fock matrix formation       ....       6.337 sec  ( 63.0%)
Diagonalization             ....       0.255 sec  (  2.5%)
Density matrix formation    ....       0.022 sec  (  0.2%)
Population analysis         ....       0.165 sec  (  1.6%)
Initial guess               ....       1.798 sec  ( 17.9%)
Orbital Transformation      ....       0.000 sec  (  0.0%)
Orbital Orthonormalization  ....       0.000 sec  (  0.0%)
DIIS solution               ....       0.702 sec  (  7.0%)


           ************************************************************
           *        Program running with 24 parallel MPI-processes    *
           *              working on a common directory               *
           ************************************************************


------------------------------------------------------------------------------- 
                              ORCA-MATRIX DRIVEN CI                            
------------------------------------------------------------------------------- 

--------------------------------
AUTOMATIC CHOICE OF INCORE LEVEL
--------------------------------

Memory available                           ...   2500.00 MB
Memory needed for S+T                      ...      2.14 MB
Memory needed for J+K                      ...      4.31 MB
Memory needed for DIIS                     ...     30.00 MB
Memory needed for 3-ext                    ...      8.10 MB
Memory needed for 4-ext                    ...     26.31 MB
Memory needed for triples                  ...      5.06 MB
 -> Final InCoreLevel    ... 5
 -> check shows that triples correction can be computed


Wavefunction type
-----------------
Correlation treatment                      ...      CCSD     
Single excitations                         ... ON
Orbital optimization                       ... OFF
Calculation of Z vector                    ... OFF
Calculation of Brueckner orbitals          ... OFF
Perturbative triple excitations            ... ON
Calculation of F12 correction              ... OFF
Frozen core treatment                      ... chemical core (0 el)
Reference Wavefunction                     ... UHF
  Alpha-MOs occ    :     0 ...    7 (  8 MO's/  8 electrons)
  Beta-MOs occ     :     0 ...    4 (  5 MO's/  5 electrons)
  Alpha-MOs virt   :     8 ...   58 ( 51 MO's              )
  Beta-MOs virt    :     5 ...   58 ( 54 MO's              )
Number of AO's                             ...     59
Number of electrons                        ...     13
Number of correlated electrons             ...     13

Algorithmic settings
--------------------
Integral transformation                    ... AO direct full transformation
K(C) Formation                             ... FULL-MO TRAFO
Maximum number of iterations               ...        50
Convergence tolerance (max. residuum)      ... 1.000e-05
Level shift for amplitude update           ... 2.000e-01
Maximum number of DIIS vectors             ...         7
DIIS turned on at iteration                ...         0
Damping before turning on DIIS             ...     0.500
Damping after turning on DIIS              ...     0.000
Pair specific amplitude update             ... OFF
Natural orbital iterations                 ... OFF
Perturbative natural orbital generation    ... OFF
Printlevel                                 ... 2

Memory handling:
----------------
Maximum memory for working arrays          ...   2500 MB
Data storage in matrix containers          ... UNCOMPRESSED
Data type for integral storage             ... DOUBLE
In-Core Storage of quantities:
   Amplitudes+Sigma Vector      ... YES
   J+K operators                ... YES
   DIIS vectors                 ... YES
   3-external integrals         ... YES
   4-external integrals         ... YES


Initializing the integral package          ... done
Warning: reference  - re-canonicalizations have been set to INT 1 VIRT 1

--------------------------
UNRESTRICTED FOCK OPERATOR
--------------------------

<ss|ss>:          231 b            0 skpd (  0.0%)    0.000 s ( 0.000 ms/b)
<ss|sp>:          630 b            0 skpd (  0.0%)    0.000 s ( 0.000 ms/b)
<ss|sd>:          378 b            0 skpd (  0.0%)    0.000 s ( 0.000 ms/b)
<ss|sf>:          252 b            0 skpd (  0.0%)    0.000 s ( 0.000 ms/b)
<ss|sg>:          126 b            0 skpd (  0.0%)    0.000 s ( 0.000 ms/b)
<ss|pp>:          315 b            0 skpd (  0.0%)    0.000 s ( 0.000 ms/b)
<ss|pd>:          315 b            0 skpd (  0.0%)    0.000 s ( 0.001 ms/b)
<ss|pf>:          210 b            0 skpd (  0.0%)    0.000 s ( 0.001 ms/b)
<ss|pg>:          105 b            0 skpd (  0.0%)    0.000 s ( 0.001 ms/b)
<ss|dd>:          126 b            0 skpd (  0.0%)    0.000 s ( 0.001 ms/b)
<ss|df>:          126 b            0 skpd (  0.0%)    0.000 s ( 0.001 ms/b)
<ss|dg>:           63 b            0 skpd (  0.0%)    0.000 s ( 0.005 ms/b)
<ss|ff>:           63 b            0 skpd (  0.0%)    0.000 s ( 0.003 ms/b)
<ss|fg>:           42 b            0 skpd (  0.0%)    0.000 s ( 0.007 ms/b)
<ss|gg>:           21 b            0 skpd (  0.0%)    0.000 s ( 0.006 ms/b)
<sp|sp>:          465 b            0 skpd (  0.0%)    0.000 s ( 0.000 ms/b)
<sp|sd>:          540 b            0 skpd (  0.0%)    0.000 s ( 0.000 ms/b)
<sp|sf>:          360 b            0 skpd (  0.0%)    0.000 s ( 0.000 ms/b)
<sp|sg>:          180 b            0 skpd (  0.0%)    0.000 s ( 0.001 ms/b)
<sp|pp>:          450 b            0 skpd (  0.0%)    0.000 s ( 0.000 ms/b)
<sp|pd>:          450 b            0 skpd (  0.0%)    0.001 s ( 0.002 ms/b)
<sp|pf>:          300 b            0 skpd (  0.0%)    0.000 s ( 0.001 ms/b)
<sp|pg>:          150 b            0 skpd (  0.0%)    0.000 s ( 0.003 ms/b)
<sp|dd>:          180 b            0 skpd (  0.0%)    0.000 s ( 0.002 ms/b)
<sp|df>:          180 b            0 skpd (  0.0%)    0.001 s ( 0.003 ms/b)
<sp|dg>:           90 b            0 skpd (  0.0%)    0.001 s ( 0.012 ms/b)
<sp|ff>:           90 b            0 skpd (  0.0%)    0.001 s ( 0.008 ms/b)
<sp|fg>:           60 b            0 skpd (  0.0%)    0.001 s ( 0.018 ms/b)
<sp|gg>:           30 b            0 skpd (  0.0%)    0.000 s ( 0.015 ms/b)
<sd|sd>:          171 b            0 skpd (  0.0%)    0.000 s ( 0.001 ms/b)
<sd|sf>:          216 b            0 skpd (  0.0%)    0.000 s ( 0.001 ms/b)
<sd|sg>:          108 b            0 skpd (  0.0%)    0.000 s ( 0.002 ms/b)
<sd|pp>:          270 b            0 skpd (  0.0%)    0.000 s ( 0.001 ms/b)
<sd|pd>:          270 b            0 skpd (  0.0%)    0.001 s ( 0.004 ms/b)
<sd|pf>:          180 b            0 skpd (  0.0%)    0.001 s ( 0.004 ms/b)
<sd|pg>:           90 b            0 skpd (  0.0%)    0.000 s ( 0.005 ms/b)
<sd|dd>:          108 b            0 skpd (  0.0%)    0.000 s ( 0.004 ms/b)
<sd|df>:          108 b            0 skpd (  0.0%)    0.001 s ( 0.006 ms/b)
<sd|dg>:           54 b            0 skpd (  0.0%)    0.002 s ( 0.029 ms/b)
<sd|ff>:           54 b            0 skpd (  0.0%)    0.001 s ( 0.016 ms/b)
<sd|fg>:           36 b            0 skpd (  0.0%)    0.001 s ( 0.024 ms/b)
<sd|gg>:           18 b            0 skpd (  0.0%)    0.001 s ( 0.035 ms/b)
<sf|sf>:           78 b            0 skpd (  0.0%)    0.000 s ( 0.001 ms/b)
<sf|sg>:           72 b            0 skpd (  0.0%)    0.000 s ( 0.002 ms/b)
<sf|pp>:          180 b            0 skpd (  0.0%)    0.000 s ( 0.001 ms/b)
<sf|pd>:          180 b            0 skpd (  0.0%)    0.001 s ( 0.003 ms/b)
<sf|pf>:          120 b            0 skpd (  0.0%)    0.000 s ( 0.004 ms/b)
<sf|pg>:           60 b            0 skpd (  0.0%)    0.000 s ( 0.005 ms/b)
<sf|dd>:           72 b            0 skpd (  0.0%)    0.000 s ( 0.006 ms/b)
<sf|df>:           72 b            0 skpd (  0.0%)    0.000 s ( 0.006 ms/b)
<sf|dg>:           36 b            0 skpd (  0.0%)    0.001 s ( 0.026 ms/b)
<sf|ff>:           36 b            0 skpd (  0.0%)    0.001 s ( 0.016 ms/b)
<sf|fg>:           24 b            0 skpd (  0.0%)    0.001 s ( 0.039 ms/b)
<sf|gg>:           12 b            0 skpd (  0.0%)    0.001 s ( 0.053 ms/b)
<sg|sg>:           21 b            0 skpd (  0.0%)    0.000 s ( 0.006 ms/b)
<sg|pp>:           90 b            0 skpd (  0.0%)    0.000 s ( 0.002 ms/b)
<sg|pd>:           90 b            0 skpd (  0.0%)    0.000 s ( 0.006 ms/b)
<sg|pf>:           60 b            0 skpd (  0.0%)    0.000 s ( 0.005 ms/b)
<sg|pg>:           30 b            0 skpd (  0.0%)    0.000 s ( 0.011 ms/b)
<sg|dd>:           36 b            0 skpd (  0.0%)    0.000 s ( 0.010 ms/b)
<sg|df>:           36 b            0 skpd (  0.0%)    0.000 s ( 0.008 ms/b)
<sg|dg>:           18 b            0 skpd (  0.0%)    0.001 s ( 0.039 ms/b)
<sg|ff>:           18 b            0 skpd (  0.0%)    0.000 s ( 0.017 ms/b)
<sg|fg>:           12 b            0 skpd (  0.0%)    0.001 s ( 0.047 ms/b)
<sg|gg>:            6 b            0 skpd (  0.0%)    0.001 s ( 0.094 ms/b)
<pp|pp>:          120 b            0 skpd (  0.0%)    0.000 s ( 0.002 ms/b)
<pp|pd>:          225 b            0 skpd (  0.0%)    0.000 s ( 0.002 ms/b)
<pp|pf>:          150 b            0 skpd (  0.0%)    0.000 s ( 0.003 ms/b)
<pp|pg>:           75 b            0 skpd (  0.0%)    0.000 s ( 0.005 ms/b)
<pp|dd>:           90 b            0 skpd (  0.0%)    0.000 s ( 0.005 ms/b)
<pp|df>:           90 b            0 skpd (  0.0%)    0.000 s ( 0.004 ms/b)
<pp|dg>:           45 b            0 skpd (  0.0%)    0.001 s ( 0.016 ms/b)
<pp|ff>:           45 b            0 skpd (  0.0%)    0.000 s ( 0.010 ms/b)
<pp|fg>:           30 b            0 skpd (  0.0%)    0.001 s ( 0.023 ms/b)
<pp|gg>:           15 b            0 skpd (  0.0%)    0.001 s ( 0.047 ms/b)
<pd|pd>:          120 b            0 skpd (  0.0%)    0.001 s ( 0.007 ms/b)
<pd|pf>:          150 b            0 skpd (  0.0%)    0.001 s ( 0.004 ms/b)
<pd|pg>:           75 b            0 skpd (  0.0%)    0.001 s ( 0.011 ms/b)
<pd|dd>:           90 b            0 skpd (  0.0%)    0.001 s ( 0.011 ms/b)
<pd|df>:           90 b            0 skpd (  0.0%)    0.001 s ( 0.010 ms/b)
<pd|dg>:           45 b            0 skpd (  0.0%)    0.001 s ( 0.028 ms/b)
<pd|ff>:           45 b            0 skpd (  0.0%)    0.001 s ( 0.017 ms/b)
<pd|fg>:           30 b            0 skpd (  0.0%)    0.001 s ( 0.037 ms/b)
<pd|gg>:           15 b            0 skpd (  0.0%)    0.002 s ( 0.101 ms/b)
<pf|pf>:           55 b            0 skpd (  0.0%)    0.000 s ( 0.007 ms/b)
<pf|pg>:           50 b            0 skpd (  0.0%)    0.001 s ( 0.014 ms/b)
<pf|dd>:           60 b            0 skpd (  0.0%)    0.001 s ( 0.013 ms/b)
<pf|df>:           60 b            0 skpd (  0.0%)    0.001 s ( 0.013 ms/b)
<pf|dg>:           30 b            0 skpd (  0.0%)    0.001 s ( 0.035 ms/b)
<pf|ff>:           30 b            0 skpd (  0.0%)    0.001 s ( 0.031 ms/b)
<pf|fg>:           20 b            0 skpd (  0.0%)    0.001 s ( 0.057 ms/b)
<pf|gg>:           10 b            0 skpd (  0.0%)    0.001 s ( 0.140 ms/b)
<pg|pg>:           15 b            0 skpd (  0.0%)    0.000 s ( 0.021 ms/b)
<pg|dd>:           30 b            0 skpd (  0.0%)    0.001 s ( 0.025 ms/b)
<pg|df>:           30 b            0 skpd (  0.0%)    0.001 s ( 0.019 ms/b)
<pg|dg>:           15 b            0 skpd (  0.0%)    0.001 s ( 0.067 ms/b)
<pg|ff>:           15 b            0 skpd (  0.0%)    0.001 s ( 0.035 ms/b)
<pg|fg>:           10 b            0 skpd (  0.0%)    0.001 s ( 0.094 ms/b)
<pg|gg>:            5 b            0 skpd (  0.0%)    0.001 s ( 0.230 ms/b)
<dd|dd>:           21 b            0 skpd (  0.0%)    0.001 s ( 0.038 ms/b)
<dd|df>:           36 b            0 skpd (  0.0%)    0.001 s ( 0.020 ms/b)
<dd|dg>:           18 b            0 skpd (  0.0%)    0.001 s ( 0.058 ms/b)
<dd|ff>:           18 b            0 skpd (  0.0%)    0.001 s ( 0.034 ms/b)
<dd|fg>:           12 b            0 skpd (  0.0%)    0.001 s ( 0.075 ms/b)
<dd|gg>:            6 b            0 skpd (  0.0%)    0.001 s ( 0.202 ms/b)
<df|df>:           21 b            0 skpd (  0.0%)    0.001 s ( 0.042 ms/b)
<df|dg>:           18 b            0 skpd (  0.0%)    0.001 s ( 0.075 ms/b)
<df|ff>:           18 b            0 skpd (  0.0%)    0.001 s ( 0.060 ms/b)
<df|fg>:           12 b            0 skpd (  0.0%)    0.001 s ( 0.113 ms/b)
<df|gg>:            6 b            0 skpd (  0.0%)    0.002 s ( 0.292 ms/b)
<dg|dg>:            6 b            0 skpd (  0.0%)    0.001 s ( 0.135 ms/b)
<dg|ff>:            9 b            0 skpd (  0.0%)    0.001 s ( 0.070 ms/b)
<dg|fg>:            6 b            0 skpd (  0.0%)    0.001 s ( 0.175 ms/b)
<dg|gg>:            3 b            0 skpd (  0.0%)    0.001 s ( 0.450 ms/b)
<ff|ff>:            6 b            0 skpd (  0.0%)    0.001 s ( 0.087 ms/b)
<ff|fg>:            6 b            0 skpd (  0.0%)    0.001 s ( 0.162 ms/b)
<ff|gg>:            3 b            0 skpd (  0.0%)    0.001 s ( 0.451 ms/b)
<fg|fg>:            3 b            0 skpd (  0.0%)    0.001 s ( 0.313 ms/b)
<fg|gg>:            2 b            0 skpd (  0.0%)    0.001 s ( 0.738 ms/b)
<gg|gg>:            1 b            0 skpd (  0.0%)    0.002 s ( 1.623 ms/b)
Recanonicalizing the internal orbitals
Recanonicalizing the virtual orbitals
Time needed for Fock operator              ...            0.225 sec
Reference energy                           ...    -56.292557426
Warning: for UHF the TrafoType has to be JK
Warning: for UHF the K(C)-option cannot be MO but must be AOX

-------------------------------
PARTIAL EXCHANGE TRANSFORMATION
-------------------------------

Transformation type                        ... two-operators
Generation of integrals (i,mue|j,nue)      ... ON
Generation of integrals (mue,kappa|nue,tau)... ON
Generation of integrals (i,mue|a,nue)      ... ON
Dimension of the basis                     ...   59
Number of internal alpha-MOs               ...    8 (   0-   7)
Number of internal beta-MOs                ...    5 (   0-   4)
Number of external alpha-MOs               ...   51 (   8-  58)
Number of external beta-MOs                ...   54 (   5-  58)
Pair cutoff                                ... 0.000e+00 Eh
Number of AO pairs in the trafo            ... 1770
Total Number of distinct AO pairs          ... 1770
Memory devoted for trafo                   ... 2500.0 MB 
Max. Number of MO pairs treated together   ... 94133      
Number Format for Storage                  ... Double (8 Byte)
Integral package used                      ... LIBINT

Starting integral evaluation:
    ... done with AO integral generation
Closing buffer AOK[aa] ( 0.00 GB; CompressionRatio= 0.00)
Closing buffer AOK[bb] ( 0.00 GB; CompressionRatio= 0.00)
Closing buffer AOK[ab] ( 0.00 GB; CompressionRatio= 0.00)
Closing buffer AOK[ba] ( 0.00 GB; CompressionRatio= 0.00)
Collecting buffer AOK 
Closing buffer IAAO1[aa] ( 0.00 GB; CompressionRatio= 0.00)
Closing buffer IAAO1[bb] ( 0.00 GB; CompressionRatio= 0.00)
Closing buffer IAAO1[ab] ( 0.00 GB; CompressionRatio= 0.00)
Closing buffer IAAO1[ba] ( 0.00 GB; CompressionRatio= 0.00)
Closing buffer IAAO2[aa] ( 0.00 GB; CompressionRatio= 0.00)
Closing buffer IAAO2[bb] ( 0.00 GB; CompressionRatio= 0.00)
Closing buffer IAAO2[ab] ( 0.00 GB; CompressionRatio= 0.00)
Closing buffer IAAO2[ba] ( 0.00 GB; CompressionRatio= 0.00)
Collecting buffer IAAO 
Closing buffer PRQS    ( 0.00 GB; CompressionRatio= 0.00)
Collecting buffer PRQS 
Number of alpha/alpha MO pairs in trafo    ...   36
Number of beta /beta  MO pairs in trafo    ...   15
Number of alpha/ beta MO pairs in trafo    ...   40
------------------------
SORTING OF (i,mue|j,nue)
------------------------

SORTING OF ALPHA/ALPHA PAIRS
IBATCH = 1 of  1
Closing buffer KAO[aa] ( 0.00 GB; CompressionRatio= 1.00)
Collecting buffer KAO 
SORTING OF BETA /BETA  PAIRS
IBATCH = 1 of  1
Closing buffer KAO[bb] ( 0.00 GB; CompressionRatio= 1.00)
Collecting buffer KAO 
SORTING OF ALPHA/BETA  PAIRS
IBATCH = 1 of  1
Closing buffer KAO[ab] ( 0.00 GB; CompressionRatio= 0.999569274946)
Collecting buffer KAO[ab] 
------------------------
SORTING OF (i,mue|a,nue)
------------------------

Number of alpha/alpha (i,a) pairs in trafo  ...  408
Number of beta /beta  (i,a) pairs in trafo  ...  270
Number of alpha/ beta (i,a) pairs in trafo  ...  432
Number of beta /alpha (i,a) pairs in trafo  ...  255
Setting up the alpha/alpha list             ... done
Setting up the beta /beta  list             ... done
Setting up the alpha/beta  list             ... done
Setting up the beta /alpha list             ... done
    ... Now sorting (i,mue|a,nue)integrals
    ... Integrals (i,b|a,c) will be made on the fly
SORTING OF ALPHA/ALPHA PAIRS
IBATCH = 1 of  1
Closing buffer IPAQ[aa]  0.00 GB; CompressionRatio= 1.00)
SORTING OF BETA /BETA  PAIRS
IBATCH = 1 of  1
Closing buffer IPAQ[bb]( 0.00 GB; CompressionRatio= 1.00)
SORTING OF ALPHA/BETA  PAIRS (NMatSort_ab=18)
IBATCH = 1 of  1
Closing buffer IPAQ[ab]( 0.00 GB; CompressionRatio= 1.00)
SORTING OF BETA/ALPHA  PAIRS
IBATCH = 1 of  1
Closing buffer IPAQ[ba]( 0.00 GB; CompressionRatio= 1.00)
N(AO-Batches) Done                         ...         0 
N(AO-Batches) Skipped                      ...         0 
N(IJ)-pairs Skipped                        ...         0 
TOTAL TIME for half transformation         ...     3.372 sec
AO-integral generation                     ...     0.000 sec
Half transformation                        ...     0.000 sec
K-integral sorting                         ...     0.846 sec
<ss|**>: 
------------------------------
PARTIAL COULOMB TRANSFORMATION
------------------------------

Transformation type                        ... two-operators
Dimension of the basis                     ...   59
Number of internal alpha-MOs               ...    8 (0-7)
Number of internal beta-MOs                ...    5 (0-4)
Pair cutoff                                ... 0.000e+00 Eh
Number of AO pairs included in the trafo   ... 1770
Total Number of distinct AO pairs          ... 1770
Memory devoted for trafo                   ... 2500.0 MB 
Max. Number of MO pairs treated together   ... 185129      
Max. Number of MOs treated per batch       ... 3137      
Number Format for Storage                  ... Double (8 Byte)
AO-integral source                         ... DIRECT
Integral package used                      ... LIBINT

Starting integral evaluation:
<sp|**>:         3213 b        0 skpd     0.002 s (  0.000 ms/b)
        4590 b        0 skpd     0.018 s (  0.004 ms/b)
<sd|**>:         2754 b        0 skpd     0.015 s (  0.005 ms/b)
<sf|**>: <sg|**>:         1836 b        0 skpd     0.016 s (  0.009 ms/b)
<pp|**>:          918 b        0 skpd     0.016 s (  0.017 ms/b)
        2295 b        0 skpd     0.019 s (  0.008 ms/b)
<pd|**>:         2295 b        0 skpd     0.040 s (  0.018 ms/b)
<pf|**>:         1530 b        0 skpd     0.039 s (  0.025 ms/b)
<pg|**>: <dd|**>:          765 b        0 skpd     0.037 s (  0.048 ms/b)
         918 b        0 skpd     0.030 s (  0.033 ms/b)
<df|**>:          918 b        0 skpd     0.044 s (  0.048 ms/b)
<dg|**>:          459 b        0 skpd     0.052 s (  0.113 ms/b)
<ff|**>:          459 b        0 skpd     0.049 s (  0.107 ms/b)
<fg|**>:          306 b        0 skpd     0.053 s (  0.174 ms/b)
<gg|**>:          153 b        0 skpd     0.041 s (  0.268 ms/b)
Closing buffer AOJ[aa] ( 0.00 GB; CompressionRatio= 0.96)
Closing buffer AOJ[bb] ( 0.00 GB; CompressionRatio= 0.00)
Collecting buffer AOJ 
    ... done with AO integral generation
Number of Alpha-MO pairs included          ...   36
Number of Beta-MO pairs included           ...   15
    ... Now sorting integrals
SORTING ALPHA/ALPHA PAIRS
IBATCH = 1 of  1
Closing buffer JAO[aa] ( 0.00 GB; CompressionRatio= 1.00)
SORTING BETA/BETA PAIRS
IBATCH = 1 of  1
Closing buffer JAO[bb] ( 0.00 GB; CompressionRatio= 1.00)
Collecting buffer JAO 
TOTAL TIME for half transformation         ...     0.621 sec
AO-integral generation                     ...     0.349 sec
Half transformation                        ...     0.123 sec
J-integral sorting                         ...     0.115 sec

-------------------------- SECOND HALF TRANSFORMATION -------------------------
Formation of (ij|kl),(ij|ka), (ij|ab)      ... ok (     0.146 sec)
Formation of (ik|jl),(ik|ja), (ia|jb)      ... ok (     0.229 sec)


-----------------------
SPIN UNRESTRICTED GUESS
-----------------------

Entering MDCI_UHF_Guess, Tailored=0
Spin-components of the MP2 energy:
EMP2(aa)=     -0.062703670
EMP2(bb)=     -0.027784796
EMP2(ab)=     -0.193259732

Initial guess performed in     0.008 sec
E(0)                                       ...    -56.292557426
E(MP2)                                     ...     -0.283748197
Initial E(tot)                             ...    -56.576305623
<T|T>                                      ...      0.102830171
Number of pairs included                   ... 78

------------------------------------------------
                  UHF COUPLED CLUSTER ITERATIONS
------------------------------------------------

Number of amplitudes to be optimized       ...       161479

Iter       E(tot)           E(Corr)          Delta-E          Residual     Time      <S|S>**1/2
  0    -56.576305624     -0.283748198     -0.000000001      0.023786900    0.21      0.000027003
                           *** Turning on DIIS ***
  1    -56.574996062     -0.282438635      0.001309562      0.011320756    0.16      0.032381886
  2    -56.580908197     -0.288350771     -0.005912136      0.007065700    0.16      0.046548507
  3    -56.583108104     -0.290550677     -0.002199906      0.003092075    0.17      0.058611688
  4    -56.584219549     -0.291662123     -0.001111445      0.000988931    0.17      0.067096580
  5    -56.584338979     -0.291781553     -0.000119431      0.000528981    0.17      0.068232986
  6    -56.584359915     -0.291802489     -0.000020936      0.000175056    0.17      0.068106807
  7    -56.584361502     -0.291804076     -0.000001587      0.000039860    0.17      0.067913556
  8    -56.584364166     -0.291806740     -0.000002664      0.000012725    0.16      0.067861713
  9    -56.584365446     -0.291808020     -0.000001280      0.000006072    0.16      0.067860322
               --- The Coupled-Cluster iterations have converged ---

----------------------
COUPLED CLUSTER ENERGY
----------------------

E(0)                                       ...    -56.292557426
E(CORR)                                    ...     -0.291808020
E(TOT)                                     ...    -56.584365446
Singles norm <S|S>**1/2                    ...      0.067860322 ( 0.032592649, 0.035267672)  
T1 diagnostic                              ...      0.018821067                              

------------------
LARGEST AMPLITUDES
------------------
   4b-> 16b  -1b-> -1b       0.090656
   7a-> 10a   4b->  5b       0.050911
   7a-> 12a   4b->  8b       0.047320
   7a-> 11a   4b->  9b       0.047320
   7a-> 10a   4b-> 13b       0.046742
   7a->  8a   4b->  7b       0.044671
   7a->  9a   4b->  6b       0.044626
   7a-> 15a   4b->  5b       0.039550
   7a-> 15a   4b-> 13b       0.039413
   7a->  8a   4b-> 15b       0.039387
   7a->  9a   4b-> 14b       0.039323
   4a-> 12a   4b-> 12b       0.037408
   7a-> 13a   4b->  7b       0.035351
   7a-> 14a   4b->  6b       0.035328
   7a-> 13a   4b-> 15b       0.033943
   7a-> 14a   4b-> 14b       0.033902

----------------------
UHF TRIPLES CORRECTION (Algorithm 1)
----------------------

Multiplier for the singles contribution    ...      1.000000000

SPIN-CASE Alpha-Alpha-Alpha:
10% done
20% done
30% done
40% done
50% done
60% done
70% done
80% done
90% done


SPIN-CASE Beta-Beta-Beta:
10% done
20% done
30% done
40% done
50% done
60% done
70% done
80% done
90% done


SPIN-CASE Alpha-Alpha-Beta:
10% done
20% done
30% done
40% done
50% done
60% done
70% done
80% done
90% done


SPIN-CASE Beta-Beta-Alpha:
10% done
20% done
30% done
40% done
50% done
60% done
70% done
80% done
90% done


Triples Correction (T)                     ...     -0.011548221
    alpha-alpha-alpha ... -0.000738401 (  6.4%)
    alpha-alpha-beta  ... -0.007247190 ( 62.8%)
    alpha-beta -beta  ... -0.003440337 ( 29.8%)
    beta -beta -beta  ... -0.000122293 (  1.1%)
Scaling of triples based on CCSD energies (Peterson et al. Molecular Physics 113, 1551 (2015))
E(T*) = f*E(T) where f = E(F12-CCSD)/E(CCSD) 
f = CCSD (with F12)/ CCSD (without F12)    ...      1.000000000
Scaled triples correction (T)              ...     -0.011548221

Final correlation energy                   ...     -0.303356241
E(CCSD)                                    ...    -56.584365446
E(CCSD(T))                                 ...    -56.595913667



        !!!!!!!!!!!!!!!!!!!!!!!!!!!!!!!!!!!!!!!!!!!!!!!!!!!!!!!!!!!!!!!!!!!!!!!!!! 
        !  Warning: Densities are linearized densities                           !
        !!!!!!!!!!!!!!!!!!!!!!!!!!!!!!!!!!!!!!!!!!!!!!!!!!!!!!!!!!!!!!!!!!!!!!!!!! 

NORM  =      1.140632882 sqrt=     1.068004158
W(HF) =      0.876706271
------------------------------------------------------------------------------
                           ORCA POPULATION ANALYSIS
------------------------------------------------------------------------------
Input electron density              ... 73_Ta.mdcip
Input spin density                  ... 73_Ta.mdcir
BaseName (.gbw .S,...)              ... 73_Ta

                    ********************************
                    * MULLIKEN POPULATION ANALYSIS *
                    ********************************

------------------------------------------
MULLIKEN ATOMIC CHARGES AND SPIN DENSITIES
------------------------------------------
   0 Ta:   -0.000000    3.000000
Sum of atomic charges       :   -0.0000000
Sum of atomic spin densities:    3.0000000

---------------------------------------------------
MULLIKEN REDUCED ORBITAL CHARGES AND SPIN DENSITIES
---------------------------------------------------
CHARGE
  0 Tas       :     3.889872  s :     3.889872
      pz      :     2.014878  p :     6.044634
      px      :     2.014878
      py      :     2.014878
      dz2     :     0.028006  d :     3.021432
      dxz     :     0.985632
      dyz     :     0.991295
      dx2y2   :     0.025316
      dxy     :     0.991182
      f0      :     0.004321  f :     0.040385
      f+1     :     0.005434
      f-1     :     0.005450
      f+2     :     0.006106
      f-2     :     0.009086
      f+3     :     0.004993
      f-3     :     0.004995
      g0      :     0.000344  g :     0.003677
      g+1     :     0.000367
      g-1     :     0.000368
      g+2     :     0.000345
      g-2     :     0.000539
      g+3     :     0.000514
      g-3     :     0.000514
      g+4     :     0.000344
      g-4     :     0.000343

SPIN
  0 Tas       :     0.029563  s :     0.029563
      pz      :     0.005802  p :     0.017407
      px      :     0.005802
      py      :     0.005804
      dz2     :     0.007734  d :     2.921822
      dxz     :     0.965940
      dyz     :     0.971609
      dx2y2   :     0.005043
      dxy     :     0.971495
      f0      :     0.002813  f :     0.028693
      f+1     :     0.003791
      f-1     :     0.003805
      f+2     :     0.004381
      f-2     :     0.007095
      f+3     :     0.003403
      f-3     :     0.003405
      g0      :     0.000214  g :     0.002515
      g+1     :     0.000240
      g-1     :     0.000240
      g+2     :     0.000245
      g-2     :     0.000393
      g+3     :     0.000371
      g-3     :     0.000371
      g+4     :     0.000223
      g-4     :     0.000218


                     *******************************
                     * LOEWDIN POPULATION ANALYSIS *
                     *******************************

-----------------------------------------
LOEWDIN ATOMIC CHARGES AND SPIN DENSITIES
-----------------------------------------
   0 Ta:   -0.000000    3.000000

--------------------------------------------------
LOEWDIN REDUCED ORBITAL CHARGES AND SPIN DENSITIES
--------------------------------------------------
CHARGE
  0 Tas       :     3.889872  s :     3.889872
      pz      :     2.014878  p :     6.044634
      px      :     2.014878
      py      :     2.014878
      dz2     :     0.028006  d :     3.021432
      dxz     :     0.985632
      dyz     :     0.991295
      dx2y2   :     0.025316
      dxy     :     0.991182
      f0      :     0.004321  f :     0.040385
      f+1     :     0.005434
      f-1     :     0.005450
      f+2     :     0.006106
      f-2     :     0.009086
      f+3     :     0.004993
      f-3     :     0.004995
      g0      :     0.000344  g :     0.003677
      g+1     :     0.000367
      g-1     :     0.000368
      g+2     :     0.000345
      g-2     :     0.000539
      g+3     :     0.000514
      g-3     :     0.000514
      g+4     :     0.000344
      g-4     :     0.000343

SPIN
  0 Tas       :     0.029563  s :     0.029563
      pz      :     0.005802  p :     0.017407
      px      :     0.005802
      py      :     0.005804
      dz2     :     0.007734  d :     2.921822
      dxz     :     0.965940
      dyz     :     0.971609
      dx2y2   :     0.005043
      dxy     :     0.971495
      f0      :     0.002813  f :     0.028693
      f+1     :     0.003791
      f-1     :     0.003805
      f+2     :     0.004381
      f-2     :     0.007095
      f+3     :     0.003403
      f-3     :     0.003405
      g0      :     0.000214  g :     0.002515
      g+1     :     0.000240
      g-1     :     0.000240
      g+2     :     0.000245
      g-2     :     0.000393
      g+3     :     0.000371
      g-3     :     0.000371
      g+4     :     0.000223
      g-4     :     0.000218


                      *****************************
                      * MAYER POPULATION ANALYSIS *
                      *****************************

  NA   - Mulliken gross atomic population
  ZA   - Total nuclear charge
  QA   - Mulliken gross atomic charge
  VA   - Mayer's total valence
  BVA  - Mayer's bonded valence
  FA   - Mayer's free valence

  ATOM       NA         ZA         QA         VA         BVA        FA
  0 Ta    13.0000    13.0000    -0.0000     3.8322     0.0000     3.8322





------------------------------------------------------------------------------- 
                                     TIMINGS                                   
------------------------------------------------------------------------------- 


Total execution time                   ...        7.049 sec

Fock Matrix Formation                  ...        0.225 sec (  3.2%)
Initial Guess                          ...        0.008 sec (  0.1%)
DIIS Solver                            ...        0.119 sec (  1.7%)
State Vector Update                    ...        0.006 sec (  0.1%)
Sigma-vector construction              ...        1.584 sec ( 22.5%)
  <D|H|D>(0-ext Fock)                  ...        0.002 sec (  0.1% of sigma)
  <D|H|D>(0-ext)                       ...        0.005 sec (  0.3% of sigma)
  <D|H|D>(2-ext)                       ...        0.025 sec (  1.6% of sigma)
  <D|H|D>(4-ext)                       ...        0.630 sec ( 39.8% of sigma)
  <S|H|0>                              ...        0.037 sec (  2.3% of sigma)
  <D|H|S>(1-ext)                       ...        0.011 sec (  0.7% of sigma)
  Fock-dressing                        ...        0.450 sec ( 28.4% of sigma)
  (ik|jl)-dressing                     ...        0.007 sec (  0.4% of sigma)
  (ij|ab),(ia|jb)-dressing             ...        0.319 sec ( 20.1% of sigma)
  Pair energies                        ...        0.001 sec (  0.1% of sigma)
Total Time for computing (T)           ...        0.150 sec (  2.1% of ALL)
  I/O of integral and amplitudes       ...        0.038 sec ( 25.0% of (T))
  External N**7 contributions          ...        0.038 sec ( 25.5% of (T))
  Internal N**7 contributions          ...        0.016 sec ( 10.3% of (T))
  N**6 triples energy contributions    ...        0.051 sec ( 34.2% of (T))


-------------------------   --------------------
FINAL SINGLE POINT ENERGY       -56.595913666942
-------------------------   --------------------


                            ***************************************
                            *     ORCA property calculations      *
                            ***************************************

                                    ---------------------
                                    Active property flags
                                    ---------------------
   (+) Dipole Moment


------------------------------------------------------------------------------
                       ORCA ELECTRIC PROPERTIES CALCULATION
------------------------------------------------------------------------------

Dipole Moment Calculation                       ... on
Quadrupole Moment Calculation                   ... off
Polarizability Calculation                      ... off
GBWName                                         ... 73_Ta.gbw
Electron density file                           ... 73_Ta.scfp
The origin for moment calculation is the CENTER OF MASS  = ( 0.000000,  0.000000  0.000000)

-------------
DIPOLE MOMENT
-------------
                                X             Y             Z
Electronic contribution:     -0.00000      -0.00000       0.00000
Nuclear contribution   :      0.00000       0.00000       0.00000
                        -----------------------------------------
Total Dipole Moment    :     -0.00000      -0.00000       0.00000
                        -----------------------------------------
Magnitude (a.u.)       :      0.00000
Magnitude (Debye)      :      0.00000



--------------------
Rotational spectrum 
--------------------
 
Rotational constants in cm-1:     0.000000     0.000000     0.000000 
Rotational constants in MHz :     0.000000     0.000000     0.000000 

 Dipole components along the rotational axes: 
x,y,z [a.u.] :    -0.000000    -0.000000     0.000000 
x,y,z [Debye]:    -0.000000    -0.000000     0.000000 

 

                           *** MDCI DENSITY ***

------------------------------------------------------------------------------
                       ORCA ELECTRIC PROPERTIES CALCULATION
------------------------------------------------------------------------------

Dipole Moment Calculation                       ... on
Quadrupole Moment Calculation                   ... off
Polarizability Calculation                      ... off
GBWName                                         ... 73_Ta.gbw
Electron density file                           ... 73_Ta.mdcip
The origin for moment calculation is the CENTER OF MASS  = ( 0.000000,  0.000000  0.000000)

-------------
DIPOLE MOMENT
-------------
                                X             Y             Z
Electronic contribution:      0.00000       0.00000      -0.00000
Nuclear contribution   :      0.00000       0.00000       0.00000
                        -----------------------------------------
Total Dipole Moment    :      0.00000       0.00000      -0.00000
                        -----------------------------------------
Magnitude (a.u.)       :      0.00000
Magnitude (Debye)      :      0.00000



--------------------
Rotational spectrum 
--------------------
 
Rotational constants in cm-1:     0.000000     0.000000     0.000000 
Rotational constants in MHz :     0.000000     0.000000     0.000000 

 Dipole components along the rotational axes: 
x,y,z [a.u.] :     0.000000     0.000000    -0.000000 
x,y,z [Debye]:     0.000000     0.000000    -0.000000 

 

Timings for individual modules:

Sum of individual times         ...       18.849 sec (=   0.314 min)
GTO integral calculation        ...        0.867 sec (=   0.014 min)   4.6 %
SCF iterations                  ...       10.448 sec (=   0.174 min)  55.4 %
MDCI module                     ...        7.533 sec (=   0.126 min)  40.0 %
                             ****ORCA TERMINATED NORMALLY****
TOTAL RUN TIME: 0 days 0 hours 0 minutes 19 seconds 604 msec
