
                                 *****************
                                 * O   R   C   A *
                                 *****************

           --- An Ab Initio, DFT and Semiempirical electronic structure package ---

                  #######################################################
                  #                        -***-                        #
                  #          Department of theory and spectroscopy      #
                  #               Directorship: Frank Neese             #
                  #        Max Planck Institute fuer Kohlenforschung    #
                  #                Kaiser Wilhelm Platz 1               #
                  #                 D-45470 Muelheim/Ruhr               #
                  #                      Germany                        #
                  #                                                     #
                  #                  All rights reserved                #
                  #                        -***-                        #
                  #######################################################


                         Program Version 4.2.0 -  RELEASE  -


 With contributions from (in alphabetic order):
   Daniel Aravena         : Magnetic Suceptibility
   Michael Atanasov       : Ab Initio Ligand Field Theory (pilot matlab implementation)
   Alexander A. Auer      : GIAO ZORA, VPT2
   Ute Becker             : Parallelization
   Giovanni Bistoni       : ED, misc. LED, open-shell LED, HFLED
   Martin Brehm           : Molecular dynamics
   Dmytro Bykov           : SCF Hessian
   Vijay G. Chilkuri      : MRCI spin determinant printing, contributions to CSF-ICE
   Dipayan Datta          : RHF DLPNO-CCSD density
   Achintya Kumar Dutta   : EOM-CC, STEOM-CC
   Dmitry Ganyushin       : Spin-Orbit,Spin-Spin,Magnetic field MRCI
   Miquel Garcia          : C-PCM Hessian, Gaussian charge scheme
   Yang Guo               : DLPNO-NEVPT2, CIM, IAO-localization
   Andreas Hansen         : Spin unrestricted coupled pair/coupled cluster methods
   Benjamin Helmich-Paris : CASSCF linear response (MC-RPA)
   Lee Huntington         : MR-EOM, pCC
   Robert Izsak           : Overlap fitted RIJCOSX, COSX-SCS-MP3, EOM
   Christian Kollmar      : KDIIS, OOCD, Brueckner-CCSD(T), CCSD density
   Simone Kossmann        : Meta GGA functionals, TD-DFT gradient, OOMP2, MP2 Hessian
   Martin Krupicka        : AUTO-CI
   Lucas Lang             : DCDCAS
   Dagmar Lenk            : GEPOL surface, SMD
   Dimitrios Liakos       : Extrapolation schemes; Compound Job, initial MDCI parallelization
   Dimitrios Manganas     : Further ROCIS development; embedding schemes
   Dimitrios Pantazis     : SARC Basis sets
   Taras Petrenko         : DFT Hessian,TD-DFT gradient, ASA, ECA, R-Raman, ABS, FL, XAS/XES, NRVS
   Peter Pinski           : DLPNO-MP2, DLPNO-MP2 Gradient
   Christoph Reimann      : Effective Core Potentials
   Marius Retegan         : Local ZFS, SOC
   Christoph Riplinger    : Optimizer, TS searches, QM/MM, DLPNO-CCSD(T), (RO)-DLPNO pert. Triples
   Tobias Risthaus        : Range-separated hybrids, TD-DFT gradient, RPA, STAB
   Michael Roemelt        : Original ROCIS implementation
   Masaaki Saitow         : Open-shell DLPNO-CCSD energy and density
   Barbara Sandhoefer     : DKH picture change effects
   Avijit Sen             : IP-ROCIS
   Kantharuban Sivalingam : CASSCF convergence, NEVPT2, FIC-MRCI
   Bernardo de Souza      : ESD, SOC TD-DFT
   Georgi Stoychev        : AutoAux, RI-MP2 NMR
   Willem Van den Heuvel  : Paramagnetic NMR
   Boris Wezisla          : Elementary symmetry handling
   Frank Wennmohs         : Technical directorship


 We gratefully acknowledge several colleagues who have allowed us to
 interface, adapt or use parts of their codes:
   Stefan Grimme, W. Hujo, H. Kruse,             : VdW corrections, initial TS optimization,
                  C. Bannwarth                     DFT functionals, gCP, sTDA/sTD-DF
   Ed Valeev, F. Pavosevic, A. Kumar             : LibInt (2-el integral package), F12 methods
   Garnet Chan, S. Sharma, J. Yang, R. Olivares  : DMRG
   Ulf Ekstrom                                   : XCFun DFT Library
   Mihaly Kallay                                 : mrcc  (arbitrary order and MRCC methods)
   Andreas Klamt, Michael Diedenhofen            : otool_cosmo (COSMO solvation model)
   Jiri Pittner, Ondrej Demel                    : Mk-CCSD
   Frank Weinhold                                : gennbo (NPA and NBO analysis)
   Christopher J. Cramer and Donald G. Truhlar   : smd solvation model
   Lars Goerigk                                  : TD-DFT with DH, B97 family of functionals
   V. Asgeirsson, H. Jonsson                     : NEB implementation
   FAccTs GmbH                                   : IRC, NEB, NEB-TS, Multilevel, MM, QM/MM, CI optimization
   S Lehtola, MJT Oliveira, MAL Marques          : LibXC Library


 Your calculation uses the libint2 library for the computation of 2-el integrals
 For citations please refer to: http://libint.valeyev.net

 Your ORCA version has been built with support for libXC version: 4.2.3
 For citations please refer to: https://tddft.org/programs/libxc/

 This ORCA versions uses:
   CBLAS   interface :  Fast vector & matrix operations
   LAPACKE interface :  Fast linear algebra routines
   SCALAPACK package :  Parallel linear algebra routines


----- Orbital basis set information -----
Your calculation utilizes the basis: def2-SVP
   F. Weigend and R. Ahlrichs, Phys. Chem. Chem. Phys. 7, 3297 (2005).

----- AuxJ basis set information -----
Your calculation utilizes the auxiliary basis: def2/J
   F. Weigend, Phys. Chem. Chem. Phys. 8, 1057 (2006).

================================================================================
                                        WARNINGS
                       Please study these warnings very carefully!
================================================================================


INFO   : the flag for use of LIBINT has been found!

================================================================================
                                       INPUT FILE
================================================================================
NAME = 73_Ta_atom73.inp
|  1> # input to generate an atomic fitting density for Ta
|  2> # this file is use internally by ORCA
|  3> #
|  4> # atomic ground state (S=4): 1s2 2s2 2p6 3s2 3p6 4s2 3d10 4p6 5s2 4d10 5p6 6s2 4f14 5d3 
|  5> #
|  6> ! RHF AllowRHF def2-SVP def2/J  NoMulliken NoLoewdin NoMayer NoPrintMOs 
|  7> 
|  8> %output print[p_atomdensfit] 2 end
|  9> 
| 10> %scf
| 11>   guess hcore
| 12>   maxiter 1000
| 13>   maxdisk 500000
| 14>   SCFMode Conventional
| 15>   lshift 0.200000
| 16>   hftyp rohf
| 17>   rohf_case sahf
| 18>   rohf_numop   2
| 19>   rohf_norb[1] 5
| 20>   rohf_nel[1]  3
| 21> end
| 22> 
| 23> %basis
| 24>   NewECP 73
| 25>     N_core 60
| 26>     lmax f
| 27>     s 3
| 28>       1      14.5464077000   1345.8806470000  2
| 29>       2       7.2732038000     36.7668062000  2
| 30>       3       2.0178811000    -12.0179609000  2
| 31>     p 3
| 32>       1       9.9355653000    378.4253015000  2
| 33>       2       4.9677824000     22.2930909000  2
| 34>       3       2.0178811000    -12.0179609000  2
| 35>     d 3
| 36>       1       6.3473769000    104.8839557000  2
| 37>       2       3.1736885000      8.7558481000  2
| 38>       3       2.0178811000    -12.0179609000  2
| 39>     f 1
| 40>       1       2.0178811000     12.0179609000  2
| 41>   end
| 42>   NewGTO 73
| 43>     s 4 
| 44>      1      24.4736509440      2.2386323911
| 45>      2      18.7213725490     -8.1183993878
| 46>      3      11.5000000000     37.0432560568
| 47>      4      10.3500000000    -30.6331089410
| 48>     s 1 
| 49>      1       3.8436180089      1.0000000000
| 50>     s 1 
| 51>      1       1.0202266016      1.0000000000
| 52>     s 1 
| 53>      1       0.4677478187      1.0000000000
| 54>     s 1 
| 55>      1       0.1032318667      1.0000000000
| 56>     s 1 
| 57>      1       0.0386744612      1.0000000000
| 58>     p 4 
| 59>      1      17.0000000000     -0.0771704057
| 60>      2      12.0081865360      0.2448500499
| 61>      3       5.0278760583     -0.6757474915
| 62>      4       1.1937124184      1.2268252800
| 63>     p 1 
| 64>      1       0.5788970705      1.0000000000
| 65>     p 1 
| 66>      1       0.2722519880      1.0000000000
| 67>     p 1 
| 68>      1       0.0650000000      1.0000000000
| 69>     d 3 
| 70>      1       3.9738796278     -0.0943566000
| 71>      2       1.4528884813      0.3316520432
| 72>      3       0.6104290854      0.7677130412
| 73>     d 1 
| 74>      1       0.2421627651      1.0000000000
| 75>     d 1 
| 76>      1       0.0879093183      1.0000000000
| 77>     p 1 
| 78>      1       0.0277011051      1.0000000000
| 79>   end
| 80>   NewAuxGTO 73
| 81>     S 1
| 82>      1 1310.72 1.0
| 83>     S 1
| 84>      1  655.36 1.0
| 85>     S 1
| 86>      1  327.68 1.0
| 87>     S 1
| 88>      1  163.84 1.0
| 89>     S 1
| 90>      1   81.82 1.0
| 91>     S 1
| 92>      1   40.96 1.0
| 93>     S 1
| 94>      1   20.48 1.0
| 95>     S 1
| 96>      1   10.24 1.0
| 97>     S 1
| 98>      1    5.12 1.0
| 99>     S 1
|100>      1    2.56 1.0
|101>     S 1
|102>      1    1.28 1.0
|103>     S 1
|104>      1    0.64 1.0
|105>     S 1
|106>      1    0.32 1.0
|107>     S 1
|108>      1    0.16 1.0
|109>     S 1
|110>      1    0.08 1.0
|111>     S 1
|112>      1    0.04 1.0
|113>     S 1
|114>      1    0.02 1.0
|115>     S 1
|116>      1    0.01 1.0
|117>   end
|118> end
|119> 
|120> * xyz 0 4
|121> 73  0.0 0.0 0.0
|122> *
|123> 
|124> 
|125>                          ****END OF INPUT****
================================================================================

                       ****************************
                       * Single Point Calculation *
                       ****************************

---------------------------------
CARTESIAN COORDINATES (ANGSTROEM)
---------------------------------
  Ta     0.000000    0.000000    0.000000

----------------------------
CARTESIAN COORDINATES (A.U.)
----------------------------
  NO LB      ZA    FRAG     MASS         X           Y           Z
   0 Ta   13.0000*   0   180.948    0.000000    0.000000    0.000000
* core charge reduced due to ECP

--------------------------------
INTERNAL COORDINATES (ANGSTROEM)
--------------------------------
 Ta     0   0   0     0.000000000000     0.00000000     0.00000000

---------------------------
INTERNAL COORDINATES (A.U.)
---------------------------
 Ta     0   0   0     0.000000000000     0.00000000     0.00000000

---------------------
BASIS SET INFORMATION
---------------------
There are 1 groups of distinct atoms

 Group   1 Type Ta  : 9s8p5d contracted to 6s5p3d pattern {411111/41111/311}

Atom   0Ta   basis set group =>   1
---------------------------------
AUXILIARY/J BASIS SET INFORMATION
---------------------------------
There are 1 groups of distinct atoms

 Group   1 Type Ta  : 18s contracted to 18s pattern {111111111111111111}

Atom   0Ta   basis set group =>   1
-------------------------
ECP PARAMETER INFORMATION
-------------------------

 Group 1, Type Ta ECP (replacing 60 core electrons, lmax=3)

Atom   0Ta   ECP group =>   1

------------------------------------------------------------------------------
                           ORCA GTO INTEGRAL CALCULATION
------------------------------------------------------------------------------

                         BASIS SET STATISTICS AND STARTUP INFO

 # of primitive gaussian shells          ...   22
 # of primitive gaussian functions       ...   58
 # of contracted shells                  ...   14
 # of contracted basis functions         ...   36
 Highest angular momentum                ...    2
 Maximum contraction depth               ...    4
 Integral package used                   ... LIBINT
 Integral threshhold            Thresh   ...  1.000e-10
 Primitive cut-off              TCut     ...  1.000e-11
 Storage cut-off                TCutStore... -1.000e+00
 Buffer length                           ... 1048576 integrals/buffer
 Generate file with integrals 4 distinct ...false


------------------------------ INTEGRAL EVALUATION ----------------------------


 * One electron integrals 

   ECP integrals                         ... done
 Pre-screening matrix                    ... done
 Shell pair data                         ... done (   0.000 sec)
 Statistics run                          ... done
 Maximum amount of storage needed        ...     2 MB
 Maximum amount of storage dedicated     ... 500000 MB
 Beginning two electron integral evaluation:
 Starting repulsion integrals
  <ss|ss>  ...          231 b.         0 skpd (  0.0%)     0.000 s. (  0.000 ms/b)
  <ss|sp>  ...          630 b.         0 skpd (  0.0%)     0.000 s. (  0.000 ms/b)
  <ss|sd>  ...          378 b.         0 skpd (  0.0%)     0.000 s. (  0.001 ms/b)
  <ss|pp>  ...          315 b.         0 skpd (  0.0%)     0.000 s. (  0.001 ms/b)
  <ss|pd>  ...          315 b.         0 skpd (  0.0%)     0.000 s. (  0.001 ms/b)
  <ss|dd>  ...          126 b.         0 skpd (  0.0%)     0.000 s. (  0.002 ms/b)
  <sp|sp>  ...          465 b.         0 skpd (  0.0%)     0.000 s. (  0.001 ms/b)
  <sp|sd>  ...          540 b.         0 skpd (  0.0%)     0.000 s. (  0.001 ms/b)
  <sp|pp>  ...          450 b.         0 skpd (  0.0%)     0.001 s. (  0.001 ms/b)
  <sp|pd>  ...          450 b.         0 skpd (  0.0%)     0.001 s. (  0.002 ms/b)
  <sp|dd>  ...          180 b.         0 skpd (  0.0%)     0.001 s. (  0.004 ms/b)
  <sd|sd>  ...          171 b.         0 skpd (  0.0%)     0.000 s. (  0.002 ms/b)
  <sd|pp>  ...          270 b.         0 skpd (  0.0%)     0.001 s. (  0.002 ms/b)
  <sd|pd>  ...          270 b.         0 skpd (  0.0%)     0.001 s. (  0.004 ms/b)
  <sd|dd>  ...          108 b.         0 skpd (  0.0%)     0.001 s. (  0.008 ms/b)
  <pp|pp>  ...          120 b.         0 skpd (  0.0%)     0.000 s. (  0.003 ms/b)
  <pp|pd>  ...          225 b.         0 skpd (  0.0%)     0.001 s. (  0.005 ms/b)
  <pp|dd>  ...           90 b.         0 skpd (  0.0%)     0.001 s. (  0.011 ms/b)
  <pd|pd>  ...          120 b.         0 skpd (  0.0%)     0.001 s. (  0.012 ms/b)
  <pd|dd>  ...           90 b.         0 skpd (  0.0%)     0.002 s. (  0.023 ms/b)
  <dd|dd>  ...           21 b.         0 skpd (  0.0%)     0.001 s. (  0.057 ms/b)


                                      INTEGRAL STATISTICS

Integral type statistics:
 Number of integrals retained            ...     222111 
 One   Center Integrals retained         ...     222111 (100.0%)
 Two   Center Integrals retained         ...          0 (  0.0%)
 Three Center Integrals retained         ...          0 (  0.0%)
 Four  Center Integrals retained         ...          0 (  0.0%)

Storage statistics:
 Number of char integrals                ...          0 (  0.0%)
 Number of short int integrals           ...          0 (  0.0%)
 Number of double/float integrals        ...     222111 (100.0%)
 Amount of memory used                   ...          2 MB
 Amount of memory estimated              ...          2 MB ( 95.1%)

Prescreening statistics:
 Total number of shell quadruples        ...       5565 
 Number of skipped shell quadruples      ...          0 (  0.0%)
 # of negligible batches done            ...          0 (  0.0%)

Timings:
 Total evaluation time               ...     0.178 sec (   0.003 min)
 One electron matrix time            ...     0.016 sec (   0.000 min) =  8.8%
 Schwartz matrix evaluation time     ...     0.070 sec (   0.001 min) = 39.2%
 Statistics run                      ...     0.002 sec (   0.000 min) =  1.0%
 Repulsion integral time             ...     0.014 sec (   0.000 min) =  8.0%

-------------------------------------------------------------------------------
                                 ORCA SCF
-------------------------------------------------------------------------------

------------
SCF SETTINGS
------------
Hamiltonian:
 Ab initio Hamiltonian  Method          .... Hartree-Fock(GTOs)


General Settings:
 Integral files         IntName         .... 73_Ta_atom73
 Hartree-Fock type      HFTyp           .... ROHF
 Total Charge           Charge          ....    0
 Multiplicity           Mult            ....    4
 Number of Electrons    NEL             ....   13
 Basis Dimension        Dim             ....   36
 Nuclear Repulsion      ENuc            ....      0.0000000000 Eh

Convergence Acceleration:
 DIIS                   CNVDIIS         .... on
   Start iteration      DIISMaxIt       ....    12
   Startup error        DIISStart       ....  0.200000
   # of expansion vecs  DIISMaxEq       ....     5
   Bias factor          DIISBfac        ....   1.050
   Max. coefficient     DIISMaxC        ....  10.000
 Newton-Raphson         CNVNR           .... off
 SOSCF                  CNVSOSCF        .... off
 Level Shifting         CNVShift        .... on
   Level shift para.    LevelShift      ....    0.2000
   Turn off err/grad.   ShiftErr        ....    0.0010
 Zerner damping         CNVZerner       .... off
 Static damping         CNVDamp         .... on
   Fraction old density DampFac         ....    0.7000
   Max. Damping (<1)    DampMax         ....    0.9800
   Min. Damping (>=0)   DampMin         ....    0.0000
   Turn off err/grad.   DampErr         ....    0.1000
 Fernandez-Rico         CNVRico         .... off

SCF Procedure:
 Maximum # iterations   MaxIter         ....  1000
 SCF integral mode      SCFMode         .... Conventional
 Integral Threshold     Thresh          ....  1.000e-10 Eh
 Primitive CutOff       TCut            ....  1.000e-11 Eh
 Integral Buffer length BufferLength    .... 1048576
 Integral index format  IndFormat       ....     0
 Integral value format  ValFormat       ....     0
 Integral Storage       Thresh          ....  1.000e-10 Eh

Convergence Tolerance:
 Convergence Check Mode ConvCheckMode   .... Total+1el-Energy
 Convergence forced     ConvForced      .... 0
 Energy Change          TolE            ....  1.000e-06 Eh
 1-El. energy change                    ....  1.000e-03 Eh
 DIIS Error             TolErr          ....  1.000e-06


Diagonalization of the overlap matrix:
Smallest eigenvalue                        ... 2.105e-02
Time for diagonalization                   ...    0.000 sec
Threshold for overlap eigenvalues          ... 1.000e-08
Number of eigenvalues below threshold      ... 0
Time for construction of square roots      ...    0.002 sec
Total time needed                          ...    0.002 sec

--------------------
INITIAL GUESS: HCORE
--------------------
AVERAGE-CONFIGURATION (SAHF) CASE FOUND

-------------------
FINAL ROHF SETTINGS
-------------------
Number of operators             ... 2
  operator   0:   5 orbitals  10 electrons n(mue)= 2.000
  operator   1:   5 orbitals   3 electrons n(mue)= 0.600
Vector coupling coefficients a and b (Zerner convention):
   1.000    1.000           1.000    1.000 
   1.000    0.833           1.000    1.667 

                      -----------------
                      INTIAL GUESS DONE 
                      -----------------

 InCore treatment chosen:
   Memory dedicated               ...    1024 MB
   Memory needed                  ...      2 MB
   Number of tiny    integrals    ...       0
   Number of small   integrals    ...       0
   Number of regular integrals    ...  222111

--------------
SCF ITERATIONS
--------------
ITER       Energy         Delta-E        Max-DP      RMS-DP      [F,P]     Damp
  0    -51.9496733310   0.000000000000 2.45426660  0.08544582  0.6233376 0.7000
                            ****Activating DIIS****
  1    -54.8344073282  -2.884733997182 1.71660772  0.05793410  0.1768348 0.7000
  2    -54.6973107689   0.137096559329 3.99829137  0.13219285  0.0801681 0.0000
  3    -54.5451045815   0.152206187353 0.04896629  0.00206176  0.1892570 0.7000
  4    -54.4736863655   0.071418216050 0.03641451  0.00149870  0.2270830 0.7000
  5    -54.4572960720   0.016390293525 0.05927541  0.00252480  0.2328256 0.7000
  6    -54.3830281428   0.074267929185 0.04312376  0.00186219  0.2701069 0.7000
  7    -54.3622995730   0.020728569770 1.04054777  0.03791710  0.2721529 0.7000
  8    -55.8155911507  -1.453291577700 0.70575179  0.02646729  0.1314095 0.7000
  9    -55.8301420051  -0.014550854369 1.60077373  0.06133975  0.0456334 0.0000
 10    -55.8693242629  -0.039182257777 0.00502673  0.00023788  0.1324523 0.7000
 11    -55.8533904414   0.015933821475 0.00476157  0.00022361  0.1468999 0.7000
 12    -55.8470522090   0.006338232348 0.01683540  0.00084728  0.1502970 0.7000
 13    -55.7951716728   0.051880536219 0.00469320  0.00024074  0.1893749 0.7000
 14    -55.8086670672  -0.013495394418 0.43033654  0.00963777  0.1713579 0.7000
 15    -55.9953203161  -0.186653248904 0.88465377  0.02070232  0.0751168 0.0000
 16    -56.0717265139  -0.076406197778 0.16870473  0.00496543  0.0529565 0.0000
 17    -56.0966608597  -0.024934345746 0.31812460  0.00806080  0.0426915 0.0000
 18    -56.1035743093  -0.006913449609 0.17768730  0.00449479  0.0415923 0.0000
 19    -56.1109065511  -0.007332241820 0.16051730  0.00442490  0.0371614 0.0000
 20    -56.1169750948  -0.006068543681 0.18469770  0.00593521  0.0341249 0.0000
 21    -56.1242480668  -0.007272971993 0.33579821  0.00896721  0.0321607 0.0000
 22    -56.1249075211  -0.000659454308 0.13656011  0.00371946  0.0264971 0.0000
 23    -56.1251470801  -0.000239559017 0.04569669  0.00193709  0.0241243 0.0000
 24    -56.1265977519  -0.001450671783 0.04401036  0.00159978  0.0223016 0.0000
 25    -56.1293419429  -0.002744191032 0.09337993  0.00246579  0.0209906 0.0000
 26    -56.1330533513  -0.003711408396 0.13070126  0.00328885  0.0196553 0.0000
 27    -56.1374569588  -0.004403607529 0.11073096  0.00291568  0.0182369 0.0000
 28    -56.1417580309  -0.004301072061 0.09661157  0.00284078  0.0163477 0.0000
 29    -56.1469077116  -0.005149680758 0.08629165  0.00313676  0.0156314 0.0000
 30    -56.1539611176  -0.007053405942 0.05767415  0.00252990  0.0171137 0.0000
 31    -56.1605365187  -0.006575401155 0.03694580  0.00146033  0.0180073 0.0000
 32    -56.1643099402  -0.003773421505 0.01449832  0.00065776  0.0183015 0.0000
 33    -56.1660442892  -0.001734348984 0.00709740  0.00036372  0.0183945 0.0000
 34    -56.1671006989  -0.001056409626 0.01570009  0.00055684  0.0184595 0.0000
 35    -56.1685542071  -0.001453508236 0.02454350  0.00106718  0.0185318 0.0000
 36    -56.1714602719  -0.002906064838 0.03145675  0.00148382  0.0185784 0.0000
 37    -56.1755784699  -0.004118197934 0.03589176  0.00167625  0.0184753 0.0000
 38    -56.1802144973  -0.004636027430 0.05369066  0.00256934  0.0181156 0.0000
 39    -56.1871643900  -0.006949892664 0.10385803  0.00562839  0.0170081 0.0000
 40    -56.2004048475  -0.013240457587 0.04680034  0.00283386  0.0115942 0.0000
 41    -56.2047254129  -0.004320565371 0.04487429  0.00213677  0.0066831 0.0000
 42    -56.2063675429  -0.001642130017 0.01765714  0.00071856  0.0022591 0.0000
 43    -56.2066235722  -0.000256029243 0.01322579  0.00051349  0.0013563 0.0000
 44    -56.2067523963  -0.000128824122 0.00840920  0.00031980  0.0006565 0.0000
 45    -56.2067885327  -0.000036136395 0.00280183  0.00012079  0.0005410 0.0000
 46    -56.2067930282  -0.000004495549 0.00227405  0.00007042  0.0003399 0.0000
 47    -56.2067942685  -0.000001240223 0.00140190  0.00004359  0.0001503 0.0000
                 **** Energy Check signals convergence ****

               *****************************************************
               *                     SUCCESS                       *
               *           SCF CONVERGED AFTER  48 CYCLES          *
               *****************************************************


----------------
TOTAL SCF ENERGY
----------------

Total Energy       :          -56.20679464 Eh           -1529.46464 eV

Components:
Nuclear Repulsion  :            0.00000000 Eh               0.00000 eV
Electronic Energy  :          -56.20679464 Eh           -1529.46464 eV
One Electron Energy:          -93.63493591 Eh           -2547.93614 eV
Two Electron Energy:           37.42814127 Eh            1018.47150 eV

Virial components:
Potential Energy   :          -75.33913928 Eh           -2050.08220 eV
Kinetic Energy     :           19.13234464 Eh             520.61757 eV
Virial Ratio       :            3.93778916


---------------
SCF CONVERGENCE
---------------

  Last Energy change         ...   -3.7342e-07  Tolerance :   1.0000e-06
  Last MAX-Density change    ...    4.7463e-04  Tolerance :   1.0000e-05
  Last RMS-Density change    ...    1.6675e-05  Tolerance :   1.0000e-06
  Last DIIS Error            ...    4.5475e-05  Tolerance :   1.0000e-06

             **** THE GBW FILE WAS UPDATED (73_Ta_atom73.gbw) ****
             **** DENSITY FILE WAS UPDATED (73_Ta_atom73.scfp) ****
             **** ENERGY FILE WAS UPDATED (73_Ta_atom73.en.tmp) ****
             **** THE GBW FILE WAS UPDATED (73_Ta_atom73.gbw) ****
             **** DENSITY FILE WAS UPDATED (73_Ta_atom73.scfp) ****
----------------
ORBITAL ENERGIES
----------------

  NO   OCC          E(Eh)            E(eV) 
   0   2.0000      -3.228033       -87.8392 
   1   2.0000      -1.796726       -48.8914 
   2   2.0000      -1.796689       -48.8904 
   3   2.0000      -1.788700       -48.6730 
   4   2.0000      -0.293160        -7.9773 
   5   0.6000      -0.369393       -10.0517 
   6   0.6000      -0.357342        -9.7238 
   7   0.6000      -0.357301        -9.7227 
   8   0.6000      -0.354869        -9.6565 
   9   0.6000      -0.181612        -4.9419 
  10   0.0000      -0.078338        -2.1317 
  11   0.0000      -0.078314        -2.1310 
  12   0.0000      -0.147581        -4.0159 
  13   0.0000       0.044778         1.2185 
  14   0.0000       0.037015         1.0072 
  15   0.0000       0.037039         1.0079 
  16   0.0000       0.050140         1.3644 
  17   0.0000       0.172350         4.6899 
  18   0.0000       0.170784         4.6473 
  19   0.0000       0.170817         4.6482 
  20   0.0000       0.170198         4.6313 
  21   0.0000       0.179222         4.8769 
  22   0.0000       0.655219        17.8294 
  23   0.0000       0.655276        17.8310 
  24   0.0000       0.656836        17.8734 
  25   0.0000       1.100656        29.9504 
  26   0.0000       1.118263        30.4295 
  27   0.0000       1.106900        30.1203 
  28   0.0000       1.106947        30.1216 
  29   0.0000       1.109070        30.1793 
  30   0.0000       1.641168        44.6584 
  31   0.0000      34.771833       946.1897 
  32   0.0000      34.771869       946.1907 
  33   0.0000      34.782281       946.4740 
  34   0.0000      78.184339      2127.5040 
  35   0.0000     677.577731     18437.8274 
CleanUpVectors: The p-vectors have cracked symmetry
CleanUpVectors: The p-vectors have cracked symmetry
CleanUpVectors: The p-vectors have cracked symmetry
CleanUpVectors: The d-vectors have cracked symmetry at i=5
CleanUpVectors: The d-vectors have cracked symmetry at i=6
CleanUpVectors: The d-vectors have cracked symmetry at i=7
CleanUpVectors: The d-vectors have cracked symmetry at i=8
CleanUpVectors: The p-vectors have cracked symmetry
CleanUpVectors: The p-vectors have cracked symmetry
CleanUpVectors: The p-vectors have cracked symmetry
CleanUpVectors: The d-vectors have cracked symmetry at i=12
CleanUpVectors: The p-vectors have cracked symmetry
CleanUpVectors: The p-vectors have cracked symmetry
CleanUpVectors: The p-vectors have cracked symmetry
CleanUpVectors: The d-vectors have cracked symmetry at i=17
CleanUpVectors: The d-vectors have cracked symmetry at i=18
CleanUpVectors: The d-vectors have cracked symmetry at i=19
CleanUpVectors: The d-vectors have cracked symmetry at i=20
CleanUpVectors: The d-vectors have cracked symmetry at i=21
CleanUpVectors: The p-vectors have cracked symmetry
CleanUpVectors: The p-vectors have cracked symmetry
CleanUpVectors: The p-vectors have cracked symmetry
CleanUpVectors: The d-vectors have cracked symmetry at i=25
CleanUpVectors: The d-vectors have cracked symmetry at i=26
CleanUpVectors: The d-vectors have cracked symmetry at i=27
CleanUpVectors: The d-vectors have cracked symmetry at i=28
CleanUpVectors: The d-vectors have cracked symmetry at i=29
CleanUpVectors: The p-vectors have cracked symmetry
CleanUpVectors: The p-vectors have cracked symmetry
CleanUpVectors: The p-vectors have cracked symmetry
--------------------------
ATOM BASIS FOR ELEMENT Ta
--------------------------
 NewGTO Ta
 S 9
    1         24.473650944000         0.204724187909
    2         18.721372549000        -0.742432177967
    3         11.500000000000         3.387626545519
    4         10.350000000000        -2.801414996057
    5          3.843618008900        -0.616017602693
    6          1.020226601600         0.834000948432
    7          0.467747818700         0.503551681569
    8          0.103231866700         0.013050189840
    9          0.038674461200        -0.002689160263
 P 22
    1         17.000000000000        -0.021928432072
    2         12.008186536000         0.069575605289
    3          5.027876058300        -0.192017689043
    4          1.193712418400         0.348609736755
    5         17.000000000000        -0.006388862991
    6         12.008186536000         0.020270897995
    7          5.027876058300        -0.055944478982
    8          1.193712418400         0.101567674250
    9         17.000000000000         0.020965881380
   10         12.008186536000        -0.066521577222
   11          5.027876058300         0.183589053614
   12          1.193712418400        -0.333307477923
   13          0.578897070500         0.356039831796
   14          0.578897070500         0.103732437288
   15          0.578897070500        -0.340411428208
   16          0.272251988000         0.109729257961
   17          0.272251988000         0.031969690899
   18          0.272251988000        -0.104912681343
   19          0.065000000000         0.007342097096
   20          0.065000000000         0.002139124779
   21          0.065000000000        -0.007019815019
   22          0.027701105100        -0.001974217712
 S 9
    1         24.473650944000         0.070191559629
    2         18.721372549000        -0.254549660315
    3         11.500000000000         1.161478734390
    4         10.350000000000        -0.960490744892
    5          3.843618008900        -0.229199839788
    6          1.020226601600         0.400542637097
    7          0.467747818700         0.374276407457
    8          0.103231866700        -0.782735318339
    9          0.038674461200        -0.442054021251
 D 22
    1         24.473650944000        -0.000000447590
    2         18.721372549000         0.000002121918
    3         11.500000000000        -0.000015761851
    4         10.350000000000         0.000014482603
    5          3.843618008900         0.000009162212
    6          1.020226601600        -0.000054642747
    7          0.467747818700        -0.000143704537
    8          0.103231866700         0.001073797700
    9          0.038674461200         0.002274295475
   10          3.973879627800        -0.000833589844
   11          1.452888481300         0.002929967539
   12          0.610429085400         0.006782332074
   13          3.973879627800        -0.009060271146
   14          1.452888481300         0.031845757876
   15          0.610429085400         0.073717030032
   16          3.973879627800         0.053706645710
   17          1.452888481300        -0.188772367626
   18          0.610429085400        -0.436973060822
   19          3.973879627800        -0.002744493835
   20          1.452888481300         0.009646564077
   21          0.610429085400         0.022330008805
   22          3.973879627800         0.006579276836
 D 22
    1          3.973879627800        -0.008578725500
    2          1.452888481300         0.030153183137
    3          0.610429085400         0.069799033060
    4          3.973879627800         0.035966866502
    5          1.452888481300        -0.126419188089
    6          0.610429085400        -0.292637001171
    7          3.973879627800         0.010954995610
    8          1.452888481300        -0.038505485331
    9          0.610429085400        -0.089133065370
   10          3.973879627800         0.016845871424
   11          1.452888481300        -0.059211201730
   12          0.610429085400        -0.137062963082
   13          3.973879627800        -0.033955746036
   14          1.452888481300         0.119350342756
   15          0.610429085400         0.276273933733
   16          0.242162765100         0.068403065890
   17          0.242162765100        -0.286784317709
   18          0.242162765100        -0.087350421291
   19          0.242162765100        -0.134321730312
   20          0.242162765100         0.270748508458
   21          0.087909318300         0.028863414701
   22          0.087909318300        -0.121011749752
 P 22
    1         17.000000000000        -0.003761916030
    2         12.008186536000         0.011935991775
    3          5.027876058300        -0.032941453366
    4          1.193712418400         0.059805486899
    5         17.000000000000         0.000148550783
    6         12.008186536000        -0.000471329215
    7          5.027876058300         0.001300794240
    8          1.193712418400        -0.002361602933
    9         17.000000000000        -0.003889359444
   10         12.008186536000         0.012340350491
   11          5.027876058300        -0.034057419601
   12          1.193712418400         0.061831533026
   13          0.578897070500         0.119352770117
   14          0.578897070500        -0.004713009903
   15          0.578897070500         0.123396115137
   16          0.272251988000        -0.065387746260
   17          0.272251988000         0.002582035552
   18          0.272251988000        -0.067602904048
   19          0.065000000000        -0.132157471523
   20          0.065000000000         0.005218642780
   21          0.065000000000        -0.136634604763
   22          0.027701105100        -0.574480107426
 P 22
    1         17.000000000000        -0.005149395272
    2         12.008186536000         0.016338253995
    3          5.027876058300        -0.045091002256
    4          1.193712418400         0.081863095555
    5         17.000000000000        -0.001500279680
    6         12.008186536000         0.004760160986
    7          5.027876058300        -0.013137292996
    8          1.193712418400         0.023850866427
    9         17.000000000000         0.004923362104
   10         12.008186536000        -0.015621084868
   11          5.027876058300         0.043111728662
   12          1.193712418400        -0.078269707623
   13          0.578897070500         0.124092734281
   14          0.578897070500         0.036154499286
   15          0.578897070500        -0.118645672565
   16          0.272251988000         0.064522184282
   17          0.272251988000         0.018798580587
   18          0.272251988000        -0.061689977208
   19          0.065000000000        -1.260697585426
   20          0.065000000000        -0.367305065984
   21          0.065000000000         1.205359151683
   22          0.027701105100         1.081352156330
 P 22
    1         17.000000000000         0.025736850530
    2         12.008186536000        -0.081659142249
    3          5.027876058300         0.225366343831
    4          1.193712418400        -0.409154501276
    5         17.000000000000        -0.194392663320
    6         12.008186536000         0.616778580886
    7          5.027876058300        -1.702211533200
    8          1.193712418400         3.090379419984
    9         17.000000000000        -0.032318188854
   10         12.008186536000         0.102540735425
   11          5.027876058300        -0.282996245122
   12          1.193712418400         0.513782073968
   13          0.578897070500         0.523169841198
   14          0.578897070500        -3.951547167035
   15          0.578897070500        -0.656953021927
   16          0.272251988000        -0.278096954384
   17          0.272251988000         2.100490406210
   18          0.272251988000         0.349210944868
   19          0.065000000000         0.088250744857
   20          0.065000000000        -0.666565526847
   21          0.065000000000        -0.110817919833
   22          0.027701105100        -0.040194935486
 D 22
    1         24.473650944000         0.000003628631
    2         18.721372549000        -0.000017202500
    3         11.500000000000         0.000127782136
    4         10.350000000000        -0.000117411208
    5          3.843618008900        -0.000053196730
    6          1.020226601600        -0.002013575279
    7          0.467747818700         0.016692049399
    8          0.103231866700        -0.181270757076
    9          0.038674461200         0.412055560331
   10          3.973879627800        -0.010602416476
   11          1.452888481300         0.037266212297
   12          0.610429085400         0.086264377873
   13          3.973879627800        -0.004893170986
   14          1.452888481300         0.017198904529
   15          0.610429085400         0.039812277874
   16          3.973879627800        -0.000850388413
   17          1.452888481300         0.002989012477
   18          0.610429085400         0.006919010166
   19          3.973879627800         0.017992571905
   20          1.452888481300        -0.063241715308
   21          0.610429085400        -0.146392855360
   22          3.973879627800         0.006147641238
 D 22
    1         24.473650944000        -0.000000076956
    2         18.721372549000         0.000000364829
    3         11.500000000000        -0.000002709990
    4         10.350000000000         0.000002490044
    5          3.843618008900         0.000001694209
    6          1.020226601600        -0.000018688993
    7          0.467747818700         0.000021488188
    8          0.103231866700         0.000107795674
    9          0.038674461200        -0.000319918582
   10          3.973879627800        -0.001770851364
   11          1.452888481300         0.006224328486
   12          0.610429085400         0.014408167383
   13          3.973879627800        -0.018817795281
   14          1.452888481300         0.066142275724
   15          0.610429085400         0.153107115391
   16          3.973879627800         0.111430180530
   17          1.452888481300        -0.391663614914
   18          0.610429085400        -0.906628712525
   19          3.973879627800        -0.005624384013
   20          1.452888481300         0.019769029931
   21          0.610429085400         0.045761642062
   22          3.973879627800         0.013674975810
 P 22
    1         17.000000000000        -0.140560841497
    2         12.008186536000         0.445978335118
    3          5.027876058300        -1.230829813358
    4          1.193712418400         2.234581925053
    5         17.000000000000        -0.040952491290
    6         12.008186536000         0.129936073872
    7          5.027876058300        -0.358603055259
    8          1.193712418400         0.651046876549
    9         17.000000000000         0.134390899907
   10         12.008186536000        -0.426402041689
   11          5.027876058300         1.176802333344
   12          1.193712418400        -2.136494578624
   13          0.578897070500        -2.857297073916
   14          0.578897070500        -0.832475334419
   15          0.578897070500         2.731875542132
   16          0.272251988000         1.518887766953
   17          0.272251988000         0.442528924725
   18          0.272251988000        -1.452215935004
   19          0.065000000000        -0.482069051798
   20          0.065000000000        -0.140451127316
   21          0.065000000000         0.460908550339
   22          0.027701105100         0.219569263210
 end
  // -----------------------------------------------
  // The basis set
  // -----------------------------------------------
  BAS[ATNO] = new BFNGauss[NSH];
  // Basis function   1 L = s
  InitBFNGauss(BAS[ATNO][  0]);
  BAS[ATNO][  0].l  = 0;
  BAS[ATNO][  0].ng = 9;
  BAS[ATNO][  0].a[  0] =        24.473650944000;     BAS[ATNO][  0].d[  0] =         0.204724187909;
  BAS[ATNO][  0].a[  1] =        18.721372549000;     BAS[ATNO][  0].d[  1] =        -0.742432177967;
  BAS[ATNO][  0].a[  2] =        11.500000000000;     BAS[ATNO][  0].d[  2] =         3.387626545519;
  BAS[ATNO][  0].a[  3] =        10.350000000000;     BAS[ATNO][  0].d[  3] =        -2.801414996057;
  BAS[ATNO][  0].a[  4] =         3.843618008900;     BAS[ATNO][  0].d[  4] =        -0.616017602693;
  BAS[ATNO][  0].a[  5] =         1.020226601600;     BAS[ATNO][  0].d[  5] =         0.834000948432;
  BAS[ATNO][  0].a[  6] =         0.467747818700;     BAS[ATNO][  0].d[  6] =         0.503551681569;
  BAS[ATNO][  0].a[  7] =         0.103231866700;     BAS[ATNO][  0].d[  7] =         0.013050189840;
  BAS[ATNO][  0].a[  8] =         0.038674461200;     BAS[ATNO][  0].d[  8] =        -0.002689160263;

  // Basis function   2 L = p
  InitBFNGauss(BAS[ATNO][  1]);
  BAS[ATNO][  1].l  = 1;
  BAS[ATNO][  1].ng = 22;
  BAS[ATNO][  1].a[  0] =        17.000000000000;     BAS[ATNO][  1].d[  0] =        -0.021928432072;
  BAS[ATNO][  1].a[  1] =        12.008186536000;     BAS[ATNO][  1].d[  1] =         0.069575605289;
  BAS[ATNO][  1].a[  2] =         5.027876058300;     BAS[ATNO][  1].d[  2] =        -0.192017689043;
  BAS[ATNO][  1].a[  3] =         1.193712418400;     BAS[ATNO][  1].d[  3] =         0.348609736755;
  BAS[ATNO][  1].a[  4] =        17.000000000000;     BAS[ATNO][  1].d[  4] =        -0.006388862991;
  BAS[ATNO][  1].a[  5] =        12.008186536000;     BAS[ATNO][  1].d[  5] =         0.020270897995;
  BAS[ATNO][  1].a[  6] =         5.027876058300;     BAS[ATNO][  1].d[  6] =        -0.055944478982;
  BAS[ATNO][  1].a[  7] =         1.193712418400;     BAS[ATNO][  1].d[  7] =         0.101567674250;
  BAS[ATNO][  1].a[  8] =        17.000000000000;     BAS[ATNO][  1].d[  8] =         0.020965881380;
  BAS[ATNO][  1].a[  9] =        12.008186536000;     BAS[ATNO][  1].d[  9] =        -0.066521577222;
  BAS[ATNO][  1].a[ 10] =         5.027876058300;     BAS[ATNO][  1].d[ 10] =         0.183589053614;
  BAS[ATNO][  1].a[ 11] =         1.193712418400;     BAS[ATNO][  1].d[ 11] =        -0.333307477923;
  BAS[ATNO][  1].a[ 12] =         0.578897070500;     BAS[ATNO][  1].d[ 12] =         0.356039831796;
  BAS[ATNO][  1].a[ 13] =         0.578897070500;     BAS[ATNO][  1].d[ 13] =         0.103732437288;
  BAS[ATNO][  1].a[ 14] =         0.578897070500;     BAS[ATNO][  1].d[ 14] =        -0.340411428208;
  BAS[ATNO][  1].a[ 15] =         0.272251988000;     BAS[ATNO][  1].d[ 15] =         0.109729257961;
  BAS[ATNO][  1].a[ 16] =         0.272251988000;     BAS[ATNO][  1].d[ 16] =         0.031969690899;
  BAS[ATNO][  1].a[ 17] =         0.272251988000;     BAS[ATNO][  1].d[ 17] =        -0.104912681343;
  BAS[ATNO][  1].a[ 18] =         0.065000000000;     BAS[ATNO][  1].d[ 18] =         0.007342097096;
  BAS[ATNO][  1].a[ 19] =         0.065000000000;     BAS[ATNO][  1].d[ 19] =         0.002139124779;
  BAS[ATNO][  1].a[ 20] =         0.065000000000;     BAS[ATNO][  1].d[ 20] =        -0.007019815019;
  BAS[ATNO][  1].a[ 21] =         0.027701105100;     BAS[ATNO][  1].d[ 21] =        -0.001974217712;

  // Basis function   3 L = s
  InitBFNGauss(BAS[ATNO][  2]);
  BAS[ATNO][  2].l  = 0;
  BAS[ATNO][  2].ng = 9;
  BAS[ATNO][  2].a[  0] =        24.473650944000;     BAS[ATNO][  2].d[  0] =         0.070191559629;
  BAS[ATNO][  2].a[  1] =        18.721372549000;     BAS[ATNO][  2].d[  1] =        -0.254549660315;
  BAS[ATNO][  2].a[  2] =        11.500000000000;     BAS[ATNO][  2].d[  2] =         1.161478734390;
  BAS[ATNO][  2].a[  3] =        10.350000000000;     BAS[ATNO][  2].d[  3] =        -0.960490744892;
  BAS[ATNO][  2].a[  4] =         3.843618008900;     BAS[ATNO][  2].d[  4] =        -0.229199839788;
  BAS[ATNO][  2].a[  5] =         1.020226601600;     BAS[ATNO][  2].d[  5] =         0.400542637097;
  BAS[ATNO][  2].a[  6] =         0.467747818700;     BAS[ATNO][  2].d[  6] =         0.374276407457;
  BAS[ATNO][  2].a[  7] =         0.103231866700;     BAS[ATNO][  2].d[  7] =        -0.782735318339;
  BAS[ATNO][  2].a[  8] =         0.038674461200;     BAS[ATNO][  2].d[  8] =        -0.442054021251;

  // Basis function   4 L = d
  InitBFNGauss(BAS[ATNO][  3]);
  BAS[ATNO][  3].l  = 2;
  BAS[ATNO][  3].ng = 22;
  BAS[ATNO][  3].a[  0] =        24.473650944000;     BAS[ATNO][  3].d[  0] =         0.000000447590;
  BAS[ATNO][  3].a[  1] =        18.721372549000;     BAS[ATNO][  3].d[  1] =        -0.000002121918;
  BAS[ATNO][  3].a[  2] =        11.500000000000;     BAS[ATNO][  3].d[  2] =         0.000015761851;
  BAS[ATNO][  3].a[  3] =        10.350000000000;     BAS[ATNO][  3].d[  3] =        -0.000014482603;
  BAS[ATNO][  3].a[  4] =         3.843618008900;     BAS[ATNO][  3].d[  4] =        -0.000009162212;
  BAS[ATNO][  3].a[  5] =         1.020226601600;     BAS[ATNO][  3].d[  5] =         0.000054642747;
  BAS[ATNO][  3].a[  6] =         0.467747818700;     BAS[ATNO][  3].d[  6] =         0.000143704537;
  BAS[ATNO][  3].a[  7] =         0.103231866700;     BAS[ATNO][  3].d[  7] =        -0.001073797700;
  BAS[ATNO][  3].a[  8] =         0.038674461200;     BAS[ATNO][  3].d[  8] =        -0.002274295475;
  BAS[ATNO][  3].a[  9] =         3.973879627800;     BAS[ATNO][  3].d[  9] =         0.000833589844;
  BAS[ATNO][  3].a[ 10] =         1.452888481300;     BAS[ATNO][  3].d[ 10] =        -0.002929967539;
  BAS[ATNO][  3].a[ 11] =         0.610429085400;     BAS[ATNO][  3].d[ 11] =        -0.006782332074;
  BAS[ATNO][  3].a[ 12] =         3.973879627800;     BAS[ATNO][  3].d[ 12] =         0.009060271146;
  BAS[ATNO][  3].a[ 13] =         1.452888481300;     BAS[ATNO][  3].d[ 13] =        -0.031845757876;
  BAS[ATNO][  3].a[ 14] =         0.610429085400;     BAS[ATNO][  3].d[ 14] =        -0.073717030032;
  BAS[ATNO][  3].a[ 15] =         3.973879627800;     BAS[ATNO][  3].d[ 15] =        -0.053706645710;
  BAS[ATNO][  3].a[ 16] =         1.452888481300;     BAS[ATNO][  3].d[ 16] =         0.188772367626;
  BAS[ATNO][  3].a[ 17] =         0.610429085400;     BAS[ATNO][  3].d[ 17] =         0.436973060822;
  BAS[ATNO][  3].a[ 18] =         3.973879627800;     BAS[ATNO][  3].d[ 18] =         0.002744493835;
  BAS[ATNO][  3].a[ 19] =         1.452888481300;     BAS[ATNO][  3].d[ 19] =        -0.009646564077;
  BAS[ATNO][  3].a[ 20] =         0.610429085400;     BAS[ATNO][  3].d[ 20] =        -0.022330008805;
  BAS[ATNO][  3].a[ 21] =         3.973879627800;     BAS[ATNO][  3].d[ 21] =        -0.006579276836;

  // Basis function   5 L = d
  InitBFNGauss(BAS[ATNO][  4]);
  BAS[ATNO][  4].l  = 2;
  BAS[ATNO][  4].ng = 22;
  BAS[ATNO][  4].a[  0] =         3.973879627800;     BAS[ATNO][  4].d[  0] =         0.008578725500;
  BAS[ATNO][  4].a[  1] =         1.452888481300;     BAS[ATNO][  4].d[  1] =        -0.030153183137;
  BAS[ATNO][  4].a[  2] =         0.610429085400;     BAS[ATNO][  4].d[  2] =        -0.069799033060;
  BAS[ATNO][  4].a[  3] =         3.973879627800;     BAS[ATNO][  4].d[  3] =        -0.035966866502;
  BAS[ATNO][  4].a[  4] =         1.452888481300;     BAS[ATNO][  4].d[  4] =         0.126419188089;
  BAS[ATNO][  4].a[  5] =         0.610429085400;     BAS[ATNO][  4].d[  5] =         0.292637001171;
  BAS[ATNO][  4].a[  6] =         3.973879627800;     BAS[ATNO][  4].d[  6] =        -0.010954995610;
  BAS[ATNO][  4].a[  7] =         1.452888481300;     BAS[ATNO][  4].d[  7] =         0.038505485331;
  BAS[ATNO][  4].a[  8] =         0.610429085400;     BAS[ATNO][  4].d[  8] =         0.089133065370;
  BAS[ATNO][  4].a[  9] =         3.973879627800;     BAS[ATNO][  4].d[  9] =        -0.016845871424;
  BAS[ATNO][  4].a[ 10] =         1.452888481300;     BAS[ATNO][  4].d[ 10] =         0.059211201730;
  BAS[ATNO][  4].a[ 11] =         0.610429085400;     BAS[ATNO][  4].d[ 11] =         0.137062963082;
  BAS[ATNO][  4].a[ 12] =         3.973879627800;     BAS[ATNO][  4].d[ 12] =         0.033955746036;
  BAS[ATNO][  4].a[ 13] =         1.452888481300;     BAS[ATNO][  4].d[ 13] =        -0.119350342756;
  BAS[ATNO][  4].a[ 14] =         0.610429085400;     BAS[ATNO][  4].d[ 14] =        -0.276273933733;
  BAS[ATNO][  4].a[ 15] =         0.242162765100;     BAS[ATNO][  4].d[ 15] =        -0.068403065890;
  BAS[ATNO][  4].a[ 16] =         0.242162765100;     BAS[ATNO][  4].d[ 16] =         0.286784317709;
  BAS[ATNO][  4].a[ 17] =         0.242162765100;     BAS[ATNO][  4].d[ 17] =         0.087350421291;
  BAS[ATNO][  4].a[ 18] =         0.242162765100;     BAS[ATNO][  4].d[ 18] =         0.134321730312;
  BAS[ATNO][  4].a[ 19] =         0.242162765100;     BAS[ATNO][  4].d[ 19] =        -0.270748508458;
  BAS[ATNO][  4].a[ 20] =         0.087909318300;     BAS[ATNO][  4].d[ 20] =        -0.028863414701;
  BAS[ATNO][  4].a[ 21] =         0.087909318300;     BAS[ATNO][  4].d[ 21] =         0.121011749752;

  // Basis function   6 L = p
  InitBFNGauss(BAS[ATNO][  5]);
  BAS[ATNO][  5].l  = 1;
  BAS[ATNO][  5].ng = 22;
  BAS[ATNO][  5].a[  0] =        17.000000000000;     BAS[ATNO][  5].d[  0] =         0.003761916030;
  BAS[ATNO][  5].a[  1] =        12.008186536000;     BAS[ATNO][  5].d[  1] =        -0.011935991775;
  BAS[ATNO][  5].a[  2] =         5.027876058300;     BAS[ATNO][  5].d[  2] =         0.032941453366;
  BAS[ATNO][  5].a[  3] =         1.193712418400;     BAS[ATNO][  5].d[  3] =        -0.059805486899;
  BAS[ATNO][  5].a[  4] =        17.000000000000;     BAS[ATNO][  5].d[  4] =        -0.000148550783;
  BAS[ATNO][  5].a[  5] =        12.008186536000;     BAS[ATNO][  5].d[  5] =         0.000471329215;
  BAS[ATNO][  5].a[  6] =         5.027876058300;     BAS[ATNO][  5].d[  6] =        -0.001300794240;
  BAS[ATNO][  5].a[  7] =         1.193712418400;     BAS[ATNO][  5].d[  7] =         0.002361602933;
  BAS[ATNO][  5].a[  8] =        17.000000000000;     BAS[ATNO][  5].d[  8] =         0.003889359444;
  BAS[ATNO][  5].a[  9] =        12.008186536000;     BAS[ATNO][  5].d[  9] =        -0.012340350491;
  BAS[ATNO][  5].a[ 10] =         5.027876058300;     BAS[ATNO][  5].d[ 10] =         0.034057419601;
  BAS[ATNO][  5].a[ 11] =         1.193712418400;     BAS[ATNO][  5].d[ 11] =        -0.061831533026;
  BAS[ATNO][  5].a[ 12] =         0.578897070500;     BAS[ATNO][  5].d[ 12] =        -0.119352770117;
  BAS[ATNO][  5].a[ 13] =         0.578897070500;     BAS[ATNO][  5].d[ 13] =         0.004713009903;
  BAS[ATNO][  5].a[ 14] =         0.578897070500;     BAS[ATNO][  5].d[ 14] =        -0.123396115137;
  BAS[ATNO][  5].a[ 15] =         0.272251988000;     BAS[ATNO][  5].d[ 15] =         0.065387746260;
  BAS[ATNO][  5].a[ 16] =         0.272251988000;     BAS[ATNO][  5].d[ 16] =        -0.002582035552;
  BAS[ATNO][  5].a[ 17] =         0.272251988000;     BAS[ATNO][  5].d[ 17] =         0.067602904048;
  BAS[ATNO][  5].a[ 18] =         0.065000000000;     BAS[ATNO][  5].d[ 18] =         0.132157471523;
  BAS[ATNO][  5].a[ 19] =         0.065000000000;     BAS[ATNO][  5].d[ 19] =        -0.005218642780;
  BAS[ATNO][  5].a[ 20] =         0.065000000000;     BAS[ATNO][  5].d[ 20] =         0.136634604763;
  BAS[ATNO][  5].a[ 21] =         0.027701105100;     BAS[ATNO][  5].d[ 21] =         0.574480107426;

  // Basis function   7 L = p
  InitBFNGauss(BAS[ATNO][  6]);
  BAS[ATNO][  6].l  = 1;
  BAS[ATNO][  6].ng = 22;
  BAS[ATNO][  6].a[  0] =        17.000000000000;     BAS[ATNO][  6].d[  0] =         0.005149395272;
  BAS[ATNO][  6].a[  1] =        12.008186536000;     BAS[ATNO][  6].d[  1] =        -0.016338253995;
  BAS[ATNO][  6].a[  2] =         5.027876058300;     BAS[ATNO][  6].d[  2] =         0.045091002256;
  BAS[ATNO][  6].a[  3] =         1.193712418400;     BAS[ATNO][  6].d[  3] =        -0.081863095555;
  BAS[ATNO][  6].a[  4] =        17.000000000000;     BAS[ATNO][  6].d[  4] =         0.001500279680;
  BAS[ATNO][  6].a[  5] =        12.008186536000;     BAS[ATNO][  6].d[  5] =        -0.004760160986;
  BAS[ATNO][  6].a[  6] =         5.027876058300;     BAS[ATNO][  6].d[  6] =         0.013137292996;
  BAS[ATNO][  6].a[  7] =         1.193712418400;     BAS[ATNO][  6].d[  7] =        -0.023850866427;
  BAS[ATNO][  6].a[  8] =        17.000000000000;     BAS[ATNO][  6].d[  8] =        -0.004923362104;
  BAS[ATNO][  6].a[  9] =        12.008186536000;     BAS[ATNO][  6].d[  9] =         0.015621084868;
  BAS[ATNO][  6].a[ 10] =         5.027876058300;     BAS[ATNO][  6].d[ 10] =        -0.043111728662;
  BAS[ATNO][  6].a[ 11] =         1.193712418400;     BAS[ATNO][  6].d[ 11] =         0.078269707623;
  BAS[ATNO][  6].a[ 12] =         0.578897070500;     BAS[ATNO][  6].d[ 12] =        -0.124092734281;
  BAS[ATNO][  6].a[ 13] =         0.578897070500;     BAS[ATNO][  6].d[ 13] =        -0.036154499286;
  BAS[ATNO][  6].a[ 14] =         0.578897070500;     BAS[ATNO][  6].d[ 14] =         0.118645672565;
  BAS[ATNO][  6].a[ 15] =         0.272251988000;     BAS[ATNO][  6].d[ 15] =        -0.064522184282;
  BAS[ATNO][  6].a[ 16] =         0.272251988000;     BAS[ATNO][  6].d[ 16] =        -0.018798580587;
  BAS[ATNO][  6].a[ 17] =         0.272251988000;     BAS[ATNO][  6].d[ 17] =         0.061689977208;
  BAS[ATNO][  6].a[ 18] =         0.065000000000;     BAS[ATNO][  6].d[ 18] =         1.260697585426;
  BAS[ATNO][  6].a[ 19] =         0.065000000000;     BAS[ATNO][  6].d[ 19] =         0.367305065984;
  BAS[ATNO][  6].a[ 20] =         0.065000000000;     BAS[ATNO][  6].d[ 20] =        -1.205359151683;
  BAS[ATNO][  6].a[ 21] =         0.027701105100;     BAS[ATNO][  6].d[ 21] =        -1.081352156330;

  // Basis function   8 L = p
  InitBFNGauss(BAS[ATNO][  7]);
  BAS[ATNO][  7].l  = 1;
  BAS[ATNO][  7].ng = 22;
  BAS[ATNO][  7].a[  0] =        17.000000000000;     BAS[ATNO][  7].d[  0] =        -0.025736850530;
  BAS[ATNO][  7].a[  1] =        12.008186536000;     BAS[ATNO][  7].d[  1] =         0.081659142249;
  BAS[ATNO][  7].a[  2] =         5.027876058300;     BAS[ATNO][  7].d[  2] =        -0.225366343831;
  BAS[ATNO][  7].a[  3] =         1.193712418400;     BAS[ATNO][  7].d[  3] =         0.409154501276;
  BAS[ATNO][  7].a[  4] =        17.000000000000;     BAS[ATNO][  7].d[  4] =         0.194392663320;
  BAS[ATNO][  7].a[  5] =        12.008186536000;     BAS[ATNO][  7].d[  5] =        -0.616778580886;
  BAS[ATNO][  7].a[  6] =         5.027876058300;     BAS[ATNO][  7].d[  6] =         1.702211533200;
  BAS[ATNO][  7].a[  7] =         1.193712418400;     BAS[ATNO][  7].d[  7] =        -3.090379419984;
  BAS[ATNO][  7].a[  8] =        17.000000000000;     BAS[ATNO][  7].d[  8] =         0.032318188854;
  BAS[ATNO][  7].a[  9] =        12.008186536000;     BAS[ATNO][  7].d[  9] =        -0.102540735425;
  BAS[ATNO][  7].a[ 10] =         5.027876058300;     BAS[ATNO][  7].d[ 10] =         0.282996245122;
  BAS[ATNO][  7].a[ 11] =         1.193712418400;     BAS[ATNO][  7].d[ 11] =        -0.513782073968;
  BAS[ATNO][  7].a[ 12] =         0.578897070500;     BAS[ATNO][  7].d[ 12] =        -0.523169841198;
  BAS[ATNO][  7].a[ 13] =         0.578897070500;     BAS[ATNO][  7].d[ 13] =         3.951547167035;
  BAS[ATNO][  7].a[ 14] =         0.578897070500;     BAS[ATNO][  7].d[ 14] =         0.656953021927;
  BAS[ATNO][  7].a[ 15] =         0.272251988000;     BAS[ATNO][  7].d[ 15] =         0.278096954384;
  BAS[ATNO][  7].a[ 16] =         0.272251988000;     BAS[ATNO][  7].d[ 16] =        -2.100490406210;
  BAS[ATNO][  7].a[ 17] =         0.272251988000;     BAS[ATNO][  7].d[ 17] =        -0.349210944868;
  BAS[ATNO][  7].a[ 18] =         0.065000000000;     BAS[ATNO][  7].d[ 18] =        -0.088250744857;
  BAS[ATNO][  7].a[ 19] =         0.065000000000;     BAS[ATNO][  7].d[ 19] =         0.666565526847;
  BAS[ATNO][  7].a[ 20] =         0.065000000000;     BAS[ATNO][  7].d[ 20] =         0.110817919833;
  BAS[ATNO][  7].a[ 21] =         0.027701105100;     BAS[ATNO][  7].d[ 21] =         0.040194935486;

  // Basis function   9 L = d
  InitBFNGauss(BAS[ATNO][  8]);
  BAS[ATNO][  8].l  = 2;
  BAS[ATNO][  8].ng = 22;
  BAS[ATNO][  8].a[  0] =        24.473650944000;     BAS[ATNO][  8].d[  0] =         0.000003628631;
  BAS[ATNO][  8].a[  1] =        18.721372549000;     BAS[ATNO][  8].d[  1] =        -0.000017202500;
  BAS[ATNO][  8].a[  2] =        11.500000000000;     BAS[ATNO][  8].d[  2] =         0.000127782136;
  BAS[ATNO][  8].a[  3] =        10.350000000000;     BAS[ATNO][  8].d[  3] =        -0.000117411208;
  BAS[ATNO][  8].a[  4] =         3.843618008900;     BAS[ATNO][  8].d[  4] =        -0.000053196730;
  BAS[ATNO][  8].a[  5] =         1.020226601600;     BAS[ATNO][  8].d[  5] =        -0.002013575279;
  BAS[ATNO][  8].a[  6] =         0.467747818700;     BAS[ATNO][  8].d[  6] =         0.016692049399;
  BAS[ATNO][  8].a[  7] =         0.103231866700;     BAS[ATNO][  8].d[  7] =        -0.181270757076;
  BAS[ATNO][  8].a[  8] =         0.038674461200;     BAS[ATNO][  8].d[  8] =         0.412055560331;
  BAS[ATNO][  8].a[  9] =         3.973879627800;     BAS[ATNO][  8].d[  9] =        -0.010602416476;
  BAS[ATNO][  8].a[ 10] =         1.452888481300;     BAS[ATNO][  8].d[ 10] =         0.037266212297;
  BAS[ATNO][  8].a[ 11] =         0.610429085400;     BAS[ATNO][  8].d[ 11] =         0.086264377873;
  BAS[ATNO][  8].a[ 12] =         3.973879627800;     BAS[ATNO][  8].d[ 12] =        -0.004893170986;
  BAS[ATNO][  8].a[ 13] =         1.452888481300;     BAS[ATNO][  8].d[ 13] =         0.017198904529;
  BAS[ATNO][  8].a[ 14] =         0.610429085400;     BAS[ATNO][  8].d[ 14] =         0.039812277874;
  BAS[ATNO][  8].a[ 15] =         3.973879627800;     BAS[ATNO][  8].d[ 15] =        -0.000850388413;
  BAS[ATNO][  8].a[ 16] =         1.452888481300;     BAS[ATNO][  8].d[ 16] =         0.002989012477;
  BAS[ATNO][  8].a[ 17] =         0.610429085400;     BAS[ATNO][  8].d[ 17] =         0.006919010166;
  BAS[ATNO][  8].a[ 18] =         3.973879627800;     BAS[ATNO][  8].d[ 18] =         0.017992571905;
  BAS[ATNO][  8].a[ 19] =         1.452888481300;     BAS[ATNO][  8].d[ 19] =        -0.063241715308;
  BAS[ATNO][  8].a[ 20] =         0.610429085400;     BAS[ATNO][  8].d[ 20] =        -0.146392855360;
  BAS[ATNO][  8].a[ 21] =         3.973879627800;     BAS[ATNO][  8].d[ 21] =         0.006147641238;

  // Basis function  10 L = d
  InitBFNGauss(BAS[ATNO][  9]);
  BAS[ATNO][  9].l  = 2;
  BAS[ATNO][  9].ng = 22;
  BAS[ATNO][  9].a[  0] =        24.473650944000;     BAS[ATNO][  9].d[  0] =         0.000000076956;
  BAS[ATNO][  9].a[  1] =        18.721372549000;     BAS[ATNO][  9].d[  1] =        -0.000000364829;
  BAS[ATNO][  9].a[  2] =        11.500000000000;     BAS[ATNO][  9].d[  2] =         0.000002709990;
  BAS[ATNO][  9].a[  3] =        10.350000000000;     BAS[ATNO][  9].d[  3] =        -0.000002490044;
  BAS[ATNO][  9].a[  4] =         3.843618008900;     BAS[ATNO][  9].d[  4] =        -0.000001694209;
  BAS[ATNO][  9].a[  5] =         1.020226601600;     BAS[ATNO][  9].d[  5] =         0.000018688993;
  BAS[ATNO][  9].a[  6] =         0.467747818700;     BAS[ATNO][  9].d[  6] =        -0.000021488188;
  BAS[ATNO][  9].a[  7] =         0.103231866700;     BAS[ATNO][  9].d[  7] =        -0.000107795674;
  BAS[ATNO][  9].a[  8] =         0.038674461200;     BAS[ATNO][  9].d[  8] =         0.000319918582;
  BAS[ATNO][  9].a[  9] =         3.973879627800;     BAS[ATNO][  9].d[  9] =         0.001770851364;
  BAS[ATNO][  9].a[ 10] =         1.452888481300;     BAS[ATNO][  9].d[ 10] =        -0.006224328486;
  BAS[ATNO][  9].a[ 11] =         0.610429085400;     BAS[ATNO][  9].d[ 11] =        -0.014408167383;
  BAS[ATNO][  9].a[ 12] =         3.973879627800;     BAS[ATNO][  9].d[ 12] =         0.018817795281;
  BAS[ATNO][  9].a[ 13] =         1.452888481300;     BAS[ATNO][  9].d[ 13] =        -0.066142275724;
  BAS[ATNO][  9].a[ 14] =         0.610429085400;     BAS[ATNO][  9].d[ 14] =        -0.153107115391;
  BAS[ATNO][  9].a[ 15] =         3.973879627800;     BAS[ATNO][  9].d[ 15] =        -0.111430180530;
  BAS[ATNO][  9].a[ 16] =         1.452888481300;     BAS[ATNO][  9].d[ 16] =         0.391663614914;
  BAS[ATNO][  9].a[ 17] =         0.610429085400;     BAS[ATNO][  9].d[ 17] =         0.906628712525;
  BAS[ATNO][  9].a[ 18] =         3.973879627800;     BAS[ATNO][  9].d[ 18] =         0.005624384013;
  BAS[ATNO][  9].a[ 19] =         1.452888481300;     BAS[ATNO][  9].d[ 19] =        -0.019769029931;
  BAS[ATNO][  9].a[ 20] =         0.610429085400;     BAS[ATNO][  9].d[ 20] =        -0.045761642062;
  BAS[ATNO][  9].a[ 21] =         3.973879627800;     BAS[ATNO][  9].d[ 21] =        -0.013674975810;

  // Basis function  11 L = p
  InitBFNGauss(BAS[ATNO][ 10]);
  BAS[ATNO][ 10].l  = 1;
  BAS[ATNO][ 10].ng = 22;
  BAS[ATNO][ 10].a[  0] =        17.000000000000;     BAS[ATNO][ 10].d[  0] =         0.140560841497;
  BAS[ATNO][ 10].a[  1] =        12.008186536000;     BAS[ATNO][ 10].d[  1] =        -0.445978335118;
  BAS[ATNO][ 10].a[  2] =         5.027876058300;     BAS[ATNO][ 10].d[  2] =         1.230829813358;
  BAS[ATNO][ 10].a[  3] =         1.193712418400;     BAS[ATNO][ 10].d[  3] =        -2.234581925053;
  BAS[ATNO][ 10].a[  4] =        17.000000000000;     BAS[ATNO][ 10].d[  4] =         0.040952491290;
  BAS[ATNO][ 10].a[  5] =        12.008186536000;     BAS[ATNO][ 10].d[  5] =        -0.129936073872;
  BAS[ATNO][ 10].a[  6] =         5.027876058300;     BAS[ATNO][ 10].d[  6] =         0.358603055259;
  BAS[ATNO][ 10].a[  7] =         1.193712418400;     BAS[ATNO][ 10].d[  7] =        -0.651046876549;
  BAS[ATNO][ 10].a[  8] =        17.000000000000;     BAS[ATNO][ 10].d[  8] =        -0.134390899907;
  BAS[ATNO][ 10].a[  9] =        12.008186536000;     BAS[ATNO][ 10].d[  9] =         0.426402041689;
  BAS[ATNO][ 10].a[ 10] =         5.027876058300;     BAS[ATNO][ 10].d[ 10] =        -1.176802333344;
  BAS[ATNO][ 10].a[ 11] =         1.193712418400;     BAS[ATNO][ 10].d[ 11] =         2.136494578624;
  BAS[ATNO][ 10].a[ 12] =         0.578897070500;     BAS[ATNO][ 10].d[ 12] =         2.857297073916;
  BAS[ATNO][ 10].a[ 13] =         0.578897070500;     BAS[ATNO][ 10].d[ 13] =         0.832475334419;
  BAS[ATNO][ 10].a[ 14] =         0.578897070500;     BAS[ATNO][ 10].d[ 14] =        -2.731875542132;
  BAS[ATNO][ 10].a[ 15] =         0.272251988000;     BAS[ATNO][ 10].d[ 15] =        -1.518887766953;
  BAS[ATNO][ 10].a[ 16] =         0.272251988000;     BAS[ATNO][ 10].d[ 16] =        -0.442528924725;
  BAS[ATNO][ 10].a[ 17] =         0.272251988000;     BAS[ATNO][ 10].d[ 17] =         1.452215935004;
  BAS[ATNO][ 10].a[ 18] =         0.065000000000;     BAS[ATNO][ 10].d[ 18] =         0.482069051798;
  BAS[ATNO][ 10].a[ 19] =         0.065000000000;     BAS[ATNO][ 10].d[ 19] =         0.140451127316;
  BAS[ATNO][ 10].a[ 20] =         0.065000000000;     BAS[ATNO][ 10].d[ 20] =        -0.460908550339;
  BAS[ATNO][ 10].a[ 21] =         0.027701105100;     BAS[ATNO][ 10].d[ 21] =        -0.219569263210;

-------------------------------------------
RADIAL EXPECTATION VALUES <R**-3> TO <R**3>
-------------------------------------------
   0 :     0.000000     0.991633     0.954761     1.143118     1.429709     1.959130
   1 :     0.767372     0.760576     0.829857     1.334838     1.978381     3.261133
   2 :     0.767358     0.760565     0.829849     1.334855     1.978445     3.261333
   3 :     0.768222     0.761225     0.830264     1.334009     1.975778     3.254894
   4 :     0.000000     0.160402     0.346382     3.369879    13.068832    57.013723
   5 :     0.299070     0.382487     0.570637     2.069563     5.066419    73.100065
   6 :     0.000000     0.093279     0.242812     5.349027    32.877592   218.830308
   7 :     0.000000     0.620049     0.676633     2.154302     6.999644    32.797731
   8 :     0.000000     5.153398     2.052074     0.577926     0.522118     1.221282
   9 :     0.000000    48.074802     5.614412     0.226393     0.065453     0.036208
  10 :     0.292711     0.375922     0.564659     2.101558     5.251830    77.705403
  11 :     0.292717     0.375926     0.564661     2.101574     5.251994    77.711042
  12 :     0.286957     0.370625     0.559647     2.130235     5.424022    79.811789
  13 :     0.061308     0.101915     0.273004     4.377179    21.695192   119.436419
  14 :     0.026158     0.055535     0.202567     5.850036    38.630617   281.427413
  15 :     0.026162     0.055539     0.202570     5.850046    38.630875   281.430832
  16 :     0.210775     0.288391     0.481296     2.602144     8.336491   158.900294
  17 :     0.017939     0.038477     0.159886     7.616078    64.099648   572.862799
  18 :     0.041348     0.073036     0.218447     6.232965    47.722504   413.258715
  19 :     0.041353     0.073040     0.218451     6.232929    47.722126   413.255129
  20 :     0.058474     0.099412     0.264604     4.537887    22.520719   590.138928
  21 :     9.003357     2.997880     1.368749     1.454250     4.214632    21.060318
  22 :     0.062472     0.103822     0.268924     4.511474    22.360232   586.023272
  23 :     0.062477     0.103828     0.268929     4.511443    22.360048   586.018627
  24 :     0.064504     0.106082     0.271129     4.498454    22.285406   583.434846
  25 :     0.120952     0.169917     0.335830     4.064503    19.503219   508.929384
  26 :     0.268209     0.297014     0.453518     3.181606    14.490191    90.701602
  27 :     0.268213     0.297017     0.453519     3.181616    14.490249    90.701590
  28 :     0.255624     0.284543     0.441231     3.272257    15.051822    93.101174
  29 :     0.357362     0.396271     0.542997     2.550802     8.623126   180.671216
  30 :     0.383179     0.419861     0.561112     2.491604     8.370550   176.080548
  31 :     0.359722     0.398425     0.544655     2.545219     8.598198   180.181551
  32 :     0.359712     0.398416     0.544648     2.545234     8.598219   180.180558
  33 :     0.360870     0.399539     0.545496     2.542620     8.587842   180.011595
  34 :     9.003363     2.997879     1.368744     1.454328     4.215379    21.066741
  35 :     9.003363     2.997879     1.368744     1.454328     4.215377    21.066721
Making the total density                ... o.k.
o.k.
Initializing the integrals              ... done
Making exponents                        ... done
Making rho(0)                           ... done (         0.000010272)
Integral calculation                    ... Two index integrals                     ... done
Solving the equation system             ... done
atomic density will be written to file 73_Ta_atom73.adf

-------
TIMINGS
-------

Total SCF time: 0 days 0 hours 0 min 1 sec 

Total time                  ....       1.172 sec
Sum of individual times     ....       0.740 sec  ( 63.1%)

Fock matrix formation       ....       0.566 sec  ( 48.3%)
Diagonalization             ....       0.074 sec  (  6.3%)
Density matrix formation    ....       0.001 sec  (  0.1%)
Population analysis         ....       0.000 sec  (  0.0%)
Initial guess               ....       0.000 sec  (  0.0%)
Orbital Transformation      ....       0.000 sec  (  0.0%)
Orbital Orthonormalization  ....       0.000 sec  (  0.0%)
DIIS solution               ....       0.098 sec  (  8.4%)

-------------------------   --------------------
FINAL SINGLE POINT ENERGY       -56.206794641887
-------------------------   --------------------


                            ***************************************
                            *     ORCA property calculations      *
                            ***************************************

                                    ---------------------
                                    Active property flags
                                    ---------------------
   (+) Dipole Moment


------------------------------------------------------------------------------
                       ORCA ELECTRIC PROPERTIES CALCULATION
------------------------------------------------------------------------------

Dipole Moment Calculation                       ... on
Quadrupole Moment Calculation                   ... off
Polarizability Calculation                      ... off
GBWName                                         ... 73_Ta_atom73.gbw
Electron density file                           ... 73_Ta_atom73.scfp
The origin for moment calculation is the CENTER OF MASS  = ( 0.000000,  0.000000  0.000000)

-------------
DIPOLE MOMENT
-------------
                                X             Y             Z
Electronic contribution:      0.00000       0.00000       0.00000
Nuclear contribution   :      0.00000       0.00000       0.00000
                        -----------------------------------------
Total Dipole Moment    :      0.00000       0.00000       0.00000
                        -----------------------------------------
Magnitude (a.u.)       :      0.00000
Magnitude (Debye)      :      0.00000



--------------------
Rotational spectrum 
--------------------
 
Rotational constants in cm-1:     0.000000     0.000000     0.000000 
Rotational constants in MHz :     0.000000     0.000000     0.000000 

 Dipole components along the rotational axes: 
x,y,z [a.u.] :     0.000000     0.000000     0.000000 
x,y,z [Debye]:     0.000000     0.000000     0.000000 

 

Timings for individual modules:

Sum of individual times         ...        1.444 sec (=   0.024 min)
GTO integral calculation        ...        0.247 sec (=   0.004 min)  17.1 %
SCF iterations                  ...        1.197 sec (=   0.020 min)  82.9 %
                             ****ORCA TERMINATED NORMALLY****
TOTAL RUN TIME: 0 days 0 hours 0 minutes 1 seconds 659 msec
