
                                 *****************
                                 * O   R   C   A *
                                 *****************

           --- An Ab Initio, DFT and Semiempirical electronic structure package ---

                  #######################################################
                  #                        -***-                        #
                  #          Department of theory and spectroscopy      #
                  #               Directorship: Frank Neese             #
                  #        Max Planck Institute fuer Kohlenforschung    #
                  #                Kaiser Wilhelm Platz 1               #
                  #                 D-45470 Muelheim/Ruhr               #
                  #                      Germany                        #
                  #                                                     #
                  #                  All rights reserved                #
                  #                        -***-                        #
                  #######################################################


                         Program Version 4.2.0 -  RELEASE  -


 With contributions from (in alphabetic order):
   Daniel Aravena         : Magnetic Suceptibility
   Michael Atanasov       : Ab Initio Ligand Field Theory (pilot matlab implementation)
   Alexander A. Auer      : GIAO ZORA, VPT2
   Ute Becker             : Parallelization
   Giovanni Bistoni       : ED, misc. LED, open-shell LED, HFLED
   Martin Brehm           : Molecular dynamics
   Dmytro Bykov           : SCF Hessian
   Vijay G. Chilkuri      : MRCI spin determinant printing, contributions to CSF-ICE
   Dipayan Datta          : RHF DLPNO-CCSD density
   Achintya Kumar Dutta   : EOM-CC, STEOM-CC
   Dmitry Ganyushin       : Spin-Orbit,Spin-Spin,Magnetic field MRCI
   Miquel Garcia          : C-PCM Hessian, Gaussian charge scheme
   Yang Guo               : DLPNO-NEVPT2, CIM, IAO-localization
   Andreas Hansen         : Spin unrestricted coupled pair/coupled cluster methods
   Benjamin Helmich-Paris : CASSCF linear response (MC-RPA)
   Lee Huntington         : MR-EOM, pCC
   Robert Izsak           : Overlap fitted RIJCOSX, COSX-SCS-MP3, EOM
   Christian Kollmar      : KDIIS, OOCD, Brueckner-CCSD(T), CCSD density
   Simone Kossmann        : Meta GGA functionals, TD-DFT gradient, OOMP2, MP2 Hessian
   Martin Krupicka        : AUTO-CI
   Lucas Lang             : DCDCAS
   Dagmar Lenk            : GEPOL surface, SMD
   Dimitrios Liakos       : Extrapolation schemes; Compound Job, initial MDCI parallelization
   Dimitrios Manganas     : Further ROCIS development; embedding schemes
   Dimitrios Pantazis     : SARC Basis sets
   Taras Petrenko         : DFT Hessian,TD-DFT gradient, ASA, ECA, R-Raman, ABS, FL, XAS/XES, NRVS
   Peter Pinski           : DLPNO-MP2, DLPNO-MP2 Gradient
   Christoph Reimann      : Effective Core Potentials
   Marius Retegan         : Local ZFS, SOC
   Christoph Riplinger    : Optimizer, TS searches, QM/MM, DLPNO-CCSD(T), (RO)-DLPNO pert. Triples
   Tobias Risthaus        : Range-separated hybrids, TD-DFT gradient, RPA, STAB
   Michael Roemelt        : Original ROCIS implementation
   Masaaki Saitow         : Open-shell DLPNO-CCSD energy and density
   Barbara Sandhoefer     : DKH picture change effects
   Avijit Sen             : IP-ROCIS
   Kantharuban Sivalingam : CASSCF convergence, NEVPT2, FIC-MRCI
   Bernardo de Souza      : ESD, SOC TD-DFT
   Georgi Stoychev        : AutoAux, RI-MP2 NMR
   Willem Van den Heuvel  : Paramagnetic NMR
   Boris Wezisla          : Elementary symmetry handling
   Frank Wennmohs         : Technical directorship


 We gratefully acknowledge several colleagues who have allowed us to
 interface, adapt or use parts of their codes:
   Stefan Grimme, W. Hujo, H. Kruse,             : VdW corrections, initial TS optimization,
                  C. Bannwarth                     DFT functionals, gCP, sTDA/sTD-DF
   Ed Valeev, F. Pavosevic, A. Kumar             : LibInt (2-el integral package), F12 methods
   Garnet Chan, S. Sharma, J. Yang, R. Olivares  : DMRG
   Ulf Ekstrom                                   : XCFun DFT Library
   Mihaly Kallay                                 : mrcc  (arbitrary order and MRCC methods)
   Andreas Klamt, Michael Diedenhofen            : otool_cosmo (COSMO solvation model)
   Jiri Pittner, Ondrej Demel                    : Mk-CCSD
   Frank Weinhold                                : gennbo (NPA and NBO analysis)
   Christopher J. Cramer and Donald G. Truhlar   : smd solvation model
   Lars Goerigk                                  : TD-DFT with DH, B97 family of functionals
   V. Asgeirsson, H. Jonsson                     : NEB implementation
   FAccTs GmbH                                   : IRC, NEB, NEB-TS, Multilevel, MM, QM/MM, CI optimization
   S Lehtola, MJT Oliveira, MAL Marques          : LibXC Library


 Your calculation uses the libint2 library for the computation of 2-el integrals
 For citations please refer to: http://libint.valeyev.net

 Your ORCA version has been built with support for libXC version: 4.2.3
 For citations please refer to: https://tddft.org/programs/libxc/

 This ORCA versions uses:
   CBLAS   interface :  Fast vector & matrix operations
   LAPACKE interface :  Fast linear algebra routines
   SCALAPACK package :  Parallel linear algebra routines


Setting NCore(W ) from 46 to 60
----- Orbital basis set information -----
Your calculation utilizes the basis: def2-TZVPPD
   F. Weigend and R. Ahlrichs, Phys. Chem. Chem. Phys. 7, 3297 (2005).
   D. Rappoport and F. Furche, J. Chem. Phys. 133 134105 (2010).

cite the ECPs for W  [Def2-ECP] as follows:
Ce-Yb(ecp-28): M. Dolg, H. Stoll, H.Preuss, J. Chem. Phys., 1989, 90, 1730-1734.
Y-Cd(ecp-28), Hf-Hg(ecp-46): D. Andrae,U. Haeussermann, M. Dolg, H. Stoll, H. Preuss, Theor. Chim. Acta, 1990, 77, 123-141.
In-Sb(ecp-28), Tl-Bi(ecp-46): B. Metz, H. Stoll, M. Dolg, J. Chem. Phys., 2000, 113, 2563-2569.
Te-Xe(ecp-28), Po-Rn(ecp-46): K. A. Peterson, D. Figgen, E. Goll, H. Stoll, M. Dolg, J. Chem. Phys., 2003, 119, 11113-11123.
Rb(ecp-28), Cs(ecp-46): T. Leininger, A. Nicklass, W. Kuechle, H. Stoll, M. Dolg, A. Bergner, Chem. Phys. Lett., 1996, 255, 274-280.
Sr(ecp-28), Ba(ecp-46): M. Kaupp, P. V. Schleyer, H. Stoll and H. Preuss, J. Chem. Phys., 1991, 94, 1360-1366.
La(ecp-46): M. Dolg, H. Stoll, A. Savin, H. Preuss, Theor. Chim. Acta, 1989, 75, 173-194.
Lu(ecp-28): X. Cao, M. Dolg, J. Chem. Phys., 2001, 115, 7348-7355.

ECP parameters for W  [Def2-ECP] have been obtained from:
TURBOMOLE (7.0.2)

================================================================================
                                        WARNINGS
                       Please study these warnings very carefully!
================================================================================


WARNING: your system is open-shell and RHF/RKS was chosen
  ===> : WILL SWITCH to UHF/UKS


WARNING: MDCI localization with Augmented Hessian Foster-Boys
  ===> : Switching off randomization!

WARNING: Post HF methods need fully converged wavefunctions
  ===> : Setting SCFConvForced true
         You can overwrite this default with %scf ConvForced false 


INFO   : the flag for use of LIBINT has been found!

================================================================================
                                       INPUT FILE
================================================================================
NAME = 74_W.in
|  1> #
|  2> # 74_W CCSD(T)/Def2-TZVPPD
|  3> #
|  4> ! CCSD(T) Def2-TZVPPD tightscf veryslowconv kdiis
|  5> 
|  6> *xyz 0 5
|  7>  W 0.0 0.0 0.0
|  8> *
|  9> 
| 10> %maxcore 5000 
| 11> 
| 12> %pal
| 13> nprocs 24
| 14> end
| 15> 
| 16> %method
| 17> NewNCore W 60 end
| 18> end
| 19> 
| 20> 
| 21>                          ****END OF INPUT****
================================================================================

                       ****************************
                       * Single Point Calculation *
                       ****************************

---------------------------------
CARTESIAN COORDINATES (ANGSTROEM)
---------------------------------
  W      0.000000    0.000000    0.000000

----------------------------
CARTESIAN COORDINATES (A.U.)
----------------------------
  NO LB      ZA    FRAG     MASS         X           Y           Z
   0 W    14.0000*   0   183.850    0.000000    0.000000    0.000000
* core charge reduced due to ECP

--------------------------------
INTERNAL COORDINATES (ANGSTROEM)
--------------------------------
 W      0   0   0     0.000000000000     0.00000000     0.00000000

---------------------------
INTERNAL COORDINATES (A.U.)
---------------------------
 W      0   0   0     0.000000000000     0.00000000     0.00000000

---------------------
BASIS SET INFORMATION
---------------------
There are 1 groups of distinct atoms

 Group   1 Type W   : 8s8p6d2f1g contracted to 6s5p3d2f1g pattern {311111/41111/411/11/1}

Atom   0W    basis set group =>   1
-------------------------
ECP PARAMETER INFORMATION
-------------------------

 Group 1, Type W  ECP Def2-ECP (replacing 60 core electrons, lmax=3)

Atom   0W    ECP group =>   1



           ************************************************************
           *        Program running with 24 parallel MPI-processes    *
           *              working on a common directory               *
           ************************************************************
------------------------------------------------------------------------------
                           ORCA GTO INTEGRAL CALCULATION
------------------------------------------------------------------------------

                         BASIS SET STATISTICS AND STARTUP INFO

 # of primitive gaussian shells          ...   25
 # of primitive gaussian functions       ...   85
 # of contracted shells                  ...   17
 # of contracted basis functions         ...   59
 Highest angular momentum                ...    4
 Maximum contraction depth               ...    4
 Integral package used                   ... LIBINT
 Integral threshhold            Thresh   ...  2.500e-11
 Primitive cut-off              TCut     ...  2.500e-12


------------------------------ INTEGRAL EVALUATION ----------------------------


 * One electron integrals 

   ECP integrals                         ... done
 Pre-screening matrix                    ... done
 Shell pair data                         ... done (   0.000 sec)



           ************************************************************
           *        Program running with 24 parallel MPI-processes    *
           *              working on a common directory               *
           ************************************************************
-------------------------------------------------------------------------------
                                 ORCA SCF
-------------------------------------------------------------------------------

------------
SCF SETTINGS
------------
Hamiltonian:
 Ab initio Hamiltonian  Method          .... Hartree-Fock(GTOs)


General Settings:
 Integral files         IntName         .... 74_W
 Hartree-Fock type      HFTyp           .... UHF
 Total Charge           Charge          ....    0
 Multiplicity           Mult            ....    5
 Number of Electrons    NEL             ....   14
 Basis Dimension        Dim             ....   59
 Nuclear Repulsion      ENuc            ....      0.0000000000 Eh

Convergence Acceleration:
 DIIS                   CNVDIIS         .... off
 Newton-Raphson         CNVNR           .... off
 SOSCF                  CNVSOSCF        .... off
 Level Shifting         CNVShift        .... off
 Zerner damping         CNVZerner       .... off
 Static damping         CNVDamp         .... off
 Fernandez-Rico         CNVRico         .... off

SCF Procedure:
 Maximum # iterations   MaxIter         ....   125
 SCF integral mode      SCFMode         .... Direct
   Integral package                     .... LIBINT
 Reset frequency        DirectResetFreq ....    20
 Integral Threshold     Thresh          ....  2.500e-11 Eh
 Primitive CutOff       TCut            ....  2.500e-12 Eh

Convergence Tolerance:
 Convergence Check Mode ConvCheckMode   .... Total+1el-Energy
 Convergence forced     ConvForced      .... 1
 Energy Change          TolE            ....  1.000e-08 Eh
 1-El. energy change                    ....  1.000e-05 Eh


Diagonalization of the overlap matrix:
Smallest eigenvalue                        ... 1.776e-02
Time for diagonalization                   ...    0.002 sec
Threshold for overlap eigenvalues          ... 1.000e-08
Number of eigenvalues below threshold      ... 0
Time for construction of square roots      ...    0.012 sec
Total time needed                          ...    0.013 sec

-------------------
DFT GRID GENERATION
-------------------

General Integration Accuracy     IntAcc      ...  4.340
Radial Grid Type                 RadialGrid  ... Gauss-Chebyshev
Angular Grid (max. acc.)         AngularGrid ... Lebedev-110
Angular grid pruning method      GridPruning ... 3 (G Style)
Weight generation scheme         WeightScheme... Becke
Basis function cutoff            BFCut       ...    1.0000e-11
Integration weight cutoff        WCut        ...    1.0000e-14
Grids for H and He will be reduced by one unit

# of grid points (after initial pruning)     ...   3530 (   0.0 sec)
# of grid points (after weights+screening)   ...   3530 (   0.0 sec)
Grid point division into batches done        ...    0.0 sec
Reduced shell lists constructed in    0.0 sec

Total number of grid points                  ...     3530
Total number of batches                      ...       56
Average number of points per batch           ...       63
Average number of grid points per atom       ...     3530
Average number of shells per batch           ...     5.25 (30.88%)
Average number of basis functions per batch  ...    18.75 (31.78%)
Average number of large shells per batch     ...     3.75 (71.43%)
Average number of large basis fcns per batch ...     9.75 (52.00%)
Maximum spatial batch extension              ...  25.56, 38.92, 38.92 au
Average spatial batch extension              ...   1.31,  1.85,  2.08 au

Time for grid setup =    0.059 sec

------------------------------
INITIAL GUESS: MODEL POTENTIAL
------------------------------
Loading Hartree-Fock densities                     ... done
  calling /sw/apps/orca/orca_4_2_0_linux_x86-64_openmpi314/orca 74_W_atom74.inp > 74_W_atom74.out in order to generate an atomic fitting density for atom 0 (W  with ECP) on-the-fly... 
    atom 0 (W ), assumed electronic state with S=5: 1s2 2s2 2p6 3s2 3p6 4s2 3d10 4p6 5s2 4d10 5p6 6s2 4f14 5d4           ... done
Calculating cut-offs                               ... done
Setting up the integral package                    ... done
Initializing the effective Hamiltonian             ... done
Starting the Coulomb interaction                   ... done (   0.0 sec)
Reading the grid                                   ... done
Mapping shells                                     ... done
Starting the XC term evaluation                    ... done (   0.0 sec)
Transforming the Hamiltonian                       ... done (   0.0 sec)
Diagonalizing the Hamiltonian                      ... done (   0.0 sec)
Back transforming the eigenvectors                 ... done (   0.0 sec)
Now organizing SCF variables                       ... done
                      ------------------
                      INITIAL GUESS DONE (   1.9 sec)
                      ------------------
--------------
SCF ITERATIONS
--------------
ITER       Energy         Delta-E        Max-DP      RMS-DP      [F,P]   Gradient Norm
               ***  Starting incremental Fock matrix formation  ***
                             ****Resetting KDIIS****
                             ****Turning on KDIIS(Cayley)****
  0    -66.1993651819   0.000000000000 0.07921121  0.00194150  0.2912511   0.195258493
  1    -66.2243136177  -0.024948435796 0.12236594  0.00303204  0.2599507   0.173687946
  2    -66.2551271825  -0.030813564822 0.20248318  0.00544971  0.2072555   0.140184204
  3    -66.2947202507  -0.039593068259 0.28531343  0.00809615  0.1249874   0.084820211
  4    -66.3187498319  -0.024029581145 0.02974771  0.00063426  0.0022894   0.001673433
  5    -66.3188606557  -0.000110823805 0.00564588  0.00011272  0.0013547   0.001159759
  6    -66.3188866272  -0.000025971493 0.00726904  0.00016978  0.0010367   0.000656625
  7    -66.3189317351  -0.000045107901 0.00172546  0.00006242  0.0009991   0.000509607
  8    -66.3189533727  -0.000021637659 0.00109402  0.00003966  0.0009778   0.000505413
  9    -66.3189393625   0.000014010272 0.00574217  0.00019536  0.0009906   0.000501398
 10    -66.3188682865   0.000071076012 0.00829171  0.00025767  0.0009946   0.000458322
 11    -66.3187988939   0.000069392599 0.00492489  0.00010447  0.0009265   0.000379317
 12    -66.3187875353   0.000011358525 0.01295194  0.00023212  0.0007785   0.000318446
 13    -66.3187884511  -0.000000915716 0.00427282  0.00008908  0.0002397   0.000160430
 14    -66.3187913665  -0.000002915459 0.00043510  0.00001539  0.0001649   0.000090693
 15    -66.3187919237  -0.000000557146 0.00062531  0.00001450  0.0001137   0.000058555
 16    -66.3187924027  -0.000000479017 0.00026514  0.00000558  0.0001077   0.000033958
 17    -66.3187924753  -0.000000072610 0.00015612  0.00000447  0.0001037   0.000028635
 18    -66.3187925553  -0.000000080017 0.00026358  0.00000705  0.0000997   0.000027684
 19    -66.3187926573  -0.000000101991 0.00005147  0.00000159  0.0000873   0.000026409
               *** Restarting incremental Fock matrix formation ***
                             ****Resetting KDIIS****
                 **** Energy Check signals convergence ****
                    *** KDIIS BlockDiag ( 5.553 sec) ***

               *****************************************************
               *                     SUCCESS                       *
               *           SCF CONVERGED AFTER  20 CYCLES          *
               *****************************************************


----------------
TOTAL SCF ENERGY
----------------

Total Energy       :          -66.31879267 Eh           -1804.62609 eV

Components:
Nuclear Repulsion  :            0.00000000 Eh               0.00000 eV
Electronic Energy  :          -66.31879267 Eh           -1804.62609 eV
One Electron Energy:         -112.42640034 Eh           -3059.27788 eV
Two Electron Energy:           46.10760768 Eh            1254.65179 eV

Virial components:
Potential Energy   :          -89.17089363 Eh           -2426.46337 eV
Kinetic Energy     :           22.85210097 Eh             621.83728 eV
Virial Ratio       :            3.90208733


---------------
SCF CONVERGENCE
---------------

  Last Energy change         ...   -8.6610e-09  Tolerance :   1.0000e-08
  Last MAX-Density change    ...    7.8319e-06  Tolerance :   1.0000e-07
  Last RMS-Density change    ...    1.7622e-07  Tolerance :   5.0000e-09

             **** THE GBW FILE WAS UPDATED (74_W.gbw) ****
             **** DENSITY FILE WAS UPDATED (74_W.scfp) ****
             **** ENERGY FILE WAS UPDATED (74_W.en.tmp) ****
----------------------
UHF SPIN CONTAMINATION
----------------------

Expectation value of <S**2>     :     6.034766
Ideal value S*(S+1) for S=2.0   :     6.000000
Deviation                       :     0.034766

             **** THE GBW FILE WAS UPDATED (74_W.gbw) ****
             **** DENSITY FILE WAS UPDATED (74_W.scfp) ****
----------------
ORBITAL ENERGIES
----------------
                 SPIN UP ORBITALS
  NO   OCC          E(Eh)            E(eV) 
   0   1.0000      -3.488692       -94.9321 
   1   1.0000      -2.026066       -55.1320 
   2   1.0000      -1.997249       -54.3479 
   3   1.0000      -1.996948       -54.3397 
   4   1.0000      -0.402772       -10.9600 
   5   1.0000      -0.374524       -10.1913 
   6   1.0000      -0.374355       -10.1867 
   7   1.0000      -0.365518        -9.9463 
   8   1.0000      -0.303662        -8.2631 
   9   0.0000       0.028018         0.7624 
  10   0.0000       0.028735         0.7819 
  11   0.0000       0.028867         0.7855 
  12   0.0000       0.047681         1.2975 
  13   0.0000       0.142023         3.8646 
  14   0.0000       0.143035         3.8922 
  15   0.0000       0.143184         3.8962 
  16   0.0000       0.182285         4.9602 
  17   0.0000       0.297646         8.0994 
  18   0.0000       0.302063         8.2195 
  19   0.0000       0.302081         8.2200 
  20   0.0000       0.303724         8.2648 
  21   0.0000       0.333107         9.0643 
  22   0.0000       0.759923        20.6786 
  23   0.0000       0.763830        20.7849 
  24   0.0000       0.763911        20.7871 
  25   0.0000       0.767032        20.8720 
  26   0.0000       0.782530        21.2937 
  27   0.0000       0.787457        21.4278 
  28   0.0000       0.787589        21.4314 
  29   0.0000       0.883141        24.0315 
  30   0.0000       0.883300        24.0358 
  31   0.0000       0.885199        24.0875 
  32   0.0000       1.259617        34.2759 
  33   0.0000       1.272981        34.6396 
  34   0.0000       1.273098        34.6428 
  35   0.0000       1.277818        34.7712 
  36   0.0000       1.302771        35.4502 
  37   0.0000       1.774633        48.2902 
  38   0.0000       2.184013        59.4300 
  39   0.0000       2.184325        59.4385 
  40   0.0000       2.184367        59.4396 
  41   0.0000       2.185320        59.4656 
  42   0.0000       2.186673        59.5024 
  43   0.0000       2.190549        59.6079 
  44   0.0000       2.190588        59.6089 
  45   0.0000       2.190738        59.6130 
  46   0.0000       2.190849        59.6160 
  47   0.0000       2.427222        66.0481 
  48   0.0000       2.434387        66.2430 
  49   0.0000       2.434597        66.2488 
  50   0.0000       2.441992        66.4500 
  51   0.0000       2.456807        66.8531 
  52   0.0000       2.460805        66.9619 
  53   0.0000       2.460986        66.9668 
  54   0.0000      37.353899      1016.4513 
  55   0.0000      37.354026      1016.4547 
  56   0.0000      37.369186      1016.8673 
  57   0.0000      69.793198      1899.1695 
  58   0.0000     582.774416     15858.0981 

                 SPIN DOWN ORBITALS
  NO   OCC          E(Eh)            E(eV) 
   0   1.0000      -3.333484       -90.7087 
   1   1.0000      -1.789901       -48.7057 
   2   1.0000      -1.789437       -48.6931 
   3   1.0000      -1.745802       -47.5057 
   4   1.0000      -0.222767        -6.0618 
   5   0.0000       0.034073         0.9272 
   6   0.0000       0.034251         0.9320 
   7   0.0000       0.040903         1.1130 
   8   0.0000       0.106040         2.8855 
   9   0.0000       0.126803         3.4505 
  10   0.0000       0.138427         3.7668 
  11   0.0000       0.138657         3.7731 
  12   0.0000       0.140189         3.8147 
  13   0.0000       0.167379         4.5546 
  14   0.0000       0.167679         4.5628 
  15   0.0000       0.181191         4.9305 
  16   0.0000       0.224522         6.1095 
  17   0.0000       0.354095         9.6354 
  18   0.0000       0.368842        10.0367 
  19   0.0000       0.376173        10.2362 
  20   0.0000       0.376286        10.2393 
  21   0.0000       0.378651        10.3036 
  22   0.0000       0.848552        23.0903 
  23   0.0000       0.848722        23.0949 
  24   0.0000       0.858900        23.3719 
  25   0.0000       0.869576        23.6624 
  26   0.0000       0.870000        23.6739 
  27   0.0000       0.870107        23.6768 
  28   0.0000       0.870810        23.6959 
  29   0.0000       0.948553        25.8114 
  30   0.0000       0.948882        25.8204 
  31   0.0000       0.975622        26.5480 
  32   0.0000       1.332660        36.2635 
  33   0.0000       1.353698        36.8360 
  34   0.0000       1.363608        37.1057 
  35   0.0000       1.363730        37.1090 
  36   0.0000       1.366798        37.1925 
  37   0.0000       1.848283        50.2943 
  38   0.0000       2.245753        61.1101 
  39   0.0000       2.246395        61.1275 
  40   0.0000       2.260293        61.5057 
  41   0.0000       2.260477        61.5107 
  42   0.0000       2.264978        61.6332 
  43   0.0000       2.279172        62.0194 
  44   0.0000       2.279276        62.0223 
  45   0.0000       2.279295        62.0228 
  46   0.0000       2.279430        62.0265 
  47   0.0000       2.551909        69.4410 
  48   0.0000       2.552030        69.4443 
  49   0.0000       2.567450        69.8639 
  50   0.0000       2.587773        70.4169 
  51   0.0000       2.589545        70.4651 
  52   0.0000       2.589611        70.4669 
  53   0.0000       2.590570        70.4930 
  54   0.0000      37.375823      1017.0478 
  55   0.0000      37.376037      1017.0537 
  56   0.0000      37.397517      1017.6382 
  57   0.0000      69.800999      1899.3818 
  58   0.0000     582.775094     15858.1165 

                    ********************************
                    * MULLIKEN POPULATION ANALYSIS *
                    ********************************

--------------------------------------------
MULLIKEN ATOMIC CHARGES AND SPIN POPULATIONS
--------------------------------------------
   0 W :    0.000000    4.000000
Sum of atomic charges         :    0.0000000
Sum of atomic spin populations:    4.0000000

-----------------------------------------------------
MULLIKEN REDUCED ORBITAL CHARGES AND SPIN POPULATIONS
-----------------------------------------------------
CHARGE
  0 W s       :     3.986860  s :     3.986860
      pz      :     1.999944  p :     5.999027
      px      :     1.999545
      py      :     1.999538
      dz2     :     1.012975  d :     4.012955
      dxz     :     0.999976
      dyz     :     0.999976
      dx2y2   :     0.000038
      dxy     :     0.999990
      f0      :     0.000056  f :     0.000973
      f+1     :     0.000059
      f-1     :     0.000061
      f+2     :     0.000000
      f-2     :     0.000000
      f+3     :     0.000396
      f-3     :     0.000401
      g0      :     0.000012  g :     0.000185
      g+1     :     0.000004
      g-1     :     0.000004
      g+2     :     0.000000
      g-2     :     0.000006
      g+3     :     0.000020
      g-3     :     0.000020
      g+4     :     0.000119
      g-4     :     0.000000

SPIN
  0 W s       :     0.013132  s :     0.013132
      pz      :     0.000042  p :    -0.000596
      px      :    -0.000318
      py      :    -0.000320
      dz2     :     0.986769  d :     3.986730
      dxz     :     0.999976
      dyz     :     0.999976
      dx2y2   :     0.000019
      dxy     :     0.999990
      f0      :    -0.000042  f :     0.000596
      f+1     :    -0.000039
      f-1     :    -0.000039
      f+2     :     0.000000
      f-2     :     0.000000
      f+3     :     0.000357
      f-3     :     0.000359
      g0      :     0.000006  g :     0.000138
      g+1     :     0.000004
      g-1     :     0.000004
      g+2     :    -0.000000
      g-2     :     0.000006
      g+3     :     0.000020
      g-3     :     0.000020
      g+4     :     0.000078
      g-4     :     0.000000


                     *******************************
                     * LOEWDIN POPULATION ANALYSIS *
                     *******************************

-------------------------------------------
LOEWDIN ATOMIC CHARGES AND SPIN POPULATIONS
-------------------------------------------
   0 W :   -0.000000    4.000000

----------------------------------------------------
LOEWDIN REDUCED ORBITAL CHARGES AND SPIN POPULATIONS
----------------------------------------------------
CHARGE
  0 W s       :     3.986860  s :     3.986860
      pz      :     1.999944  p :     5.999027
      px      :     1.999545
      py      :     1.999538
      dz2     :     1.012975  d :     4.012955
      dxz     :     0.999976
      dyz     :     0.999976
      dx2y2   :     0.000038
      dxy     :     0.999990
      f0      :     0.000056  f :     0.000973
      f+1     :     0.000059
      f-1     :     0.000061
      f+2     :     0.000000
      f-2     :     0.000000
      f+3     :     0.000396
      f-3     :     0.000401
      g0      :     0.000012  g :     0.000185
      g+1     :     0.000004
      g-1     :     0.000004
      g+2     :     0.000000
      g-2     :     0.000006
      g+3     :     0.000020
      g-3     :     0.000020
      g+4     :     0.000119
      g-4     :     0.000000

SPIN
  0 W s       :     0.013132  s :     0.013132
      pz      :     0.000042  p :    -0.000596
      px      :    -0.000318
      py      :    -0.000320
      dz2     :     0.986769  d :     3.986730
      dxz     :     0.999976
      dyz     :     0.999976
      dx2y2   :     0.000019
      dxy     :     0.999990
      f0      :    -0.000042  f :     0.000596
      f+1     :    -0.000039
      f-1     :    -0.000039
      f+2     :     0.000000
      f-2     :     0.000000
      f+3     :     0.000357
      f-3     :     0.000359
      g0      :     0.000006  g :     0.000138
      g+1     :     0.000004
      g-1     :     0.000004
      g+2     :    -0.000000
      g-2     :     0.000006
      g+3     :     0.000020
      g-3     :     0.000020
      g+4     :     0.000078
      g-4     :     0.000000


                      *****************************
                      * MAYER POPULATION ANALYSIS *
                      *****************************

  NA   - Mulliken gross atomic population
  ZA   - Total nuclear charge
  QA   - Mulliken gross atomic charge
  VA   - Mayer's total valence
  BVA  - Mayer's bonded valence
  FA   - Mayer's free valence

  ATOM       NA         ZA         QA         VA         BVA        FA
  0 W     14.0000    14.0000    -0.0000     4.0695     0.0000     4.0695

  Mayer bond orders larger than 0.100000


-------
TIMINGS
-------

Total SCF time: 0 days 0 hours 0 min 5 sec 

Total time                  ....       5.764 sec
Sum of individual times     ....       5.245 sec  ( 91.0%)

Fock matrix formation       ....       3.101 sec  ( 53.8%)
Diagonalization             ....       0.105 sec  (  1.8%)
Density matrix formation    ....       0.008 sec  (  0.1%)
Population analysis         ....       0.163 sec  (  2.8%)
Initial guess               ....       1.809 sec  ( 31.4%)
Orbital Transformation      ....       0.000 sec  (  0.0%)
Orbital Orthonormalization  ....       0.000 sec  (  0.0%)
DIIS solution               ....       0.000 sec  (  0.0%)


           ************************************************************
           *        Program running with 24 parallel MPI-processes    *
           *              working on a common directory               *
           ************************************************************


------------------------------------------------------------------------------- 
                              ORCA-MATRIX DRIVEN CI                            
------------------------------------------------------------------------------- 

--------------------------------
AUTOMATIC CHOICE OF INCORE LEVEL
--------------------------------

Memory available                           ...   2500.00 MB
Memory needed for S+T                      ...      2.57 MB
Memory needed for J+K                      ...      5.18 MB
Memory needed for DIIS                     ...     36.05 MB
Memory needed for 3-ext                    ...      8.58 MB
Memory needed for 4-ext                    ...     24.32 MB
Memory needed for triples                  ...      4.77 MB
 -> Final InCoreLevel    ... 5
 -> check shows that triples correction can be computed


Wavefunction type
-----------------
Correlation treatment                      ...      CCSD     
Single excitations                         ... ON
Orbital optimization                       ... OFF
Calculation of Z vector                    ... OFF
Calculation of Brueckner orbitals          ... OFF
Perturbative triple excitations            ... ON
Calculation of F12 correction              ... OFF
Frozen core treatment                      ... chemical core (0 el)
Reference Wavefunction                     ... UHF
  Alpha-MOs occ    :     0 ...    8 (  9 MO's/  9 electrons)
  Beta-MOs occ     :     0 ...    4 (  5 MO's/  5 electrons)
  Alpha-MOs virt   :     9 ...   58 ( 50 MO's              )
  Beta-MOs virt    :     5 ...   58 ( 54 MO's              )
Number of AO's                             ...     59
Number of electrons                        ...     14
Number of correlated electrons             ...     14

Algorithmic settings
--------------------
Integral transformation                    ... AO direct full transformation
K(C) Formation                             ... FULL-MO TRAFO
Maximum number of iterations               ...        50
Convergence tolerance (max. residuum)      ... 1.000e-05
Level shift for amplitude update           ... 2.000e-01
Maximum number of DIIS vectors             ...         7
DIIS turned on at iteration                ...         0
Damping before turning on DIIS             ...     0.500
Damping after turning on DIIS              ...     0.000
Pair specific amplitude update             ... OFF
Natural orbital iterations                 ... OFF
Perturbative natural orbital generation    ... OFF
Printlevel                                 ... 2

Memory handling:
----------------
Maximum memory for working arrays          ...   2500 MB
Data storage in matrix containers          ... UNCOMPRESSED
Data type for integral storage             ... DOUBLE
In-Core Storage of quantities:
   Amplitudes+Sigma Vector      ... YES
   J+K operators                ... YES
   DIIS vectors                 ... YES
   3-external integrals         ... YES
   4-external integrals         ... YES


Initializing the integral package          ... done
Warning: reference  - re-canonicalizations have been set to INT 1 VIRT 1

--------------------------
UNRESTRICTED FOCK OPERATOR
--------------------------

<ss|ss>:          231 b            0 skpd (  0.0%)    0.000 s ( 0.000 ms/b)
<ss|sp>:          630 b            0 skpd (  0.0%)    0.000 s ( 0.000 ms/b)
<ss|sd>:          378 b            0 skpd (  0.0%)    0.000 s ( 0.000 ms/b)
<ss|sf>:          252 b            0 skpd (  0.0%)    0.000 s ( 0.000 ms/b)
<ss|sg>:          126 b            0 skpd (  0.0%)    0.000 s ( 0.000 ms/b)
<ss|pp>:          315 b            0 skpd (  0.0%)    0.000 s ( 0.000 ms/b)
<ss|pd>:          315 b            0 skpd (  0.0%)    0.000 s ( 0.000 ms/b)
<ss|pf>:          210 b            0 skpd (  0.0%)    0.000 s ( 0.000 ms/b)
<ss|pg>:          105 b            0 skpd (  0.0%)    0.000 s ( 0.002 ms/b)
<ss|dd>:          126 b            0 skpd (  0.0%)    0.000 s ( 0.001 ms/b)
<ss|df>:          126 b            0 skpd (  0.0%)    0.000 s ( 0.001 ms/b)
<ss|dg>:           63 b            0 skpd (  0.0%)    0.000 s ( 0.002 ms/b)
<ss|ff>:           63 b            0 skpd (  0.0%)    0.000 s ( 0.001 ms/b)
<ss|fg>:           42 b            0 skpd (  0.0%)    0.000 s ( 0.002 ms/b)
<ss|gg>:           21 b            0 skpd (  0.0%)    0.000 s ( 0.006 ms/b)
<sp|sp>:          465 b            0 skpd (  0.0%)    0.000 s ( 0.000 ms/b)
<sp|sd>:          540 b            0 skpd (  0.0%)    0.000 s ( 0.000 ms/b)
<sp|sf>:          360 b            0 skpd (  0.0%)    0.000 s ( 0.000 ms/b)
<sp|sg>:          180 b            0 skpd (  0.0%)    0.000 s ( 0.001 ms/b)
<sp|pp>:          450 b            0 skpd (  0.0%)    0.000 s ( 0.000 ms/b)
<sp|pd>:          450 b            0 skpd (  0.0%)    0.000 s ( 0.001 ms/b)
<sp|pf>:          300 b            0 skpd (  0.0%)    0.000 s ( 0.001 ms/b)
<sp|pg>:          150 b            0 skpd (  0.0%)    0.001 s ( 0.005 ms/b)
<sp|dd>:          180 b            0 skpd (  0.0%)    0.001 s ( 0.003 ms/b)
<sp|df>:          180 b            0 skpd (  0.0%)    0.001 s ( 0.003 ms/b)
<sp|dg>:           90 b            0 skpd (  0.0%)    0.000 s ( 0.004 ms/b)
<sp|ff>:           90 b            0 skpd (  0.0%)    0.000 s ( 0.003 ms/b)
<sp|fg>:           60 b            0 skpd (  0.0%)    0.000 s ( 0.006 ms/b)
<sp|gg>:           30 b            0 skpd (  0.0%)    0.000 s ( 0.015 ms/b)
<sd|sd>:          171 b            0 skpd (  0.0%)    0.000 s ( 0.001 ms/b)
<sd|sf>:          216 b            0 skpd (  0.0%)    0.000 s ( 0.001 ms/b)
<sd|sg>:          108 b            0 skpd (  0.0%)    0.000 s ( 0.002 ms/b)
<sd|pp>:          270 b            0 skpd (  0.0%)    0.000 s ( 0.001 ms/b)
<sd|pd>:          270 b            0 skpd (  0.0%)    0.000 s ( 0.002 ms/b)
<sd|pf>:          180 b            0 skpd (  0.0%)    0.000 s ( 0.002 ms/b)
<sd|pg>:           90 b            0 skpd (  0.0%)    0.001 s ( 0.012 ms/b)
<sd|dd>:          108 b            0 skpd (  0.0%)    0.001 s ( 0.007 ms/b)
<sd|df>:          108 b            0 skpd (  0.0%)    0.001 s ( 0.006 ms/b)
<sd|dg>:           54 b            0 skpd (  0.0%)    0.001 s ( 0.012 ms/b)
<sd|ff>:           54 b            0 skpd (  0.0%)    0.000 s ( 0.006 ms/b)
<sd|fg>:           36 b            0 skpd (  0.0%)    0.000 s ( 0.013 ms/b)
<sd|gg>:           18 b            0 skpd (  0.0%)    0.001 s ( 0.036 ms/b)
<sf|sf>:           78 b            0 skpd (  0.0%)    0.000 s ( 0.001 ms/b)
<sf|sg>:           72 b            0 skpd (  0.0%)    0.000 s ( 0.002 ms/b)
<sf|pp>:          180 b            0 skpd (  0.0%)    0.000 s ( 0.001 ms/b)
<sf|pd>:          180 b            0 skpd (  0.0%)    0.000 s ( 0.002 ms/b)
<sf|pf>:          120 b            0 skpd (  0.0%)    0.000 s ( 0.002 ms/b)
<sf|pg>:           60 b            0 skpd (  0.0%)    0.001 s ( 0.013 ms/b)
<sf|dd>:           72 b            0 skpd (  0.0%)    0.001 s ( 0.008 ms/b)
<sf|df>:           72 b            0 skpd (  0.0%)    0.001 s ( 0.007 ms/b)
<sf|dg>:           36 b            0 skpd (  0.0%)    0.001 s ( 0.015 ms/b)
<sf|ff>:           36 b            0 skpd (  0.0%)    0.000 s ( 0.011 ms/b)
<sf|fg>:           24 b            0 skpd (  0.0%)    0.000 s ( 0.020 ms/b)
<sf|gg>:           12 b            0 skpd (  0.0%)    0.001 s ( 0.051 ms/b)
<sg|sg>:           21 b            0 skpd (  0.0%)    0.000 s ( 0.004 ms/b)
<sg|pp>:           90 b            0 skpd (  0.0%)    0.000 s ( 0.002 ms/b)
<sg|pd>:           90 b            0 skpd (  0.0%)    0.000 s ( 0.003 ms/b)
<sg|pf>:           60 b            0 skpd (  0.0%)    0.000 s ( 0.003 ms/b)
<sg|pg>:           30 b            0 skpd (  0.0%)    0.001 s ( 0.019 ms/b)
<sg|dd>:           36 b            0 skpd (  0.0%)    0.001 s ( 0.016 ms/b)
<sg|df>:           36 b            0 skpd (  0.0%)    0.000 s ( 0.009 ms/b)
<sg|dg>:           18 b            0 skpd (  0.0%)    0.001 s ( 0.031 ms/b)
<sg|ff>:           18 b            0 skpd (  0.0%)    0.000 s ( 0.013 ms/b)
<sg|fg>:           12 b            0 skpd (  0.0%)    0.000 s ( 0.034 ms/b)
<sg|gg>:            6 b            0 skpd (  0.0%)    0.001 s ( 0.089 ms/b)
<pp|pp>:          120 b            0 skpd (  0.0%)    0.000 s ( 0.002 ms/b)
<pp|pd>:          225 b            0 skpd (  0.0%)    0.000 s ( 0.002 ms/b)
<pp|pf>:          150 b            0 skpd (  0.0%)    0.000 s ( 0.002 ms/b)
<pp|pg>:           75 b            0 skpd (  0.0%)    0.001 s ( 0.009 ms/b)
<pp|dd>:           90 b            0 skpd (  0.0%)    0.001 s ( 0.008 ms/b)
<pp|df>:           90 b            0 skpd (  0.0%)    0.000 s ( 0.005 ms/b)
<pp|dg>:           45 b            0 skpd (  0.0%)    0.001 s ( 0.015 ms/b)
<pp|ff>:           45 b            0 skpd (  0.0%)    0.000 s ( 0.009 ms/b)
<pp|fg>:           30 b            0 skpd (  0.0%)    0.001 s ( 0.018 ms/b)
<pp|gg>:           15 b            0 skpd (  0.0%)    0.001 s ( 0.047 ms/b)
<pd|pd>:          120 b            0 skpd (  0.0%)    0.001 s ( 0.008 ms/b)
<pd|pf>:          150 b            0 skpd (  0.0%)    0.001 s ( 0.004 ms/b)
<pd|pg>:           75 b            0 skpd (  0.0%)    0.001 s ( 0.014 ms/b)
<pd|dd>:           90 b            0 skpd (  0.0%)    0.002 s ( 0.020 ms/b)
<pd|df>:           90 b            0 skpd (  0.0%)    0.001 s ( 0.012 ms/b)
<pd|dg>:           45 b            0 skpd (  0.0%)    0.002 s ( 0.038 ms/b)
<pd|ff>:           45 b            0 skpd (  0.0%)    0.001 s ( 0.018 ms/b)
<pd|fg>:           30 b            0 skpd (  0.0%)    0.001 s ( 0.040 ms/b)
<pd|gg>:           15 b            0 skpd (  0.0%)    0.002 s ( 0.109 ms/b)
<pf|pf>:           55 b            0 skpd (  0.0%)    0.000 s ( 0.006 ms/b)
<pf|pg>:           50 b            0 skpd (  0.0%)    0.001 s ( 0.014 ms/b)
<pf|dd>:           60 b            0 skpd (  0.0%)    0.001 s ( 0.021 ms/b)
<pf|df>:           60 b            0 skpd (  0.0%)    0.001 s ( 0.015 ms/b)
<pf|dg>:           30 b            0 skpd (  0.0%)    0.001 s ( 0.042 ms/b)
<pf|ff>:           30 b            0 skpd (  0.0%)    0.001 s ( 0.031 ms/b)
<pf|fg>:           20 b            0 skpd (  0.0%)    0.001 s ( 0.057 ms/b)
<pf|gg>:           10 b            0 skpd (  0.0%)    0.001 s ( 0.141 ms/b)
<pg|pg>:           15 b            0 skpd (  0.0%)    0.000 s ( 0.023 ms/b)
<pg|dd>:           30 b            0 skpd (  0.0%)    0.001 s ( 0.041 ms/b)
<pg|df>:           30 b            0 skpd (  0.0%)    0.001 s ( 0.025 ms/b)
<pg|dg>:           15 b            0 skpd (  0.0%)    0.001 s ( 0.081 ms/b)
<pg|ff>:           15 b            0 skpd (  0.0%)    0.001 s ( 0.035 ms/b)
<pg|fg>:           10 b            0 skpd (  0.0%)    0.001 s ( 0.095 ms/b)
<pg|gg>:            5 b            0 skpd (  0.0%)    0.001 s ( 0.229 ms/b)
<dd|dd>:           21 b            0 skpd (  0.0%)    0.002 s ( 0.092 ms/b)
<dd|df>:           36 b            0 skpd (  0.0%)    0.001 s ( 0.031 ms/b)
<dd|dg>:           18 b            0 skpd (  0.0%)    0.002 s ( 0.101 ms/b)
<dd|ff>:           18 b            0 skpd (  0.0%)    0.001 s ( 0.041 ms/b)
<dd|fg>:           12 b            0 skpd (  0.0%)    0.001 s ( 0.093 ms/b)
<dd|gg>:            6 b            0 skpd (  0.0%)    0.002 s ( 0.254 ms/b)
<df|df>:           21 b            0 skpd (  0.0%)    0.001 s ( 0.058 ms/b)
<df|dg>:           18 b            0 skpd (  0.0%)    0.002 s ( 0.101 ms/b)
<df|ff>:           18 b            0 skpd (  0.0%)    0.001 s ( 0.063 ms/b)
<df|fg>:           12 b            0 skpd (  0.0%)    0.001 s ( 0.122 ms/b)
<df|gg>:            6 b            0 skpd (  0.0%)    0.002 s ( 0.312 ms/b)
<dg|dg>:            6 b            0 skpd (  0.0%)    0.001 s ( 0.196 ms/b)
<dg|ff>:            9 b            0 skpd (  0.0%)    0.001 s ( 0.075 ms/b)
<dg|fg>:            6 b            0 skpd (  0.0%)    0.001 s ( 0.186 ms/b)
<dg|gg>:            3 b            0 skpd (  0.0%)    0.001 s ( 0.486 ms/b)
<ff|ff>:            6 b            0 skpd (  0.0%)    0.001 s ( 0.089 ms/b)
<ff|fg>:            6 b            0 skpd (  0.0%)    0.001 s ( 0.165 ms/b)
<ff|gg>:            3 b            0 skpd (  0.0%)    0.002 s ( 0.583 ms/b)
<fg|fg>:            3 b            0 skpd (  0.0%)    0.001 s ( 0.311 ms/b)
<fg|gg>:            2 b            0 skpd (  0.0%)    0.001 s ( 0.676 ms/b)
<gg|gg>:            1 b            0 skpd (  0.0%)    0.001 s ( 1.113 ms/b)
Recanonicalizing the internal orbitals
Recanonicalizing the virtual orbitals
Time needed for Fock operator              ...            0.121 sec
Reference energy                           ...    -66.318792670
Warning: for UHF the TrafoType has to be JK
Warning: for UHF the K(C)-option cannot be MO but must be AOX

-------------------------------
PARTIAL EXCHANGE TRANSFORMATION
-------------------------------

Transformation type                        ... two-operators
Generation of integrals (i,mue|j,nue)      ... ON
Generation of integrals (mue,kappa|nue,tau)... ON
Generation of integrals (i,mue|a,nue)      ... ON
Dimension of the basis                     ...   59
Number of internal alpha-MOs               ...    9 (   0-   8)
Number of internal beta-MOs                ...    5 (   0-   4)
Number of external alpha-MOs               ...   50 (   9-  58)
Number of external beta-MOs                ...   54 (   5-  58)
Pair cutoff                                ... 0.000e+00 Eh
Number of AO pairs in the trafo            ... 1770
Total Number of distinct AO pairs          ... 1770
Memory devoted for trafo                   ... 2500.0 MB 
Max. Number of MO pairs treated together   ... 94133      
Number Format for Storage                  ... Double (8 Byte)
Integral package used                      ... LIBINT

Starting integral evaluation:
    ... done with AO integral generation
Closing buffer AOK[aa] ( 0.00 GB; CompressionRatio= 0.00)
Closing buffer AOK[bb] ( 0.00 GB; CompressionRatio= 0.00)
Closing buffer AOK[ab] ( 0.00 GB; CompressionRatio= 0.00)
Closing buffer AOK[ba] ( 0.00 GB; CompressionRatio= 0.00)
Collecting buffer AOK 
Closing buffer IAAO1[aa] ( 0.00 GB; CompressionRatio= 0.00)
Closing buffer IAAO1[bb] ( 0.00 GB; CompressionRatio= 0.00)
Closing buffer IAAO1[ab] ( 0.00 GB; CompressionRatio= 0.00)
Closing buffer IAAO1[ba] ( 0.00 GB; CompressionRatio= 0.00)
Closing buffer IAAO2[aa] ( 0.00 GB; CompressionRatio= 0.00)
Closing buffer IAAO2[bb] ( 0.00 GB; CompressionRatio= 0.00)
Closing buffer IAAO2[ab] ( 0.00 GB; CompressionRatio= 0.00)
Closing buffer IAAO2[ba] ( 0.00 GB; CompressionRatio= 0.00)
Collecting buffer IAAO 
Closing buffer PRQS    ( 0.00 GB; CompressionRatio= 0.00)
Collecting buffer PRQS 
Number of alpha/alpha MO pairs in trafo    ...   45
Number of beta /beta  MO pairs in trafo    ...   15
Number of alpha/ beta MO pairs in trafo    ...   45
------------------------
SORTING OF (i,mue|j,nue)
------------------------

SORTING OF ALPHA/ALPHA PAIRS
IBATCH = 1 of  1
Closing buffer KAO[aa] ( 0.00 GB; CompressionRatio= 1.00)
Collecting buffer KAO 
SORTING OF BETA /BETA  PAIRS
IBATCH = 1 of  1
Closing buffer KAO[bb] ( 0.00 GB; CompressionRatio= 1.00)
Collecting buffer KAO 
SORTING OF ALPHA/BETA  PAIRS
IBATCH = 1 of  1
Closing buffer KAO[ab] ( 0.00 GB; CompressionRatio= 0.999569274946)
Collecting buffer KAO[ab] 
------------------------
SORTING OF (i,mue|a,nue)
------------------------

Number of alpha/alpha (i,a) pairs in trafo  ...  450
Number of beta /beta  (i,a) pairs in trafo  ...  270
Number of alpha/ beta (i,a) pairs in trafo  ...  486
Number of beta /alpha (i,a) pairs in trafo  ...  250
Setting up the alpha/alpha list             ... done
Setting up the beta /beta  list             ... done
Setting up the alpha/beta  list             ... done
Setting up the beta /alpha list             ... done
    ... Now sorting (i,mue|a,nue)integrals
    ... Integrals (i,b|a,c) will be made on the fly
SORTING OF ALPHA/ALPHA PAIRS
IBATCH = 1 of  1
Closing buffer IPAQ[aa]  0.00 GB; CompressionRatio= 1.00)
SORTING OF BETA /BETA  PAIRS
IBATCH = 1 of  1
Closing buffer IPAQ[bb]( 0.00 GB; CompressionRatio= 1.00)
SORTING OF ALPHA/BETA  PAIRS (NMatSort_ab=21)
IBATCH = 1 of  1
Closing buffer IPAQ[ab]( 0.00 GB; CompressionRatio= 1.00)
SORTING OF BETA/ALPHA  PAIRS
IBATCH = 1 of  1
Closing buffer IPAQ[ba]( 0.00 GB; CompressionRatio= 1.00)
N(AO-Batches) Done                         ...         0 
N(AO-Batches) Skipped                      ...         0 
N(IJ)-pairs Skipped                        ...         0 
TOTAL TIME for half transformation         ...     3.263 sec
AO-integral generation                     ...     0.000 sec
Half transformation                        ...     0.000 sec
K-integral sorting                         ...     0.819 sec
<ss|**>: 
------------------------------
PARTIAL COULOMB TRANSFORMATION
------------------------------

Transformation type                        ... two-operators
Dimension of the basis                     ...   59
Number of internal alpha-MOs               ...    9 (0-8)
Number of internal beta-MOs                ...    5 (0-4)
Pair cutoff                                ... 0.000e+00 Eh
Number of AO pairs included in the trafo   ... 1770
Total Number of distinct AO pairs          ... 1770
Memory devoted for trafo                   ... 2500.0 MB 
Max. Number of MO pairs treated together   ... 185129      
Max. Number of MOs treated per batch       ... 3137      
Number Format for Storage                  ... Double (8 Byte)
AO-integral source                         ... DIRECT
Integral package used                      ... LIBINT

Starting integral evaluation:
<sp|**>:         3213 b        0 skpd     0.002 s (  0.001 ms/b)
        4590 b        0 skpd     0.018 s (  0.004 ms/b)
<sd|**>:         2754 b        0 skpd     0.016 s (  0.006 ms/b)
<sf|**>: <sg|**>:         1836 b        0 skpd     0.014 s (  0.008 ms/b)
<pp|**>:          918 b        0 skpd     0.014 s (  0.016 ms/b)
        2295 b        0 skpd     0.023 s (  0.010 ms/b)
<pd|**>:         2295 b        0 skpd     0.038 s (  0.017 ms/b)
<pf|**>:         1530 b        0 skpd     0.038 s (  0.025 ms/b)
<pg|**>:          765 b        0 skpd     0.038 s (  0.049 ms/b)
<dd|**>:          918 b        0 skpd     0.029 s (  0.032 ms/b)
<df|**>:          918 b        0 skpd     0.049 s (  0.053 ms/b)
<dg|**>:          459 b        0 skpd     0.048 s (  0.104 ms/b)
<ff|**>:          459 b        0 skpd     0.048 s (  0.105 ms/b)
<fg|**>:          306 b        0 skpd     0.050 s (  0.162 ms/b)
<gg|**>:          153 b        0 skpd     0.042 s (  0.277 ms/b)
Closing buffer AOJ[aa] ( 0.00 GB; CompressionRatio= 0.97)
Closing buffer AOJ[bb] ( 0.00 GB; CompressionRatio= 0.00)
Collecting buffer AOJ 
    ... done with AO integral generation
Number of Alpha-MO pairs included          ...   45
Number of Beta-MO pairs included           ...   15
    ... Now sorting integrals
SORTING ALPHA/ALPHA PAIRS
IBATCH = 1 of  1
Closing buffer JAO[aa] ( 0.00 GB; CompressionRatio= 1.00)
SORTING BETA/BETA PAIRS
IBATCH = 1 of  1
Closing buffer JAO[bb] ( 0.00 GB; CompressionRatio= 1.00)
Collecting buffer JAO 
TOTAL TIME for half transformation         ...     0.605 sec
AO-integral generation                     ...     0.354 sec
Half transformation                        ...     0.115 sec
J-integral sorting                         ...     0.101 sec

-------------------------- SECOND HALF TRANSFORMATION -------------------------
Formation of (ij|kl),(ij|ka), (ij|ab)      ... ok (     0.128 sec)
Formation of (ik|jl),(ik|ja), (ia|jb)      ... ok (     0.215 sec)


-----------------------
SPIN UNRESTRICTED GUESS
-----------------------

Entering MDCI_UHF_Guess, Tailored=0
Spin-components of the MP2 energy:
EMP2(aa)=     -0.084021505
EMP2(bb)=     -0.027772109
EMP2(ab)=     -0.210145765

Initial guess performed in     0.009 sec
E(0)                                       ...    -66.318792670
E(MP2)                                     ...     -0.321939379
Initial E(tot)                             ...    -66.640732049
<T|T>                                      ...      0.107489256
Number of pairs included                   ... 91

------------------------------------------------
                  UHF COUPLED CLUSTER ITERATIONS
------------------------------------------------

Number of amplitudes to be optimized       ...       181440

Iter       E(tot)           E(Corr)          Delta-E          Residual     Time      <S|S>**1/2
  0    -66.640732073     -0.321939403     -0.000000024      0.025890241    0.22      0.000176244
                           *** Turning on DIIS ***
  1    -66.633739702     -0.314947032      0.006992371      0.011647016    0.18      0.032217613
  2    -66.639962047     -0.321169377     -0.006222345      0.007467107    0.19      0.044742048
  3    -66.642168243     -0.323375573     -0.002206196      0.003139410    0.19      0.056275631
  4    -66.643301136     -0.324508466     -0.001132893      0.001422466    0.19      0.064061599
  5    -66.643429778     -0.324637107     -0.000128642      0.000806635    0.20      0.065028840
  6    -66.643476449     -0.324683778     -0.000046671      0.000265634    0.19      0.064925431
  7    -66.643483062     -0.324690392     -0.000006614      0.000133687    0.19      0.064749745
  8    -66.643487664     -0.324694994     -0.000004602      0.000092360    0.19      0.064735796
  9    -66.643490109     -0.324697438     -0.000002444      0.000059249    0.19      0.064775772
 10    -66.643490362     -0.324697692     -0.000000254      0.000029597    0.18      0.064825832
 11    -66.643490191     -0.324697521      0.000000171      0.000029055    0.19      0.064848791
 12    -66.643490189     -0.324697518      0.000000002      0.000028654    0.18      0.064854484
 13    -66.643490173     -0.324697503      0.000000016      0.000028240    0.19      0.064856294
 14    -66.643489973     -0.324697303      0.000000200      0.000027934    0.20      0.064857413
 15    -66.643489776     -0.324697106      0.000000197      0.000027497    0.21      0.064861949
 16    -66.643489676     -0.324697006      0.000000100      0.000026795    0.21      0.064872782
 17    -66.643489726     -0.324697055     -0.000000049      0.000025571    0.20      0.064898039
 18    -66.643489780     -0.324697110     -0.000000055      0.000024317    0.19      0.064932406
 19    -66.643489825     -0.324697154     -0.000000044      0.000023024    0.20      0.064982162
 20    -66.643489930     -0.324697259     -0.000000105      0.000022279    0.19      0.065025950
 21    -66.643490160     -0.324697490     -0.000000231      0.000021259    0.20      0.065125005
 22    -66.643490822     -0.324698152     -0.000000662      0.000018032    0.20      0.065654270
 23    -66.643491686     -0.324699016     -0.000000864      0.000013415    0.19      0.066919505
 24    -66.643492334     -0.324699664     -0.000000649      0.000009294    0.18      0.068483335
               --- The Coupled-Cluster iterations have converged ---

----------------------
COUPLED CLUSTER ENERGY
----------------------

E(0)                                       ...    -66.318792670
E(CORR)                                    ...     -0.324699664
E(TOT)                                     ...    -66.643492334
Singles norm <S|S>**1/2                    ...      0.068483335 ( 0.034657519, 0.033825816)  
T1 diagnostic                              ...      0.018302941                              

------------------
LARGEST AMPLITUDES
------------------
   4b-> 16b  -1b-> -1b       0.089607
   8a-> 12a   4b->  8b       0.069679
   8a-> 11a   4b->  5b       0.050488
   8a-> 10a   4b->  6b       0.050304
   7a-> 12a   4b->  8b       0.049670
   8a-> 11a   4b-> 13b       0.047768
   8a-> 10a   4b-> 14b       0.047712
   5a-> 12a   4b-> 10b       0.042943
   6a-> 12a   4b-> 11b       0.042118
   8a-> 15a   4b-> 13b       0.041781
   8a-> 14a   4b-> 14b       0.041663
   8a-> 15a   4b->  5b       0.041014
   8a-> 14a   4b->  6b       0.040791
   8a->  9a   4b-> 15b       0.040053
   8a->  9a   4b->  7b       0.038144
   8a-> 13a   4b-> 15b       0.034124

----------------------
UHF TRIPLES CORRECTION (Algorithm 1)
----------------------

Multiplier for the singles contribution    ...      1.000000000

SPIN-CASE Alpha-Alpha-Alpha:
10% done
20% done
30% done
40% done
50% done
60% done
70% done
80% done
90% done


SPIN-CASE Beta-Beta-Beta:
10% done
20% done
30% done
40% done
50% done
60% done
70% done
80% done
90% done


SPIN-CASE Alpha-Alpha-Beta:
10% done
20% done
30% done
40% done
50% done
60% done
70% done
80% done
90% done


SPIN-CASE Beta-Beta-Alpha:
10% done
20% done
30% done
40% done
50% done
60% done
70% done
80% done
90% done


Triples Correction (T)                     ...     -0.012998160
    alpha-alpha-alpha ... -0.001156792 (  8.9%)
    alpha-alpha-beta  ... -0.008262956 ( 63.6%)
    alpha-beta -beta  ... -0.003459573 ( 26.6%)
    beta -beta -beta  ... -0.000118839 (  0.9%)
Scaling of triples based on CCSD energies (Peterson et al. Molecular Physics 113, 1551 (2015))
E(T*) = f*E(T) where f = E(F12-CCSD)/E(CCSD) 
f = CCSD (with F12)/ CCSD (without F12)    ...      1.000000000
Scaled triples correction (T)              ...     -0.012998160

Final correlation energy                   ...     -0.337697824
E(CCSD)                                    ...    -66.643492334
E(CCSD(T))                                 ...    -66.656490494



        !!!!!!!!!!!!!!!!!!!!!!!!!!!!!!!!!!!!!!!!!!!!!!!!!!!!!!!!!!!!!!!!!!!!!!!!!! 
        !  Warning: Densities are linearized densities                           !
        !!!!!!!!!!!!!!!!!!!!!!!!!!!!!!!!!!!!!!!!!!!!!!!!!!!!!!!!!!!!!!!!!!!!!!!!!! 

NORM  =      1.140815494 sqrt=     1.068089647
W(HF) =      0.876565935
------------------------------------------------------------------------------
                           ORCA POPULATION ANALYSIS
------------------------------------------------------------------------------
Input electron density              ... 74_W.mdcip
Input spin density                  ... 74_W.mdcir
BaseName (.gbw .S,...)              ... 74_W

                    ********************************
                    * MULLIKEN POPULATION ANALYSIS *
                    ********************************

------------------------------------------
MULLIKEN ATOMIC CHARGES AND SPIN DENSITIES
------------------------------------------
   0 W :   -0.000000    4.000000
Sum of atomic charges       :   -0.0000000
Sum of atomic spin densities:    4.0000000

---------------------------------------------------
MULLIKEN REDUCED ORBITAL CHARGES AND SPIN DENSITIES
---------------------------------------------------
CHARGE
  0 W s       :     3.881692  s :     3.881692
      pz      :     2.014425  p :     6.045228
      px      :     2.015451
      py      :     2.015353
      dz2     :     1.003604  d :     4.018326
      dxz     :     0.992808
      dyz     :     0.992827
      dx2y2   :     0.036031
      dxy     :     0.993056
      f0      :     0.008409  f :     0.050053
      f+1     :     0.008231
      f-1     :     0.008164
      f+2     :     0.006047
      f-2     :     0.008675
      f+3     :     0.005262
      f-3     :     0.005266
      g0      :     0.000560  g :     0.004701
      g+1     :     0.000560
      g-1     :     0.000559
      g+2     :     0.000474
      g-2     :     0.000631
      g+3     :     0.000520
      g-3     :     0.000520
      g+4     :     0.000437
      g-4     :     0.000440

SPIN
  0 W s       :     0.043604  s :     0.043604
      pz      :     0.012296  p :     0.024537
      px      :     0.006368
      py      :     0.005874
      dz2     :     0.959232  d :     3.891503
      dxz     :     0.974536
      dyz     :     0.974369
      dx2y2   :     0.005132
      dxy     :     0.978234
      f0      :     0.006513  f :     0.037052
      f+1     :     0.006379
      f-1     :     0.006303
      f+2     :     0.004266
      f-2     :     0.006828
      f+3     :     0.003377
      f-3     :     0.003387
      g0      :     0.000432  g :     0.003304
      g+1     :     0.000430
      g-1     :     0.000426
      g+2     :     0.000329
      g-2     :     0.000491
      g+3     :     0.000359
      g-3     :     0.000358
      g+4     :     0.000241
      g-4     :     0.000238


                     *******************************
                     * LOEWDIN POPULATION ANALYSIS *
                     *******************************

-----------------------------------------
LOEWDIN ATOMIC CHARGES AND SPIN DENSITIES
-----------------------------------------
   0 W :   -0.000000    4.000000

--------------------------------------------------
LOEWDIN REDUCED ORBITAL CHARGES AND SPIN DENSITIES
--------------------------------------------------
CHARGE
  0 W s       :     3.881692  s :     3.881692
      pz      :     2.014425  p :     6.045228
      px      :     2.015451
      py      :     2.015353
      dz2     :     1.003604  d :     4.018326
      dxz     :     0.992808
      dyz     :     0.992827
      dx2y2   :     0.036031
      dxy     :     0.993056
      f0      :     0.008409  f :     0.050053
      f+1     :     0.008231
      f-1     :     0.008164
      f+2     :     0.006047
      f-2     :     0.008675
      f+3     :     0.005262
      f-3     :     0.005266
      g0      :     0.000560  g :     0.004701
      g+1     :     0.000560
      g-1     :     0.000559
      g+2     :     0.000474
      g-2     :     0.000631
      g+3     :     0.000520
      g-3     :     0.000520
      g+4     :     0.000437
      g-4     :     0.000440

SPIN
  0 W s       :     0.043604  s :     0.043604
      pz      :     0.012296  p :     0.024537
      px      :     0.006368
      py      :     0.005874
      dz2     :     0.959232  d :     3.891503
      dxz     :     0.974536
      dyz     :     0.974369
      dx2y2   :     0.005132
      dxy     :     0.978234
      f0      :     0.006513  f :     0.037052
      f+1     :     0.006379
      f-1     :     0.006303
      f+2     :     0.004266
      f-2     :     0.006828
      f+3     :     0.003377
      f-3     :     0.003387
      g0      :     0.000432  g :     0.003304
      g+1     :     0.000430
      g-1     :     0.000426
      g+2     :     0.000329
      g-2     :     0.000491
      g+3     :     0.000359
      g-3     :     0.000358
      g+4     :     0.000241
      g-4     :     0.000238


                      *****************************
                      * MAYER POPULATION ANALYSIS *
                      *****************************

  NA   - Mulliken gross atomic population
  ZA   - Total nuclear charge
  QA   - Mulliken gross atomic charge
  VA   - Mayer's total valence
  BVA  - Mayer's bonded valence
  FA   - Mayer's free valence

  ATOM       NA         ZA         QA         VA         BVA        FA
  0 W     14.0000    14.0000    -0.0000     4.8075     0.0000     4.8075





------------------------------------------------------------------------------- 
                                     TIMINGS                                   
------------------------------------------------------------------------------- 


Total execution time                   ...        9.943 sec

Fock Matrix Formation                  ...        0.121 sec (  1.2%)
Initial Guess                          ...        0.009 sec (  0.1%)
DIIS Solver                            ...        0.464 sec (  4.7%)
State Vector Update                    ...        0.019 sec (  0.2%)
Sigma-vector construction              ...        4.333 sec ( 43.6%)
  <0|H|D>                              ...        0.001 sec (  0.0% of sigma)
  <D|H|D>(0-ext Fock)                  ...        0.006 sec (  0.1% of sigma)
  <D|H|D>(0-ext)                       ...        0.015 sec (  0.4% of sigma)
  <D|H|D>(2-ext Fock)                  ...        0.002 sec (  0.0% of sigma)
  <D|H|D>(2-ext)                       ...        0.068 sec (  1.6% of sigma)
  <D|H|D>(4-ext)                       ...        1.618 sec ( 37.3% of sigma)
  <S|H|0>                              ...        0.117 sec (  2.7% of sigma)
  <S|H|S>                              ...        0.001 sec (  0.0% of sigma)
  <S|H|D>(1-ext)                       ...        0.002 sec (  0.0% of sigma)
  <D|H|S>(1-ext)                       ...        0.033 sec (  0.8% of sigma)
  Fock-dressing                        ...        1.319 sec ( 30.4% of sigma)
  (ik|jl)-dressing                     ...        0.021 sec (  0.5% of sigma)
  (ij|ab),(ia|jb)-dressing             ...        0.879 sec ( 20.3% of sigma)
  Pair energies                        ...        0.003 sec (  0.1% of sigma)
Total Time for computing (T)           ...        0.154 sec (  1.6% of ALL)
  I/O of integral and amplitudes       ...        0.037 sec ( 24.1% of (T))
  External N**7 contributions          ...        0.038 sec ( 24.9% of (T))
  Internal N**7 contributions          ...        0.016 sec ( 10.2% of (T))
  N**6 triples energy contributions    ...        0.057 sec ( 37.0% of (T))


-------------------------   --------------------
FINAL SINGLE POINT ENERGY       -66.656490494011
-------------------------   --------------------


                            ***************************************
                            *     ORCA property calculations      *
                            ***************************************

                                    ---------------------
                                    Active property flags
                                    ---------------------
   (+) Dipole Moment


------------------------------------------------------------------------------
                       ORCA ELECTRIC PROPERTIES CALCULATION
------------------------------------------------------------------------------

Dipole Moment Calculation                       ... on
Quadrupole Moment Calculation                   ... off
Polarizability Calculation                      ... off
GBWName                                         ... 74_W.gbw
Electron density file                           ... 74_W.scfp
The origin for moment calculation is the CENTER OF MASS  = ( 0.000000,  0.000000  0.000000)

-------------
DIPOLE MOMENT
-------------
                                X             Y             Z
Electronic contribution:      0.00000       0.00000       0.00000
Nuclear contribution   :      0.00000       0.00000       0.00000
                        -----------------------------------------
Total Dipole Moment    :      0.00000       0.00000       0.00000
                        -----------------------------------------
Magnitude (a.u.)       :      0.00000
Magnitude (Debye)      :      0.00000



--------------------
Rotational spectrum 
--------------------
 
Rotational constants in cm-1:     0.000000     0.000000     0.000000 
Rotational constants in MHz :     0.000000     0.000000     0.000000 

 Dipole components along the rotational axes: 
x,y,z [a.u.] :     0.000000     0.000000     0.000000 
x,y,z [Debye]:     0.000000     0.000000     0.000000 

 

                           *** MDCI DENSITY ***

------------------------------------------------------------------------------
                       ORCA ELECTRIC PROPERTIES CALCULATION
------------------------------------------------------------------------------

Dipole Moment Calculation                       ... on
Quadrupole Moment Calculation                   ... off
Polarizability Calculation                      ... off
GBWName                                         ... 74_W.gbw
Electron density file                           ... 74_W.mdcip
The origin for moment calculation is the CENTER OF MASS  = ( 0.000000,  0.000000  0.000000)

-------------
DIPOLE MOMENT
-------------
                                X             Y             Z
Electronic contribution:     -0.00000      -0.00000      -0.00000
Nuclear contribution   :      0.00000       0.00000       0.00000
                        -----------------------------------------
Total Dipole Moment    :     -0.00000      -0.00000      -0.00000
                        -----------------------------------------
Magnitude (a.u.)       :      0.00000
Magnitude (Debye)      :      0.00000



--------------------
Rotational spectrum 
--------------------
 
Rotational constants in cm-1:     0.000000     0.000000     0.000000 
Rotational constants in MHz :     0.000000     0.000000     0.000000 

 Dipole components along the rotational axes: 
x,y,z [a.u.] :    -0.000000    -0.000000    -0.000000 
x,y,z [Debye]:    -0.000000    -0.000000    -0.000000 

 

Timings for individual modules:

Sum of individual times         ...       17.343 sec (=   0.289 min)
GTO integral calculation        ...        0.813 sec (=   0.014 min)   4.7 %
SCF iterations                  ...        6.111 sec (=   0.102 min)  35.2 %
MDCI module                     ...       10.420 sec (=   0.174 min)  60.1 %
                             ****ORCA TERMINATED NORMALLY****
TOTAL RUN TIME: 0 days 0 hours 0 minutes 18 seconds 123 msec
