
                                 *****************
                                 * O   R   C   A *
                                 *****************

           --- An Ab Initio, DFT and Semiempirical electronic structure package ---

                  #######################################################
                  #                        -***-                        #
                  #          Department of theory and spectroscopy      #
                  #               Directorship: Frank Neese             #
                  #        Max Planck Institute fuer Kohlenforschung    #
                  #                Kaiser Wilhelm Platz 1               #
                  #                 D-45470 Muelheim/Ruhr               #
                  #                      Germany                        #
                  #                                                     #
                  #                  All rights reserved                #
                  #                        -***-                        #
                  #######################################################


                         Program Version 4.2.0 -  RELEASE  -


 With contributions from (in alphabetic order):
   Daniel Aravena         : Magnetic Suceptibility
   Michael Atanasov       : Ab Initio Ligand Field Theory (pilot matlab implementation)
   Alexander A. Auer      : GIAO ZORA, VPT2
   Ute Becker             : Parallelization
   Giovanni Bistoni       : ED, misc. LED, open-shell LED, HFLED
   Martin Brehm           : Molecular dynamics
   Dmytro Bykov           : SCF Hessian
   Vijay G. Chilkuri      : MRCI spin determinant printing, contributions to CSF-ICE
   Dipayan Datta          : RHF DLPNO-CCSD density
   Achintya Kumar Dutta   : EOM-CC, STEOM-CC
   Dmitry Ganyushin       : Spin-Orbit,Spin-Spin,Magnetic field MRCI
   Miquel Garcia          : C-PCM Hessian, Gaussian charge scheme
   Yang Guo               : DLPNO-NEVPT2, CIM, IAO-localization
   Andreas Hansen         : Spin unrestricted coupled pair/coupled cluster methods
   Benjamin Helmich-Paris : CASSCF linear response (MC-RPA)
   Lee Huntington         : MR-EOM, pCC
   Robert Izsak           : Overlap fitted RIJCOSX, COSX-SCS-MP3, EOM
   Christian Kollmar      : KDIIS, OOCD, Brueckner-CCSD(T), CCSD density
   Simone Kossmann        : Meta GGA functionals, TD-DFT gradient, OOMP2, MP2 Hessian
   Martin Krupicka        : AUTO-CI
   Lucas Lang             : DCDCAS
   Dagmar Lenk            : GEPOL surface, SMD
   Dimitrios Liakos       : Extrapolation schemes; Compound Job, initial MDCI parallelization
   Dimitrios Manganas     : Further ROCIS development; embedding schemes
   Dimitrios Pantazis     : SARC Basis sets
   Taras Petrenko         : DFT Hessian,TD-DFT gradient, ASA, ECA, R-Raman, ABS, FL, XAS/XES, NRVS
   Peter Pinski           : DLPNO-MP2, DLPNO-MP2 Gradient
   Christoph Reimann      : Effective Core Potentials
   Marius Retegan         : Local ZFS, SOC
   Christoph Riplinger    : Optimizer, TS searches, QM/MM, DLPNO-CCSD(T), (RO)-DLPNO pert. Triples
   Tobias Risthaus        : Range-separated hybrids, TD-DFT gradient, RPA, STAB
   Michael Roemelt        : Original ROCIS implementation
   Masaaki Saitow         : Open-shell DLPNO-CCSD energy and density
   Barbara Sandhoefer     : DKH picture change effects
   Avijit Sen             : IP-ROCIS
   Kantharuban Sivalingam : CASSCF convergence, NEVPT2, FIC-MRCI
   Bernardo de Souza      : ESD, SOC TD-DFT
   Georgi Stoychev        : AutoAux, RI-MP2 NMR
   Willem Van den Heuvel  : Paramagnetic NMR
   Boris Wezisla          : Elementary symmetry handling
   Frank Wennmohs         : Technical directorship


 We gratefully acknowledge several colleagues who have allowed us to
 interface, adapt or use parts of their codes:
   Stefan Grimme, W. Hujo, H. Kruse,             : VdW corrections, initial TS optimization,
                  C. Bannwarth                     DFT functionals, gCP, sTDA/sTD-DF
   Ed Valeev, F. Pavosevic, A. Kumar             : LibInt (2-el integral package), F12 methods
   Garnet Chan, S. Sharma, J. Yang, R. Olivares  : DMRG
   Ulf Ekstrom                                   : XCFun DFT Library
   Mihaly Kallay                                 : mrcc  (arbitrary order and MRCC methods)
   Andreas Klamt, Michael Diedenhofen            : otool_cosmo (COSMO solvation model)
   Jiri Pittner, Ondrej Demel                    : Mk-CCSD
   Frank Weinhold                                : gennbo (NPA and NBO analysis)
   Christopher J. Cramer and Donald G. Truhlar   : smd solvation model
   Lars Goerigk                                  : TD-DFT with DH, B97 family of functionals
   V. Asgeirsson, H. Jonsson                     : NEB implementation
   FAccTs GmbH                                   : IRC, NEB, NEB-TS, Multilevel, MM, QM/MM, CI optimization
   S Lehtola, MJT Oliveira, MAL Marques          : LibXC Library


 Your calculation uses the libint2 library for the computation of 2-el integrals
 For citations please refer to: http://libint.valeyev.net

 Your ORCA version has been built with support for libXC version: 4.2.3
 For citations please refer to: https://tddft.org/programs/libxc/

 This ORCA versions uses:
   CBLAS   interface :  Fast vector & matrix operations
   LAPACKE interface :  Fast linear algebra routines
   SCALAPACK package :  Parallel linear algebra routines


----- Orbital basis set information -----
Your calculation utilizes the basis: def2-SVP
   F. Weigend and R. Ahlrichs, Phys. Chem. Chem. Phys. 7, 3297 (2005).

----- AuxJ basis set information -----
Your calculation utilizes the auxiliary basis: def2/J
   F. Weigend, Phys. Chem. Chem. Phys. 8, 1057 (2006).

================================================================================
                                        WARNINGS
                       Please study these warnings very carefully!
================================================================================


INFO   : the flag for use of LIBINT has been found!

================================================================================
                                       INPUT FILE
================================================================================
NAME = 76_Os_atom76.inp
|  1> # input to generate an atomic fitting density for Os
|  2> # this file is use internally by ORCA
|  3> #
|  4> # atomic ground state (S=5): 1s2 2s2 2p6 3s2 3p6 4s2 3d10 4p6 5s2 4d10 5p6 6s2 4f14 5d6 
|  5> #
|  6> ! RHF AllowRHF def2-SVP def2/J  NoMulliken NoLoewdin NoMayer NoPrintMOs 
|  7> 
|  8> %output print[p_atomdensfit] 2 end
|  9> 
| 10> %scf
| 11>   guess hcore
| 12>   maxiter 1000
| 13>   maxdisk 500000
| 14>   SCFMode Conventional
| 15>   lshift 1.000000
| 16>   hftyp rohf
| 17>   rohf_case sahf
| 18>   rohf_numop   2
| 19>   rohf_norb[1] 5
| 20>   rohf_nel[1]  6
| 21> end
| 22> 
| 23> %basis
| 24>   NewECP 76
| 25>     N_core 60
| 26>     lmax f
| 27>     s 3
| 28>       1      13.8757539000    885.4057191000  2
| 29>       2       6.9378769000     25.9670401000  2
| 30>       3       2.7670751000    -18.9094570000  2
| 31>     p 3
| 32>       1      10.1937926000    320.0839019000  2
| 33>       2       5.0968962000     26.1487649000  2
| 34>       3       2.7670751000    -18.9094570000  2
| 35>     d 3
| 36>       1       7.0992385000    115.0448431000  2
| 37>       2       3.5496192000     13.6225746000  2
| 38>       3       2.7670751000    -18.9094570000  2
| 39>     f 1
| 40>       1       2.7670751000     18.9094570000  2
| 41>   end
| 42>   NewGTO 76
| 43>     s 3 
| 44>      1      30.0000000000      0.9881517203
| 45>      2      27.0000000000     -1.4700619919
| 46>      3      13.5247300050      1.4560441448
| 47>     s 1 
| 48>      1       5.2402883472      1.0000000000
| 49>     s 1 
| 50>      1       1.1306661245      1.0000000000
| 51>     s 1 
| 52>      1       0.5168996692      1.0000000000
| 53>     s 1 
| 54>      1       0.1322295354      1.0000000000
| 55>     s 1 
| 56>      1       0.0472203188      1.0000000000
| 57>     p 4 
| 58>      1      15.5000000000      0.3696785165
| 59>      2      14.0000000000     -0.5355179504
| 60>      3       5.5458290420      0.6871857809
| 61>      4       1.4139502215     -1.2522275443
| 62>     p 1 
| 63>      1       0.6813668676      1.0000000000
| 64>     p 1 
| 65>      1       0.3091145265      1.0000000000
| 66>     p 1 
| 67>      1       0.0520000000      1.0000000000
| 68>     d 4 
| 69>      1       8.2945059487      0.0525688853
| 70>      2       6.3060397430     -0.1241172847
| 71>      3       1.4890109110      0.4162938627
| 72>      4       0.6731539061      0.6676861931
| 73>     d 1 
| 74>      1       0.2859080522      1.0000000000
| 75>     d 1 
| 76>      1       0.1105801205      1.0000000000
| 77>     p 1 
| 78>      1       0.0207659320      1.0000000000
| 79>   end
| 80>   NewAuxGTO 76
| 81>     S 1
| 82>      1 1310.72 1.0
| 83>     S 1
| 84>      1  655.36 1.0
| 85>     S 1
| 86>      1  327.68 1.0
| 87>     S 1
| 88>      1  163.84 1.0
| 89>     S 1
| 90>      1   81.82 1.0
| 91>     S 1
| 92>      1   40.96 1.0
| 93>     S 1
| 94>      1   20.48 1.0
| 95>     S 1
| 96>      1   10.24 1.0
| 97>     S 1
| 98>      1    5.12 1.0
| 99>     S 1
|100>      1    2.56 1.0
|101>     S 1
|102>      1    1.28 1.0
|103>     S 1
|104>      1    0.64 1.0
|105>     S 1
|106>      1    0.32 1.0
|107>     S 1
|108>      1    0.16 1.0
|109>     S 1
|110>      1    0.08 1.0
|111>     S 1
|112>      1    0.04 1.0
|113>     S 1
|114>      1    0.02 1.0
|115>     S 1
|116>      1    0.01 1.0
|117>   end
|118> end
|119> 
|120> * xyz 0 5
|121> 76  0.0 0.0 0.0
|122> *
|123> 
|124> 
|125>                          ****END OF INPUT****
================================================================================

                       ****************************
                       * Single Point Calculation *
                       ****************************

---------------------------------
CARTESIAN COORDINATES (ANGSTROEM)
---------------------------------
  Os     0.000000    0.000000    0.000000

----------------------------
CARTESIAN COORDINATES (A.U.)
----------------------------
  NO LB      ZA    FRAG     MASS         X           Y           Z
   0 Os   16.0000*   0   190.200    0.000000    0.000000    0.000000
* core charge reduced due to ECP

--------------------------------
INTERNAL COORDINATES (ANGSTROEM)
--------------------------------
 Os     0   0   0     0.000000000000     0.00000000     0.00000000

---------------------------
INTERNAL COORDINATES (A.U.)
---------------------------
 Os     0   0   0     0.000000000000     0.00000000     0.00000000

---------------------
BASIS SET INFORMATION
---------------------
There are 1 groups of distinct atoms

 Group   1 Type Os  : 8s8p6d contracted to 6s5p3d pattern {311111/41111/411}

Atom   0Os   basis set group =>   1
---------------------------------
AUXILIARY/J BASIS SET INFORMATION
---------------------------------
There are 1 groups of distinct atoms

 Group   1 Type Os  : 18s contracted to 18s pattern {111111111111111111}

Atom   0Os   basis set group =>   1
-------------------------
ECP PARAMETER INFORMATION
-------------------------

 Group 1, Type Os ECP (replacing 60 core electrons, lmax=3)

Atom   0Os   ECP group =>   1

------------------------------------------------------------------------------
                           ORCA GTO INTEGRAL CALCULATION
------------------------------------------------------------------------------

                         BASIS SET STATISTICS AND STARTUP INFO

 # of primitive gaussian shells          ...   22
 # of primitive gaussian functions       ...   62
 # of contracted shells                  ...   14
 # of contracted basis functions         ...   36
 Highest angular momentum                ...    2
 Maximum contraction depth               ...    4
 Integral package used                   ... LIBINT
 Integral threshhold            Thresh   ...  1.000e-10
 Primitive cut-off              TCut     ...  1.000e-11
 Storage cut-off                TCutStore... -1.000e+00
 Buffer length                           ... 1048576 integrals/buffer
 Generate file with integrals 4 distinct ...false


------------------------------ INTEGRAL EVALUATION ----------------------------


 * One electron integrals 

   ECP integrals                         ... done
 Pre-screening matrix                    ... done
 Shell pair data                         ... done (   0.000 sec)
 Statistics run                          ... done
 Maximum amount of storage needed        ...     2 MB
 Maximum amount of storage dedicated     ... 500000 MB
 Beginning two electron integral evaluation:
 Starting repulsion integrals
  <ss|ss>  ...          231 b.         0 skpd (  0.0%)     0.000 s. (  0.000 ms/b)
  <ss|sp>  ...          630 b.         0 skpd (  0.0%)     0.000 s. (  0.000 ms/b)
  <ss|sd>  ...          378 b.         0 skpd (  0.0%)     0.000 s. (  0.000 ms/b)
  <ss|pp>  ...          315 b.         0 skpd (  0.0%)     0.000 s. (  0.001 ms/b)
  <ss|pd>  ...          315 b.         0 skpd (  0.0%)     0.000 s. (  0.001 ms/b)
  <ss|dd>  ...          126 b.         0 skpd (  0.0%)     0.000 s. (  0.002 ms/b)
  <sp|sp>  ...          465 b.         0 skpd (  0.0%)     0.000 s. (  0.000 ms/b)
  <sp|sd>  ...          540 b.         0 skpd (  0.0%)     0.000 s. (  0.001 ms/b)
  <sp|pp>  ...          450 b.         0 skpd (  0.0%)     0.000 s. (  0.001 ms/b)
  <sp|pd>  ...          450 b.         0 skpd (  0.0%)     0.001 s. (  0.002 ms/b)
  <sp|dd>  ...          180 b.         0 skpd (  0.0%)     0.001 s. (  0.005 ms/b)
  <sd|sd>  ...          171 b.         0 skpd (  0.0%)     0.000 s. (  0.002 ms/b)
  <sd|pp>  ...          270 b.         0 skpd (  0.0%)     0.001 s. (  0.002 ms/b)
  <sd|pd>  ...          270 b.         0 skpd (  0.0%)     0.001 s. (  0.005 ms/b)
  <sd|dd>  ...          108 b.         0 skpd (  0.0%)     0.001 s. (  0.012 ms/b)
  <pp|pp>  ...          120 b.         0 skpd (  0.0%)     0.000 s. (  0.003 ms/b)
  <pp|pd>  ...          225 b.         0 skpd (  0.0%)     0.001 s. (  0.006 ms/b)
  <pp|dd>  ...           90 b.         0 skpd (  0.0%)     0.001 s. (  0.015 ms/b)
  <pd|pd>  ...          120 b.         0 skpd (  0.0%)     0.002 s. (  0.016 ms/b)
  <pd|dd>  ...           90 b.         0 skpd (  0.0%)     0.003 s. (  0.036 ms/b)
  <dd|dd>  ...           21 b.         0 skpd (  0.0%)     0.002 s. (  0.117 ms/b)


                                      INTEGRAL STATISTICS

Integral type statistics:
 Number of integrals retained            ...     222111 
 One   Center Integrals retained         ...     222111 (100.0%)
 Two   Center Integrals retained         ...          0 (  0.0%)
 Three Center Integrals retained         ...          0 (  0.0%)
 Four  Center Integrals retained         ...          0 (  0.0%)

Storage statistics:
 Number of char integrals                ...          0 (  0.0%)
 Number of short int integrals           ...          0 (  0.0%)
 Number of double/float integrals        ...     222111 (100.0%)
 Amount of memory used                   ...          2 MB
 Amount of memory estimated              ...          2 MB ( 95.0%)

Prescreening statistics:
 Total number of shell quadruples        ...       5565 
 Number of skipped shell quadruples      ...          0 (  0.0%)
 # of negligible batches done            ...          0 (  0.0%)

Timings:
 Total evaluation time               ...     0.180 sec (   0.003 min)
 One electron matrix time            ...     0.014 sec (   0.000 min) =  8.0%
 Schwartz matrix evaluation time     ...     0.071 sec (   0.001 min) = 39.5%
 Statistics run                      ...     0.002 sec (   0.000 min) =  1.0%
 Repulsion integral time             ...     0.018 sec (   0.000 min) = 10.3%

-------------------------------------------------------------------------------
                                 ORCA SCF
-------------------------------------------------------------------------------

------------
SCF SETTINGS
------------
Hamiltonian:
 Ab initio Hamiltonian  Method          .... Hartree-Fock(GTOs)


General Settings:
 Integral files         IntName         .... 76_Os_atom76
 Hartree-Fock type      HFTyp           .... ROHF
 Total Charge           Charge          ....    0
 Multiplicity           Mult            ....    5
 Number of Electrons    NEL             ....   16
 Basis Dimension        Dim             ....   36
 Nuclear Repulsion      ENuc            ....      0.0000000000 Eh

Convergence Acceleration:
 DIIS                   CNVDIIS         .... on
   Start iteration      DIISMaxIt       ....    12
   Startup error        DIISStart       ....  0.200000
   # of expansion vecs  DIISMaxEq       ....     5
   Bias factor          DIISBfac        ....   1.050
   Max. coefficient     DIISMaxC        ....  10.000
 Newton-Raphson         CNVNR           .... off
 SOSCF                  CNVSOSCF        .... off
 Level Shifting         CNVShift        .... on
   Level shift para.    LevelShift      ....    1.0000
   Turn off err/grad.   ShiftErr        ....    0.0010
 Zerner damping         CNVZerner       .... off
 Static damping         CNVDamp         .... on
   Fraction old density DampFac         ....    0.7000
   Max. Damping (<1)    DampMax         ....    0.9800
   Min. Damping (>=0)   DampMin         ....    0.0000
   Turn off err/grad.   DampErr         ....    0.1000
 Fernandez-Rico         CNVRico         .... off

SCF Procedure:
 Maximum # iterations   MaxIter         ....  1000
 SCF integral mode      SCFMode         .... Conventional
 Integral Threshold     Thresh          ....  1.000e-10 Eh
 Primitive CutOff       TCut            ....  1.000e-11 Eh
 Integral Buffer length BufferLength    .... 1048576
 Integral index format  IndFormat       ....     0
 Integral value format  ValFormat       ....     0
 Integral Storage       Thresh          ....  1.000e-10 Eh

Convergence Tolerance:
 Convergence Check Mode ConvCheckMode   .... Total+1el-Energy
 Convergence forced     ConvForced      .... 0
 Energy Change          TolE            ....  1.000e-06 Eh
 1-El. energy change                    ....  1.000e-03 Eh
 DIIS Error             TolErr          ....  1.000e-06


Diagonalization of the overlap matrix:
Smallest eigenvalue                        ... 1.638e-02
Time for diagonalization                   ...    0.000 sec
Threshold for overlap eigenvalues          ... 1.000e-08
Number of eigenvalues below threshold      ... 0
Time for construction of square roots      ...    0.001 sec
Total time needed                          ...    0.002 sec

--------------------
INITIAL GUESS: HCORE
--------------------
AVERAGE-CONFIGURATION (SAHF) CASE FOUND

-------------------
FINAL ROHF SETTINGS
-------------------
Number of operators             ... 2
  operator   0:   5 orbitals  10 electrons n(mue)= 2.000
  operator   1:   5 orbitals   6 electrons n(mue)= 1.200
Vector coupling coefficients a and b (Zerner convention):
   1.000    1.000           1.000    1.000 
   1.000    0.972           1.000    1.389 

                      -----------------
                      INTIAL GUESS DONE 
                      -----------------

 InCore treatment chosen:
   Memory dedicated               ...    1024 MB
   Memory needed                  ...      2 MB
   Number of tiny    integrals    ...       0
   Number of small   integrals    ...       0
   Number of regular integrals    ...  222111

--------------
SCF ITERATIONS
--------------
ITER       Energy         Delta-E        Max-DP      RMS-DP      [F,P]     Damp
  0    -83.6175698584   0.000000000000 2.41651552  0.08462372  0.7952305 0.7000
  1    -87.2517654924  -3.634195633976 1.74692927  0.06084932  0.3475966 0.7000
                            ****Activating DIIS****
  2    -86.9394450512   0.312320441178 1.23116146  0.04258495  0.1236680 0.7000
  3    -86.7115617152   0.227883336002 0.84620239  0.02946207  0.1451978 0.7000
  4    -86.6189580184   0.092603696857 0.59196077  0.02061659  0.1571854 0.7000
  5    -86.5161968668   0.102761151608 0.42267693  0.01462621  0.1808390 0.7000
  6    -86.4163412880   0.099855578745 0.30023128  0.01035585  0.2021722 0.7000
  7    -86.3431592413   0.073182046666 0.21564261  0.00741412  0.2158961 0.7000
  8    -86.2570342836   0.086124957784 0.14389219  0.00607432  0.2311686 0.7000
  9    -86.4536122551  -0.196577971508 0.09359624  0.00361945  0.1937350 0.7000
 10    -86.4405998291   0.013012425935 0.45794556  0.01928242  0.2061758 0.7000
 11    -88.4108657385  -1.970265909405 0.33399391  0.01479268  0.1160305 0.7000
 12    -88.6332015352  -0.222335796676 0.82057987  0.03633809  0.0868370 0.0000
 13    -89.1041261751  -0.470924639854 0.04266952  0.00200915  0.0952128 0.0000
 14    -89.1056917586  -0.001565583569 0.01180640  0.00043458  0.0914269 0.0000
 15    -89.1034265115   0.002265247157 0.09341260  0.00381050  0.0931749 0.0000
 16    -89.0765984159   0.026828095547 0.01319316  0.00052087  0.1198541 0.7000
 17    -89.0920612300  -0.015462814108 0.06423396  0.00297644  0.1030253 0.7000
 18    -89.1314796265  -0.039418396459 0.22931090  0.01001001  0.0383636 0.0000
 19    -89.1643407375  -0.032861111027 0.08101807  0.00309673  0.0425762 0.0000
 20    -89.1746932396  -0.010352502090 0.08872225  0.00355896  0.0381985 0.0000
 21    -89.1875604778  -0.012867238205 0.05316254  0.00272252  0.0325179 0.0000
 22    -89.1960288680  -0.008468390162 0.06233917  0.00342284  0.0274121 0.0000
 23    -89.2045153364  -0.008486468461 0.07691370  0.00423092  0.0201756 0.0000
 24    -89.2112484043  -0.006733067850 0.07029578  0.00409748  0.0110710 0.0000
 25    -89.2144163693  -0.003167964976 0.01983002  0.00149651  0.0051952 0.0000
 26    -89.2150845440  -0.000668174736 0.02870923  0.00092761  0.0048402 0.0000
 27    -89.2154849059  -0.000400361845 0.02754614  0.00079437  0.0046690 0.0000
 28    -89.2157737238  -0.000288817991 0.02089475  0.00061637  0.0044503 0.0000
 29    -89.2159937566  -0.000220032799 0.01677582  0.00057859  0.0041922 0.0000
 30    -89.2162233902  -0.000229633573 0.01334446  0.00065370  0.0038412 0.0000
 31    -89.2165140102  -0.000290619950 0.00968362  0.00077042  0.0032902 0.0000
 32    -89.2168373363  -0.000323326088 0.00956539  0.00076184  0.0031290 0.0000
 33    -89.2170831854  -0.000245849179 0.01856721  0.00065233  0.0024178 0.0000
 34    -89.2172187324  -0.000135546963 0.01675267  0.00048100  0.0023496 0.0000
 35    -89.2172867781  -0.000068045711 0.01012819  0.00032800  0.0020807 0.0000
 36    -89.2173293210  -0.000042542873 0.00623984  0.00031134  0.0016554 0.0000
 37    -89.2173678104  -0.000038489410 0.00508030  0.00035699  0.0011000 0.0000
 38    -89.2174003614  -0.000032551040 0.00394803  0.00027694  0.0010838 0.0000
 39    -89.2174144128  -0.000014051328 0.00467611  0.00014544  0.0008517 0.0000
 40    -89.2174190560  -0.000004643199 0.00366091  0.00009156  0.0005501 0.0000
 41    -89.2174218794  -0.000002823432 0.00301720  0.00007917  0.0005038 0.0000
 42    -89.2174243249  -0.000002445489 0.00279581  0.00008479  0.0004865 0.0000
 43    -89.2174267489  -0.000002424016 0.00239732  0.00009015  0.0004611 0.0000
 44    -89.2174290856  -0.000002336751 0.00164308  0.00008816  0.0004230 0.0000
 45    -89.2174311281  -0.000002042433 0.00107560  0.00007406  0.0003716 0.0000
 46    -89.2174329640  -0.000001835955 0.00123563  0.00006675  0.0003437 0.0000
 47    -89.2174349844  -0.000002020320 0.00241899  0.00007588  0.0003633 0.0000
 48    -89.2174372627  -0.000002278347 0.00280946  0.00008537  0.0003789 0.0000
 49    -89.2174394060  -0.000002143327 0.00207408  0.00007955  0.0003252 0.0000
 50    -89.2174409863  -0.000001580259 0.00096543  0.00006100  0.0002219 0.0000
                 **** Energy Check signals convergence ****

               *****************************************************
               *                     SUCCESS                       *
               *           SCF CONVERGED AFTER  51 CYCLES          *
               *****************************************************


----------------
TOTAL SCF ENERGY
----------------

Total Energy       :          -89.21744196 Eh           -2427.73002 eV

Components:
Nuclear Repulsion  :            0.00000000 Eh               0.00000 eV
Electronic Energy  :          -89.21744196 Eh           -2427.73002 eV
One Electron Energy:         -149.96297683 Eh           -4080.70006 eV
Two Electron Energy:           60.74553487 Eh            1652.97004 eV

Virial components:
Potential Energy   :         -118.90397034 Eh           -3235.54152 eV
Kinetic Energy     :           29.68652838 Eh             807.81151 eV
Virial Ratio       :            4.00531746


---------------
SCF CONVERGENCE
---------------

  Last Energy change         ...   -9.7558e-07  Tolerance :   1.0000e-06
  Last MAX-Density change    ...    6.8684e-04  Tolerance :   1.0000e-05
  Last RMS-Density change    ...    4.5946e-05  Tolerance :   1.0000e-06
  Last DIIS Error            ...    2.5818e-04  Tolerance :   1.0000e-06

             **** THE GBW FILE WAS UPDATED (76_Os_atom76.gbw) ****
             **** DENSITY FILE WAS UPDATED (76_Os_atom76.scfp) ****
             **** ENERGY FILE WAS UPDATED (76_Os_atom76.en.tmp) ****
             **** THE GBW FILE WAS UPDATED (76_Os_atom76.gbw) ****
             **** DENSITY FILE WAS UPDATED (76_Os_atom76.scfp) ****
----------------
ORBITAL ENERGIES
----------------

  NO   OCC          E(Eh)            E(eV) 
   0   2.0000      -4.341847      -118.1477 
   1   2.0000      -2.588521       -70.4372 
   2   2.0000      -2.574416       -70.0534 
   3   2.0000      -2.574383       -70.0525 
   4   2.0000      -0.719507       -19.5788 
   5   1.2000      -0.707263       -19.2456 
   6   1.2000      -0.707258       -19.2455 
   7   1.2000      -0.530297       -14.4301 
   8   1.2000      -0.225548        -6.1375 
   9   1.2000      -0.225413        -6.1338 
  10   0.0000      -0.296434        -8.0664 
  11   0.0000      -0.296330        -8.0636 
  12   0.0000      -0.061019        -1.6604 
  13   0.0000       0.039449         1.0735 
  14   0.0000       0.044358         1.2070 
  15   0.0000       0.044387         1.2078 
  16   0.0000       0.100539         2.7358 
  17   0.0000       0.224679         6.1138 
  18   0.0000       0.225524         6.1368 
  19   0.0000       0.225525         6.1368 
  20   0.0000       0.238797         6.4980 
  21   0.0000       0.238817         6.4985 
  22   0.0000       0.552658        15.0386 
  23   0.0000       0.547676        14.9030 
  24   0.0000       0.547838        14.9074 
  25   0.0000       1.234043        33.5800 
  26   0.0000       1.259325        34.2680 
  27   0.0000       1.259402        34.2701 
  28   0.0000       1.246806        33.9273 
  29   0.0000       1.246807        33.9273 
  30   0.0000       1.725009        46.9399 
  31   0.0000      29.980862       815.8207 
  32   0.0000      29.997031       816.2607 
  33   0.0000      29.997176       816.2647 
  34   0.0000      62.534417      1701.6480 
  35   0.0000     437.522694     11905.5978 
CleanUpVectors: The p-vectors have cracked symmetry
CleanUpVectors: The p-vectors have cracked symmetry
CleanUpVectors: The p-vectors have cracked symmetry
CleanUpVectors: The d-vectors have cracked symmetry at i=4
CleanUpVectors: The d-vectors have cracked symmetry at i=5
CleanUpVectors: The d-vectors have cracked symmetry at i=6
CleanUpVectors: The p-vectors have cracked symmetry
CleanUpVectors: The p-vectors have cracked symmetry
CleanUpVectors: The d-vectors have cracked symmetry at i=10
CleanUpVectors: The d-vectors have cracked symmetry at i=11
CleanUpVectors: The p-vectors have cracked symmetry
CleanUpVectors: The p-vectors have cracked symmetry
CleanUpVectors: The p-vectors have cracked symmetry
CleanUpVectors: The p-vectors have cracked symmetry
CleanUpVectors: The d-vectors have cracked symmetry at i=17
CleanUpVectors: The d-vectors have cracked symmetry at i=18
CleanUpVectors: The d-vectors have cracked symmetry at i=19
CleanUpVectors: The d-vectors have cracked symmetry at i=20
CleanUpVectors: The d-vectors have cracked symmetry at i=21
CleanUpVectors: The p-vectors have cracked symmetry
CleanUpVectors: The p-vectors have cracked symmetry
CleanUpVectors: The p-vectors have cracked symmetry
CleanUpVectors: The d-vectors have cracked symmetry at i=25
CleanUpVectors: The d-vectors have cracked symmetry at i=26
CleanUpVectors: The d-vectors have cracked symmetry at i=27
CleanUpVectors: The d-vectors have cracked symmetry at i=28
CleanUpVectors: The d-vectors have cracked symmetry at i=29
CleanUpVectors: The p-vectors have cracked symmetry
CleanUpVectors: The p-vectors have cracked symmetry
CleanUpVectors: The p-vectors have cracked symmetry
--------------------------
ATOM BASIS FOR ELEMENT Os
--------------------------
 NewGTO Os
 S 8
    1         30.000000000000        -0.325263185227
    2         27.000000000000         0.483890313748
    3         13.524730005000        -0.479276154299
    4          5.240288347200         0.898104835855
    5          1.130666124500        -0.983713675480
    6          0.516899669200        -0.361806688616
    7          0.132229535400        -0.001258305340
    8          0.047220318800        -0.000127244269
 P 22
    1         30.000000000000         0.000000001897
    2         27.000000000000        -0.000000002975
    3         13.524730005000         0.000000004164
    4          5.240288347200        -0.000000013034
    5         15.500000000000        -0.116946676514
    6         14.000000000000         0.169409478014
    7          5.545829042000        -0.217389135796
    8          1.413950221500         0.396138382431
    9         15.500000000000         0.100759433916
   10         14.000000000000        -0.145960566075
   11          5.545829042000         0.187299091475
   12          1.413950221500        -0.341306656637
   13         15.500000000000         0.051371325260
   14         14.000000000000        -0.074416731253
   15          5.545829042000         0.095492820624
   16          1.413950221500        -0.174012244711
   17          0.681366867600         0.368897647464
   18          0.681366867600        -0.317836463926
   19          0.681366867600        -0.162046170103
   20          0.309114526500         0.072716021278
   21          0.309114526500        -0.062650990682
   22          0.309114526500        -0.031942065324
 D 22
    1         30.000000000000         0.000179497157
    2         27.000000000000        -0.000296706516
    3         13.524730005000         0.000586679802
    4          5.240288347200        -0.002994886024
    5          1.130666124500         0.024137810784
    6          0.516899669200         0.008751638394
    7          0.132229535400        -0.280007681910
    8          0.047220318800        -0.052773104945
    9         15.500000000000         0.000000001519
   10         14.000000000000        -0.000000002315
   11          5.545829042000         0.000000004719
   12         15.500000000000        -0.000000001308
   13         14.000000000000         0.000000001994
   14          5.545829042000        -0.000000004066
   15         15.500000000000        -0.000000000667
   16         14.000000000000         0.000000001017
   17          5.545829042000        -0.000000002073
   18          8.294505948700        -0.010524701347
   19          6.306039743000         0.024849249627
   20          1.489010911000        -0.083345282144
   21          0.673153906100        -0.133675989808
   22          8.294505948700         0.029583875066
 S 8
    1         30.000000000000        -2.079194640871
    2         27.000000000000         3.093194043500
    3         13.524730005000        -3.063698742356
    4          5.240288347200         3.376200375885
    5          1.130666124500        -1.947650116364
    6          0.516899669200         1.321648708156
    7          0.132229535400        -0.438621724811
    8          0.047220318800         0.159902309106
 S 8
    1         30.000000000000        -1.940877852596
    2         27.000000000000         2.887421742439
    3         13.524730005000        -2.859888593006
    4          5.240288347200         1.358712215961
    5          1.130666124500        -0.626420904049
    6          0.516899669200         0.417076747564
    7          0.132229535400        -0.137972008056
    8          0.047220318800         0.050392979027
 D 22
    1         15.500000000000         0.000000000655
    2         14.000000000000        -0.000000000999
    3          5.545829042000         0.000000002036
    4         15.500000000000        -0.000000000565
    5         14.000000000000         0.000000000861
    6          5.545829042000        -0.000000001755
    7         14.000000000000         0.000000000439
    8          8.294505948700        -0.011192042001
    9          6.306039743000         0.026424868161
   10          1.489010911000        -0.088629963705
   11          0.673153906100        -0.142151994932
   12          8.294505948700        -0.020452449165
   13          6.306039743000         0.048289067597
   14          1.489010911000        -0.161963279529
   15          0.673153906100        -0.259769973137
   16          8.294505948700         0.010695107843
   17          6.306039743000        -0.025251586322
   18          1.489010911000         0.084694733976
   19          0.673153906100         0.135840351182
   20          8.294505948700        -0.027659354257
   21          6.306039743000         0.065304864794
   22          1.489010911000        -0.219034878856
 P 22
    1         30.000000000000         0.000000003580
    2         27.000000000000        -0.000000005614
    3         13.524730005000         0.000000007856
    4          5.240288347200        -0.000000025098
    5          1.130666124500         0.000000092591
    6          0.132229535400        -0.000000896208
    7         15.500000000000        -0.025406576339
    8         14.000000000000         0.036804079978
    9          5.545829042000        -0.047227624063
   10          1.413950221500         0.086060761656
   11         15.500000000000         0.021889910222
   12         14.000000000000        -0.031709821732
   13          5.545829042000         0.040690584869
   14          1.413950221500        -0.074148611020
   15         15.500000000000         0.011160381259
   16         14.000000000000        -0.016166978146
   17          5.545829042000         0.020745742498
   18          1.413950221500        -0.037804027535
   19          0.681366867600         0.183965884724
   20          0.681366867600        -0.158502139243
   21          0.681366867600        -0.080810943779
   22          0.309114526500        -0.180165720679
 P 22
    1         15.500000000000        -0.009713654824
    2         14.000000000000         0.014071243770
    3          5.545829042000        -0.018056460350
    4          1.413950221500         0.032903470402
    5         15.500000000000        -0.006341967758
    6         14.000000000000         0.009187002825
    7          5.545829042000        -0.011788918944
    8          1.413950221500         0.021482413387
    9         15.500000000000        -0.009674007152
   10         14.000000000000         0.014013809976
   11          5.545829042000        -0.017982760325
   12          1.413950221500         0.032769170183
   13          0.681366867600         0.063295622675
   14          0.681366867600         0.041325207198
   15          0.681366867600         0.063037272540
   16          0.309114526500        -0.043900847445
   17          0.309114526500        -0.028662513146
   18          0.309114526500        -0.043721659861
   19          0.052000000000        -0.654497584493
   20          0.052000000000        -0.427316252534
   21          0.052000000000        -0.651826158919
   22          8.294505948700         0.000000009266
 D 22
    1         30.000000000000        -0.000000098258
    2         27.000000000000         0.000000162419
    3         13.524730005000        -0.000000321152
    4          5.240288347200         0.000001656148
    5          1.130666124500        -0.000015577116
    6          0.516899669200         0.000007780847
    7          0.132229535400         0.000150272917
    8          0.047220318800        -0.000230702274
    9         15.500000000000         0.000000000491
   10         14.000000000000        -0.000000000749
   11         15.500000000000        -0.000000000423
   12         14.000000000000         0.000000000645
   13          8.294505948700        -0.003884989982
   14          6.306039743000         0.009172619982
   15          1.489010911000        -0.030765299229
   16          0.673153906100        -0.049343906701
   17          8.294505948700        -0.001235815671
   18          6.306039743000         0.002917811261
   19          1.489010911000        -0.009786444519
   20          0.673153906100        -0.015696301268
   21          8.294505948700        -0.007784885257
   22          6.306039743000         0.018380431966
 P 22
    1         15.500000000000         0.024321781696
    2         14.000000000000        -0.035232641613
    3          5.545829042000         0.045211127512
    4          1.413950221500        -0.082386191263
    5         15.500000000000         0.061103001241
    6         14.000000000000        -0.088514080552
    7          5.545829042000         0.113582780034
    8          1.413950221500        -0.206976758935
    9         15.500000000000        -0.064478622316
   10         14.000000000000         0.093404020321
   11          5.545829042000        -0.119857634268
   12          1.413950221500         0.218411141786
   13          0.681366867600        -0.274729858898
   14          0.681366867600        -0.690196923844
   15          0.681366867600         0.728326692186
   16          0.309114526500         0.493555745646
   17          0.309114526500         1.239947702651
   18          0.309114526500        -1.308448324756
   19          0.052000000000        -0.327594491758
   20          0.052000000000        -0.823007413123
   21          0.052000000000         0.868474266021
   22          8.294505948700         0.000000031793
 D 22
    1         15.500000000000         0.000000000715
    2         14.000000000000        -0.000000001090
    3          5.545829042000         0.000000002222
    4         15.500000000000        -0.000000000565
    5         14.000000000000         0.000000000861
    6          5.545829042000        -0.000000001754
    7         15.500000000000         0.000000002735
    8         14.000000000000        -0.000000004169
    9          5.545829042000         0.000000008500
   10          1.413950221500        -0.000000030676
   11          0.681366867600        -0.000000122398
   12          0.309114526500         0.000000306439
   13          8.294505948700         0.020269442239
   14          6.306039743000        -0.047856980773
   15          1.489010911000         0.160514044690
   16          0.673153906100         0.257445571604
   17          8.294505948700         0.019317317390
   18          6.306039743000        -0.045608975127
   19          1.489010911000         0.152974152433
   20          0.673153906100         0.245352474856
   21          8.294505948700        -0.036164870381
   22          6.306039743000         0.085386735663
 P 22
    1         15.500000000000         0.251259388206
    2         14.000000000000        -0.363975472161
    3          5.545829042000         0.467059542783
    4          1.413950221500        -0.851101464199
    5         15.500000000000         0.631232654316
    6         14.000000000000        -0.914406442833
    7          5.545829042000         1.173381966018
    8          1.413950221500        -2.138200845641
    9         15.500000000000        -0.666104959337
   10         14.000000000000         0.964922619666
   11          5.545829042000        -1.238205186974
   12          1.413950221500         2.256325267082
   13          0.681366867600         1.009706747881
   14          0.681366867600         2.536660918803
   15          0.681366867600        -2.676798176739
   16          0.309114526500        -0.472223182933
   17          0.309114526500        -1.186354449560
   18          0.309114526500         1.251894332430
   19          0.052000000000         0.113146965665
   20          0.052000000000         0.284256281823
   21          0.052000000000        -0.299959955732
   22          0.020765932000        -0.055394949231
 end
  // -----------------------------------------------
  // The basis set
  // -----------------------------------------------
  BAS[ATNO] = new BFNGauss[NSH];
  // Basis function   1 L = s
  InitBFNGauss(BAS[ATNO][  0]);
  BAS[ATNO][  0].l  = 0;
  BAS[ATNO][  0].ng = 8;
  BAS[ATNO][  0].a[  0] =        30.000000000000;     BAS[ATNO][  0].d[  0] =         0.325263185227;
  BAS[ATNO][  0].a[  1] =        27.000000000000;     BAS[ATNO][  0].d[  1] =        -0.483890313748;
  BAS[ATNO][  0].a[  2] =        13.524730005000;     BAS[ATNO][  0].d[  2] =         0.479276154299;
  BAS[ATNO][  0].a[  3] =         5.240288347200;     BAS[ATNO][  0].d[  3] =        -0.898104835855;
  BAS[ATNO][  0].a[  4] =         1.130666124500;     BAS[ATNO][  0].d[  4] =         0.983713675480;
  BAS[ATNO][  0].a[  5] =         0.516899669200;     BAS[ATNO][  0].d[  5] =         0.361806688616;
  BAS[ATNO][  0].a[  6] =         0.132229535400;     BAS[ATNO][  0].d[  6] =         0.001258305340;
  BAS[ATNO][  0].a[  7] =         0.047220318800;     BAS[ATNO][  0].d[  7] =         0.000127244269;

  // Basis function   2 L = p
  InitBFNGauss(BAS[ATNO][  1]);
  BAS[ATNO][  1].l  = 1;
  BAS[ATNO][  1].ng = 22;
  BAS[ATNO][  1].a[  0] =        30.000000000000;     BAS[ATNO][  1].d[  0] =         0.000000001897;
  BAS[ATNO][  1].a[  1] =        27.000000000000;     BAS[ATNO][  1].d[  1] =        -0.000000002975;
  BAS[ATNO][  1].a[  2] =        13.524730005000;     BAS[ATNO][  1].d[  2] =         0.000000004164;
  BAS[ATNO][  1].a[  3] =         5.240288347200;     BAS[ATNO][  1].d[  3] =        -0.000000013034;
  BAS[ATNO][  1].a[  4] =        15.500000000000;     BAS[ATNO][  1].d[  4] =        -0.116946676514;
  BAS[ATNO][  1].a[  5] =        14.000000000000;     BAS[ATNO][  1].d[  5] =         0.169409478014;
  BAS[ATNO][  1].a[  6] =         5.545829042000;     BAS[ATNO][  1].d[  6] =        -0.217389135796;
  BAS[ATNO][  1].a[  7] =         1.413950221500;     BAS[ATNO][  1].d[  7] =         0.396138382431;
  BAS[ATNO][  1].a[  8] =        15.500000000000;     BAS[ATNO][  1].d[  8] =         0.100759433916;
  BAS[ATNO][  1].a[  9] =        14.000000000000;     BAS[ATNO][  1].d[  9] =        -0.145960566075;
  BAS[ATNO][  1].a[ 10] =         5.545829042000;     BAS[ATNO][  1].d[ 10] =         0.187299091475;
  BAS[ATNO][  1].a[ 11] =         1.413950221500;     BAS[ATNO][  1].d[ 11] =        -0.341306656637;
  BAS[ATNO][  1].a[ 12] =        15.500000000000;     BAS[ATNO][  1].d[ 12] =         0.051371325260;
  BAS[ATNO][  1].a[ 13] =        14.000000000000;     BAS[ATNO][  1].d[ 13] =        -0.074416731253;
  BAS[ATNO][  1].a[ 14] =         5.545829042000;     BAS[ATNO][  1].d[ 14] =         0.095492820624;
  BAS[ATNO][  1].a[ 15] =         1.413950221500;     BAS[ATNO][  1].d[ 15] =        -0.174012244711;
  BAS[ATNO][  1].a[ 16] =         0.681366867600;     BAS[ATNO][  1].d[ 16] =         0.368897647464;
  BAS[ATNO][  1].a[ 17] =         0.681366867600;     BAS[ATNO][  1].d[ 17] =        -0.317836463926;
  BAS[ATNO][  1].a[ 18] =         0.681366867600;     BAS[ATNO][  1].d[ 18] =        -0.162046170103;
  BAS[ATNO][  1].a[ 19] =         0.309114526500;     BAS[ATNO][  1].d[ 19] =         0.072716021278;
  BAS[ATNO][  1].a[ 20] =         0.309114526500;     BAS[ATNO][  1].d[ 20] =        -0.062650990682;
  BAS[ATNO][  1].a[ 21] =         0.309114526500;     BAS[ATNO][  1].d[ 21] =        -0.031942065324;

  // Basis function   3 L = d
  InitBFNGauss(BAS[ATNO][  2]);
  BAS[ATNO][  2].l  = 2;
  BAS[ATNO][  2].ng = 22;
  BAS[ATNO][  2].a[  0] =        30.000000000000;     BAS[ATNO][  2].d[  0] =        -0.000179497157;
  BAS[ATNO][  2].a[  1] =        27.000000000000;     BAS[ATNO][  2].d[  1] =         0.000296706516;
  BAS[ATNO][  2].a[  2] =        13.524730005000;     BAS[ATNO][  2].d[  2] =        -0.000586679802;
  BAS[ATNO][  2].a[  3] =         5.240288347200;     BAS[ATNO][  2].d[  3] =         0.002994886024;
  BAS[ATNO][  2].a[  4] =         1.130666124500;     BAS[ATNO][  2].d[  4] =        -0.024137810784;
  BAS[ATNO][  2].a[  5] =         0.516899669200;     BAS[ATNO][  2].d[  5] =        -0.008751638394;
  BAS[ATNO][  2].a[  6] =         0.132229535400;     BAS[ATNO][  2].d[  6] =         0.280007681910;
  BAS[ATNO][  2].a[  7] =         0.047220318800;     BAS[ATNO][  2].d[  7] =         0.052773104945;
  BAS[ATNO][  2].a[  8] =        15.500000000000;     BAS[ATNO][  2].d[  8] =        -0.000000001519;
  BAS[ATNO][  2].a[  9] =        14.000000000000;     BAS[ATNO][  2].d[  9] =         0.000000002315;
  BAS[ATNO][  2].a[ 10] =         5.545829042000;     BAS[ATNO][  2].d[ 10] =        -0.000000004719;
  BAS[ATNO][  2].a[ 11] =        15.500000000000;     BAS[ATNO][  2].d[ 11] =         0.000000001308;
  BAS[ATNO][  2].a[ 12] =        14.000000000000;     BAS[ATNO][  2].d[ 12] =        -0.000000001994;
  BAS[ATNO][  2].a[ 13] =         5.545829042000;     BAS[ATNO][  2].d[ 13] =         0.000000004066;
  BAS[ATNO][  2].a[ 14] =        15.500000000000;     BAS[ATNO][  2].d[ 14] =         0.000000000667;
  BAS[ATNO][  2].a[ 15] =        14.000000000000;     BAS[ATNO][  2].d[ 15] =        -0.000000001017;
  BAS[ATNO][  2].a[ 16] =         5.545829042000;     BAS[ATNO][  2].d[ 16] =         0.000000002073;
  BAS[ATNO][  2].a[ 17] =         8.294505948700;     BAS[ATNO][  2].d[ 17] =         0.010524701347;
  BAS[ATNO][  2].a[ 18] =         6.306039743000;     BAS[ATNO][  2].d[ 18] =        -0.024849249627;
  BAS[ATNO][  2].a[ 19] =         1.489010911000;     BAS[ATNO][  2].d[ 19] =         0.083345282144;
  BAS[ATNO][  2].a[ 20] =         0.673153906100;     BAS[ATNO][  2].d[ 20] =         0.133675989808;
  BAS[ATNO][  2].a[ 21] =         8.294505948700;     BAS[ATNO][  2].d[ 21] =        -0.029583875066;

  // Basis function   4 L = s
  InitBFNGauss(BAS[ATNO][  3]);
  BAS[ATNO][  3].l  = 0;
  BAS[ATNO][  3].ng = 8;
  BAS[ATNO][  3].a[  0] =        30.000000000000;     BAS[ATNO][  3].d[  0] =        -2.079194640871;
  BAS[ATNO][  3].a[  1] =        27.000000000000;     BAS[ATNO][  3].d[  1] =         3.093194043500;
  BAS[ATNO][  3].a[  2] =        13.524730005000;     BAS[ATNO][  3].d[  2] =        -3.063698742356;
  BAS[ATNO][  3].a[  3] =         5.240288347200;     BAS[ATNO][  3].d[  3] =         3.376200375885;
  BAS[ATNO][  3].a[  4] =         1.130666124500;     BAS[ATNO][  3].d[  4] =        -1.947650116364;
  BAS[ATNO][  3].a[  5] =         0.516899669200;     BAS[ATNO][  3].d[  5] =         1.321648708156;
  BAS[ATNO][  3].a[  6] =         0.132229535400;     BAS[ATNO][  3].d[  6] =        -0.438621724811;
  BAS[ATNO][  3].a[  7] =         0.047220318800;     BAS[ATNO][  3].d[  7] =         0.159902309106;

  // Basis function   5 L = s
  InitBFNGauss(BAS[ATNO][  4]);
  BAS[ATNO][  4].l  = 0;
  BAS[ATNO][  4].ng = 8;
  BAS[ATNO][  4].a[  0] =        30.000000000000;     BAS[ATNO][  4].d[  0] =        -1.940877852596;
  BAS[ATNO][  4].a[  1] =        27.000000000000;     BAS[ATNO][  4].d[  1] =         2.887421742439;
  BAS[ATNO][  4].a[  2] =        13.524730005000;     BAS[ATNO][  4].d[  2] =        -2.859888593006;
  BAS[ATNO][  4].a[  3] =         5.240288347200;     BAS[ATNO][  4].d[  3] =         1.358712215961;
  BAS[ATNO][  4].a[  4] =         1.130666124500;     BAS[ATNO][  4].d[  4] =        -0.626420904049;
  BAS[ATNO][  4].a[  5] =         0.516899669200;     BAS[ATNO][  4].d[  5] =         0.417076747564;
  BAS[ATNO][  4].a[  6] =         0.132229535400;     BAS[ATNO][  4].d[  6] =        -0.137972008056;
  BAS[ATNO][  4].a[  7] =         0.047220318800;     BAS[ATNO][  4].d[  7] =         0.050392979027;

  // Basis function   6 L = d
  InitBFNGauss(BAS[ATNO][  5]);
  BAS[ATNO][  5].l  = 2;
  BAS[ATNO][  5].ng = 22;
  BAS[ATNO][  5].a[  0] =        15.500000000000;     BAS[ATNO][  5].d[  0] =        -0.000000000655;
  BAS[ATNO][  5].a[  1] =        14.000000000000;     BAS[ATNO][  5].d[  1] =         0.000000000999;
  BAS[ATNO][  5].a[  2] =         5.545829042000;     BAS[ATNO][  5].d[  2] =        -0.000000002036;
  BAS[ATNO][  5].a[  3] =        15.500000000000;     BAS[ATNO][  5].d[  3] =         0.000000000565;
  BAS[ATNO][  5].a[  4] =        14.000000000000;     BAS[ATNO][  5].d[  4] =        -0.000000000861;
  BAS[ATNO][  5].a[  5] =         5.545829042000;     BAS[ATNO][  5].d[  5] =         0.000000001755;
  BAS[ATNO][  5].a[  6] =        14.000000000000;     BAS[ATNO][  5].d[  6] =        -0.000000000439;
  BAS[ATNO][  5].a[  7] =         8.294505948700;     BAS[ATNO][  5].d[  7] =         0.011192042001;
  BAS[ATNO][  5].a[  8] =         6.306039743000;     BAS[ATNO][  5].d[  8] =        -0.026424868161;
  BAS[ATNO][  5].a[  9] =         1.489010911000;     BAS[ATNO][  5].d[  9] =         0.088629963705;
  BAS[ATNO][  5].a[ 10] =         0.673153906100;     BAS[ATNO][  5].d[ 10] =         0.142151994932;
  BAS[ATNO][  5].a[ 11] =         8.294505948700;     BAS[ATNO][  5].d[ 11] =         0.020452449165;
  BAS[ATNO][  5].a[ 12] =         6.306039743000;     BAS[ATNO][  5].d[ 12] =        -0.048289067597;
  BAS[ATNO][  5].a[ 13] =         1.489010911000;     BAS[ATNO][  5].d[ 13] =         0.161963279529;
  BAS[ATNO][  5].a[ 14] =         0.673153906100;     BAS[ATNO][  5].d[ 14] =         0.259769973137;
  BAS[ATNO][  5].a[ 15] =         8.294505948700;     BAS[ATNO][  5].d[ 15] =        -0.010695107843;
  BAS[ATNO][  5].a[ 16] =         6.306039743000;     BAS[ATNO][  5].d[ 16] =         0.025251586322;
  BAS[ATNO][  5].a[ 17] =         1.489010911000;     BAS[ATNO][  5].d[ 17] =        -0.084694733976;
  BAS[ATNO][  5].a[ 18] =         0.673153906100;     BAS[ATNO][  5].d[ 18] =        -0.135840351182;
  BAS[ATNO][  5].a[ 19] =         8.294505948700;     BAS[ATNO][  5].d[ 19] =         0.027659354257;
  BAS[ATNO][  5].a[ 20] =         6.306039743000;     BAS[ATNO][  5].d[ 20] =        -0.065304864794;
  BAS[ATNO][  5].a[ 21] =         1.489010911000;     BAS[ATNO][  5].d[ 21] =         0.219034878856;

  // Basis function   7 L = p
  InitBFNGauss(BAS[ATNO][  6]);
  BAS[ATNO][  6].l  = 1;
  BAS[ATNO][  6].ng = 22;
  BAS[ATNO][  6].a[  0] =        30.000000000000;     BAS[ATNO][  6].d[  0] =         0.000000003580;
  BAS[ATNO][  6].a[  1] =        27.000000000000;     BAS[ATNO][  6].d[  1] =        -0.000000005614;
  BAS[ATNO][  6].a[  2] =        13.524730005000;     BAS[ATNO][  6].d[  2] =         0.000000007856;
  BAS[ATNO][  6].a[  3] =         5.240288347200;     BAS[ATNO][  6].d[  3] =        -0.000000025098;
  BAS[ATNO][  6].a[  4] =         1.130666124500;     BAS[ATNO][  6].d[  4] =         0.000000092591;
  BAS[ATNO][  6].a[  5] =         0.132229535400;     BAS[ATNO][  6].d[  5] =        -0.000000896208;
  BAS[ATNO][  6].a[  6] =        15.500000000000;     BAS[ATNO][  6].d[  6] =        -0.025406576339;
  BAS[ATNO][  6].a[  7] =        14.000000000000;     BAS[ATNO][  6].d[  7] =         0.036804079978;
  BAS[ATNO][  6].a[  8] =         5.545829042000;     BAS[ATNO][  6].d[  8] =        -0.047227624063;
  BAS[ATNO][  6].a[  9] =         1.413950221500;     BAS[ATNO][  6].d[  9] =         0.086060761656;
  BAS[ATNO][  6].a[ 10] =        15.500000000000;     BAS[ATNO][  6].d[ 10] =         0.021889910222;
  BAS[ATNO][  6].a[ 11] =        14.000000000000;     BAS[ATNO][  6].d[ 11] =        -0.031709821732;
  BAS[ATNO][  6].a[ 12] =         5.545829042000;     BAS[ATNO][  6].d[ 12] =         0.040690584869;
  BAS[ATNO][  6].a[ 13] =         1.413950221500;     BAS[ATNO][  6].d[ 13] =        -0.074148611020;
  BAS[ATNO][  6].a[ 14] =        15.500000000000;     BAS[ATNO][  6].d[ 14] =         0.011160381259;
  BAS[ATNO][  6].a[ 15] =        14.000000000000;     BAS[ATNO][  6].d[ 15] =        -0.016166978146;
  BAS[ATNO][  6].a[ 16] =         5.545829042000;     BAS[ATNO][  6].d[ 16] =         0.020745742498;
  BAS[ATNO][  6].a[ 17] =         1.413950221500;     BAS[ATNO][  6].d[ 17] =        -0.037804027535;
  BAS[ATNO][  6].a[ 18] =         0.681366867600;     BAS[ATNO][  6].d[ 18] =         0.183965884724;
  BAS[ATNO][  6].a[ 19] =         0.681366867600;     BAS[ATNO][  6].d[ 19] =        -0.158502139243;
  BAS[ATNO][  6].a[ 20] =         0.681366867600;     BAS[ATNO][  6].d[ 20] =        -0.080810943779;
  BAS[ATNO][  6].a[ 21] =         0.309114526500;     BAS[ATNO][  6].d[ 21] =        -0.180165720679;

  // Basis function   8 L = p
  InitBFNGauss(BAS[ATNO][  7]);
  BAS[ATNO][  7].l  = 1;
  BAS[ATNO][  7].ng = 22;
  BAS[ATNO][  7].a[  0] =        15.500000000000;     BAS[ATNO][  7].d[  0] =         0.009713654824;
  BAS[ATNO][  7].a[  1] =        14.000000000000;     BAS[ATNO][  7].d[  1] =        -0.014071243770;
  BAS[ATNO][  7].a[  2] =         5.545829042000;     BAS[ATNO][  7].d[  2] =         0.018056460350;
  BAS[ATNO][  7].a[  3] =         1.413950221500;     BAS[ATNO][  7].d[  3] =        -0.032903470402;
  BAS[ATNO][  7].a[  4] =        15.500000000000;     BAS[ATNO][  7].d[  4] =         0.006341967758;
  BAS[ATNO][  7].a[  5] =        14.000000000000;     BAS[ATNO][  7].d[  5] =        -0.009187002825;
  BAS[ATNO][  7].a[  6] =         5.545829042000;     BAS[ATNO][  7].d[  6] =         0.011788918944;
  BAS[ATNO][  7].a[  7] =         1.413950221500;     BAS[ATNO][  7].d[  7] =        -0.021482413387;
  BAS[ATNO][  7].a[  8] =        15.500000000000;     BAS[ATNO][  7].d[  8] =         0.009674007152;
  BAS[ATNO][  7].a[  9] =        14.000000000000;     BAS[ATNO][  7].d[  9] =        -0.014013809976;
  BAS[ATNO][  7].a[ 10] =         5.545829042000;     BAS[ATNO][  7].d[ 10] =         0.017982760325;
  BAS[ATNO][  7].a[ 11] =         1.413950221500;     BAS[ATNO][  7].d[ 11] =        -0.032769170183;
  BAS[ATNO][  7].a[ 12] =         0.681366867600;     BAS[ATNO][  7].d[ 12] =        -0.063295622675;
  BAS[ATNO][  7].a[ 13] =         0.681366867600;     BAS[ATNO][  7].d[ 13] =        -0.041325207198;
  BAS[ATNO][  7].a[ 14] =         0.681366867600;     BAS[ATNO][  7].d[ 14] =        -0.063037272540;
  BAS[ATNO][  7].a[ 15] =         0.309114526500;     BAS[ATNO][  7].d[ 15] =         0.043900847445;
  BAS[ATNO][  7].a[ 16] =         0.309114526500;     BAS[ATNO][  7].d[ 16] =         0.028662513146;
  BAS[ATNO][  7].a[ 17] =         0.309114526500;     BAS[ATNO][  7].d[ 17] =         0.043721659861;
  BAS[ATNO][  7].a[ 18] =         0.052000000000;     BAS[ATNO][  7].d[ 18] =         0.654497584493;
  BAS[ATNO][  7].a[ 19] =         0.052000000000;     BAS[ATNO][  7].d[ 19] =         0.427316252534;
  BAS[ATNO][  7].a[ 20] =         0.052000000000;     BAS[ATNO][  7].d[ 20] =         0.651826158919;
  BAS[ATNO][  7].a[ 21] =         8.294505948700;     BAS[ATNO][  7].d[ 21] =        -0.000000009266;

  // Basis function   9 L = d
  InitBFNGauss(BAS[ATNO][  8]);
  BAS[ATNO][  8].l  = 2;
  BAS[ATNO][  8].ng = 22;
  BAS[ATNO][  8].a[  0] =        30.000000000000;     BAS[ATNO][  8].d[  0] =         0.000000098258;
  BAS[ATNO][  8].a[  1] =        27.000000000000;     BAS[ATNO][  8].d[  1] =        -0.000000162419;
  BAS[ATNO][  8].a[  2] =        13.524730005000;     BAS[ATNO][  8].d[  2] =         0.000000321152;
  BAS[ATNO][  8].a[  3] =         5.240288347200;     BAS[ATNO][  8].d[  3] =        -0.000001656148;
  BAS[ATNO][  8].a[  4] =         1.130666124500;     BAS[ATNO][  8].d[  4] =         0.000015577116;
  BAS[ATNO][  8].a[  5] =         0.516899669200;     BAS[ATNO][  8].d[  5] =        -0.000007780847;
  BAS[ATNO][  8].a[  6] =         0.132229535400;     BAS[ATNO][  8].d[  6] =        -0.000150272917;
  BAS[ATNO][  8].a[  7] =         0.047220318800;     BAS[ATNO][  8].d[  7] =         0.000230702274;
  BAS[ATNO][  8].a[  8] =        15.500000000000;     BAS[ATNO][  8].d[  8] =        -0.000000000491;
  BAS[ATNO][  8].a[  9] =        14.000000000000;     BAS[ATNO][  8].d[  9] =         0.000000000749;
  BAS[ATNO][  8].a[ 10] =        15.500000000000;     BAS[ATNO][  8].d[ 10] =         0.000000000423;
  BAS[ATNO][  8].a[ 11] =        14.000000000000;     BAS[ATNO][  8].d[ 11] =        -0.000000000645;
  BAS[ATNO][  8].a[ 12] =         8.294505948700;     BAS[ATNO][  8].d[ 12] =         0.003884989982;
  BAS[ATNO][  8].a[ 13] =         6.306039743000;     BAS[ATNO][  8].d[ 13] =        -0.009172619982;
  BAS[ATNO][  8].a[ 14] =         1.489010911000;     BAS[ATNO][  8].d[ 14] =         0.030765299229;
  BAS[ATNO][  8].a[ 15] =         0.673153906100;     BAS[ATNO][  8].d[ 15] =         0.049343906701;
  BAS[ATNO][  8].a[ 16] =         8.294505948700;     BAS[ATNO][  8].d[ 16] =         0.001235815671;
  BAS[ATNO][  8].a[ 17] =         6.306039743000;     BAS[ATNO][  8].d[ 17] =        -0.002917811261;
  BAS[ATNO][  8].a[ 18] =         1.489010911000;     BAS[ATNO][  8].d[ 18] =         0.009786444519;
  BAS[ATNO][  8].a[ 19] =         0.673153906100;     BAS[ATNO][  8].d[ 19] =         0.015696301268;
  BAS[ATNO][  8].a[ 20] =         8.294505948700;     BAS[ATNO][  8].d[ 20] =         0.007784885257;
  BAS[ATNO][  8].a[ 21] =         6.306039743000;     BAS[ATNO][  8].d[ 21] =        -0.018380431966;

  // Basis function  10 L = p
  InitBFNGauss(BAS[ATNO][  9]);
  BAS[ATNO][  9].l  = 1;
  BAS[ATNO][  9].ng = 22;
  BAS[ATNO][  9].a[  0] =        15.500000000000;     BAS[ATNO][  9].d[  0] =        -0.024321781696;
  BAS[ATNO][  9].a[  1] =        14.000000000000;     BAS[ATNO][  9].d[  1] =         0.035232641613;
  BAS[ATNO][  9].a[  2] =         5.545829042000;     BAS[ATNO][  9].d[  2] =        -0.045211127512;
  BAS[ATNO][  9].a[  3] =         1.413950221500;     BAS[ATNO][  9].d[  3] =         0.082386191263;
  BAS[ATNO][  9].a[  4] =        15.500000000000;     BAS[ATNO][  9].d[  4] =        -0.061103001241;
  BAS[ATNO][  9].a[  5] =        14.000000000000;     BAS[ATNO][  9].d[  5] =         0.088514080552;
  BAS[ATNO][  9].a[  6] =         5.545829042000;     BAS[ATNO][  9].d[  6] =        -0.113582780034;
  BAS[ATNO][  9].a[  7] =         1.413950221500;     BAS[ATNO][  9].d[  7] =         0.206976758935;
  BAS[ATNO][  9].a[  8] =        15.500000000000;     BAS[ATNO][  9].d[  8] =         0.064478622316;
  BAS[ATNO][  9].a[  9] =        14.000000000000;     BAS[ATNO][  9].d[  9] =        -0.093404020321;
  BAS[ATNO][  9].a[ 10] =         5.545829042000;     BAS[ATNO][  9].d[ 10] =         0.119857634268;
  BAS[ATNO][  9].a[ 11] =         1.413950221500;     BAS[ATNO][  9].d[ 11] =        -0.218411141786;
  BAS[ATNO][  9].a[ 12] =         0.681366867600;     BAS[ATNO][  9].d[ 12] =         0.274729858898;
  BAS[ATNO][  9].a[ 13] =         0.681366867600;     BAS[ATNO][  9].d[ 13] =         0.690196923844;
  BAS[ATNO][  9].a[ 14] =         0.681366867600;     BAS[ATNO][  9].d[ 14] =        -0.728326692186;
  BAS[ATNO][  9].a[ 15] =         0.309114526500;     BAS[ATNO][  9].d[ 15] =        -0.493555745646;
  BAS[ATNO][  9].a[ 16] =         0.309114526500;     BAS[ATNO][  9].d[ 16] =        -1.239947702651;
  BAS[ATNO][  9].a[ 17] =         0.309114526500;     BAS[ATNO][  9].d[ 17] =         1.308448324756;
  BAS[ATNO][  9].a[ 18] =         0.052000000000;     BAS[ATNO][  9].d[ 18] =         0.327594491758;
  BAS[ATNO][  9].a[ 19] =         0.052000000000;     BAS[ATNO][  9].d[ 19] =         0.823007413123;
  BAS[ATNO][  9].a[ 20] =         0.052000000000;     BAS[ATNO][  9].d[ 20] =        -0.868474266021;
  BAS[ATNO][  9].a[ 21] =         8.294505948700;     BAS[ATNO][  9].d[ 21] =        -0.000000031793;

  // Basis function  11 L = d
  InitBFNGauss(BAS[ATNO][ 10]);
  BAS[ATNO][ 10].l  = 2;
  BAS[ATNO][ 10].ng = 22;
  BAS[ATNO][ 10].a[  0] =        15.500000000000;     BAS[ATNO][ 10].d[  0] =         0.000000000715;
  BAS[ATNO][ 10].a[  1] =        14.000000000000;     BAS[ATNO][ 10].d[  1] =        -0.000000001090;
  BAS[ATNO][ 10].a[  2] =         5.545829042000;     BAS[ATNO][ 10].d[  2] =         0.000000002222;
  BAS[ATNO][ 10].a[  3] =        15.500000000000;     BAS[ATNO][ 10].d[  3] =        -0.000000000565;
  BAS[ATNO][ 10].a[  4] =        14.000000000000;     BAS[ATNO][ 10].d[  4] =         0.000000000861;
  BAS[ATNO][ 10].a[  5] =         5.545829042000;     BAS[ATNO][ 10].d[  5] =        -0.000000001754;
  BAS[ATNO][ 10].a[  6] =        15.500000000000;     BAS[ATNO][ 10].d[  6] =         0.000000002735;
  BAS[ATNO][ 10].a[  7] =        14.000000000000;     BAS[ATNO][ 10].d[  7] =        -0.000000004169;
  BAS[ATNO][ 10].a[  8] =         5.545829042000;     BAS[ATNO][ 10].d[  8] =         0.000000008500;
  BAS[ATNO][ 10].a[  9] =         1.413950221500;     BAS[ATNO][ 10].d[  9] =        -0.000000030676;
  BAS[ATNO][ 10].a[ 10] =         0.681366867600;     BAS[ATNO][ 10].d[ 10] =        -0.000000122398;
  BAS[ATNO][ 10].a[ 11] =         0.309114526500;     BAS[ATNO][ 10].d[ 11] =         0.000000306439;
  BAS[ATNO][ 10].a[ 12] =         8.294505948700;     BAS[ATNO][ 10].d[ 12] =         0.020269442239;
  BAS[ATNO][ 10].a[ 13] =         6.306039743000;     BAS[ATNO][ 10].d[ 13] =        -0.047856980773;
  BAS[ATNO][ 10].a[ 14] =         1.489010911000;     BAS[ATNO][ 10].d[ 14] =         0.160514044690;
  BAS[ATNO][ 10].a[ 15] =         0.673153906100;     BAS[ATNO][ 10].d[ 15] =         0.257445571604;
  BAS[ATNO][ 10].a[ 16] =         8.294505948700;     BAS[ATNO][ 10].d[ 16] =         0.019317317390;
  BAS[ATNO][ 10].a[ 17] =         6.306039743000;     BAS[ATNO][ 10].d[ 17] =        -0.045608975127;
  BAS[ATNO][ 10].a[ 18] =         1.489010911000;     BAS[ATNO][ 10].d[ 18] =         0.152974152433;
  BAS[ATNO][ 10].a[ 19] =         0.673153906100;     BAS[ATNO][ 10].d[ 19] =         0.245352474856;
  BAS[ATNO][ 10].a[ 20] =         8.294505948700;     BAS[ATNO][ 10].d[ 20] =        -0.036164870381;
  BAS[ATNO][ 10].a[ 21] =         6.306039743000;     BAS[ATNO][ 10].d[ 21] =         0.085386735663;

  // Basis function  12 L = p
  InitBFNGauss(BAS[ATNO][ 11]);
  BAS[ATNO][ 11].l  = 1;
  BAS[ATNO][ 11].ng = 22;
  BAS[ATNO][ 11].a[  0] =        15.500000000000;     BAS[ATNO][ 11].d[  0] =        -0.251259388206;
  BAS[ATNO][ 11].a[  1] =        14.000000000000;     BAS[ATNO][ 11].d[  1] =         0.363975472161;
  BAS[ATNO][ 11].a[  2] =         5.545829042000;     BAS[ATNO][ 11].d[  2] =        -0.467059542783;
  BAS[ATNO][ 11].a[  3] =         1.413950221500;     BAS[ATNO][ 11].d[  3] =         0.851101464199;
  BAS[ATNO][ 11].a[  4] =        15.500000000000;     BAS[ATNO][ 11].d[  4] =        -0.631232654316;
  BAS[ATNO][ 11].a[  5] =        14.000000000000;     BAS[ATNO][ 11].d[  5] =         0.914406442833;
  BAS[ATNO][ 11].a[  6] =         5.545829042000;     BAS[ATNO][ 11].d[  6] =        -1.173381966018;
  BAS[ATNO][ 11].a[  7] =         1.413950221500;     BAS[ATNO][ 11].d[  7] =         2.138200845641;
  BAS[ATNO][ 11].a[  8] =        15.500000000000;     BAS[ATNO][ 11].d[  8] =         0.666104959337;
  BAS[ATNO][ 11].a[  9] =        14.000000000000;     BAS[ATNO][ 11].d[  9] =        -0.964922619666;
  BAS[ATNO][ 11].a[ 10] =         5.545829042000;     BAS[ATNO][ 11].d[ 10] =         1.238205186974;
  BAS[ATNO][ 11].a[ 11] =         1.413950221500;     BAS[ATNO][ 11].d[ 11] =        -2.256325267082;
  BAS[ATNO][ 11].a[ 12] =         0.681366867600;     BAS[ATNO][ 11].d[ 12] =        -1.009706747881;
  BAS[ATNO][ 11].a[ 13] =         0.681366867600;     BAS[ATNO][ 11].d[ 13] =        -2.536660918803;
  BAS[ATNO][ 11].a[ 14] =         0.681366867600;     BAS[ATNO][ 11].d[ 14] =         2.676798176739;
  BAS[ATNO][ 11].a[ 15] =         0.309114526500;     BAS[ATNO][ 11].d[ 15] =         0.472223182933;
  BAS[ATNO][ 11].a[ 16] =         0.309114526500;     BAS[ATNO][ 11].d[ 16] =         1.186354449560;
  BAS[ATNO][ 11].a[ 17] =         0.309114526500;     BAS[ATNO][ 11].d[ 17] =        -1.251894332430;
  BAS[ATNO][ 11].a[ 18] =         0.052000000000;     BAS[ATNO][ 11].d[ 18] =        -0.113146965665;
  BAS[ATNO][ 11].a[ 19] =         0.052000000000;     BAS[ATNO][ 11].d[ 19] =        -0.284256281823;
  BAS[ATNO][ 11].a[ 20] =         0.052000000000;     BAS[ATNO][ 11].d[ 20] =         0.299959955732;
  BAS[ATNO][ 11].a[ 21] =         0.020765932000;     BAS[ATNO][ 11].d[ 21] =         0.055394949231;

-------------------------------------------
RADIAL EXPECTATION VALUES <R**-3> TO <R**3>
-------------------------------------------
   0 :     0.000000     1.176559     1.042546     1.040827     1.177821     1.450736
   1 :     1.015699     0.921816     0.916594     1.198947     1.581763     2.298284
   2 :     1.020347     0.925154     0.918574     1.195193     1.569753     2.266457
   3 :     1.020327     0.925140     0.918566     1.195209     1.569801     2.266584
   4 :     0.491344     0.547618     0.691283     1.663715     3.191059    33.631808
   5 :     0.489518     0.543059     0.688257     1.672946     3.233987    36.174882
   6 :     0.000000     0.225072     0.411950     2.766819     8.794426    31.130219
   7 :     0.000000     0.094466     0.247533     4.997958    27.970825   167.474913
   8 :     0.000000     0.624588     0.671038     2.185124     7.017094    31.109803
   9 :     0.000000     5.695017     2.103205     0.582785     0.553455     1.299872
  10 :     0.000000    50.823200     5.729673     0.233836     0.092696     0.137231
  11 :     0.489508     0.543049     0.688250     1.672974     3.234124    36.177720
  12 :     0.084860     0.127773     0.304934     3.978474    18.129678    92.230835
  13 :     0.084743     0.127646     0.304785     3.980165    18.143521    92.318858
  14 :     0.430976     0.491041     0.648214     1.819767     3.931065    50.391757
  15 :     0.430951     0.491019     0.648196     1.819840     3.931438    50.399852
  16 :     0.049774     0.086362     0.249725     4.886676    27.682150   177.541225
  17 :     0.025608     0.045299     0.162136     8.224115    77.424778   782.857194
  18 :     0.009199     0.023163     0.127682     8.932315    85.352492   856.265366
  19 :     0.009224     0.023195     0.127728     8.931689    85.348194   856.257613
  20 :     0.062522     0.105830     0.280878     4.097442    18.072397   417.964228
  21 :     9.730670     3.051904     1.356615     1.422726     3.832482    18.675805
  22 :     0.066664     0.109350     0.283648     4.087979    18.029906   418.517406
  23 :     0.066671     0.109357     0.283654     4.087957    18.029796   418.515093
  24 :     0.093383     0.134957     0.305013     3.999707    17.606496   410.200178
  25 :     0.093392     0.134966     0.305020     3.999682    17.606416   410.199923
  26 :     0.275055     0.296497     0.450815     3.287141    16.313709   116.314678
  27 :     0.251676     0.273891     0.428096     3.490877    17.950725   128.253531
  28 :     0.251788     0.273999     0.428207     3.489798    17.941139   128.173198
  29 :     0.379664     0.399424     0.538106     2.558860     8.472525   169.638579
  30 :     0.416589     0.429983     0.559822     2.488970     8.138121   162.294799
  31 :     0.416604     0.429997     0.559832     2.488922     8.137828   162.286959
  32 :     0.384765     0.403572     0.541143     2.547519     8.411789   168.194456
  33 :     0.384769     0.403575     0.541145     2.547512     8.411762   168.193921
  34 :     9.730615     3.051909     1.356631     1.422707     3.832738    18.680679
  35 :     9.730671     3.051903     1.356615     1.422728     3.832491    18.675869
Making the total density                ... o.k.
o.k.
Initializing the integrals              ... done
Making exponents                        ... done
Making rho(0)                           ... done (         0.000049416)
Integral calculation                    ... Two index integrals                     ... done
Solving the equation system             ... done
atomic density will be written to file 76_Os_atom76.adf

-------
TIMINGS
-------

Total SCF time: 0 days 0 hours 0 min 1 sec 

Total time                  ....       1.187 sec
Sum of individual times     ....       0.755 sec  ( 63.6%)

Fock matrix formation       ....       0.590 sec  ( 49.7%)
Diagonalization             ....       0.084 sec  (  7.1%)
Density matrix formation    ....       0.001 sec  (  0.1%)
Population analysis         ....       0.000 sec  (  0.0%)
Initial guess               ....       0.000 sec  (  0.0%)
Orbital Transformation      ....       0.000 sec  (  0.0%)
Orbital Orthonormalization  ....       0.000 sec  (  0.0%)
DIIS solution               ....       0.078 sec  (  6.6%)

-------------------------   --------------------
FINAL SINGLE POINT ENERGY       -89.217441961864
-------------------------   --------------------


                            ***************************************
                            *     ORCA property calculations      *
                            ***************************************

                                    ---------------------
                                    Active property flags
                                    ---------------------
   (+) Dipole Moment


------------------------------------------------------------------------------
                       ORCA ELECTRIC PROPERTIES CALCULATION
------------------------------------------------------------------------------

Dipole Moment Calculation                       ... on
Quadrupole Moment Calculation                   ... off
Polarizability Calculation                      ... off
GBWName                                         ... 76_Os_atom76.gbw
Electron density file                           ... 76_Os_atom76.scfp
The origin for moment calculation is the CENTER OF MASS  = ( 0.000000,  0.000000  0.000000)

-------------
DIPOLE MOMENT
-------------
                                X             Y             Z
Electronic contribution:      0.00000       0.00000      -0.00000
Nuclear contribution   :      0.00000       0.00000       0.00000
                        -----------------------------------------
Total Dipole Moment    :      0.00000       0.00000      -0.00000
                        -----------------------------------------
Magnitude (a.u.)       :      0.00001
Magnitude (Debye)      :      0.00002



--------------------
Rotational spectrum 
--------------------
 
Rotational constants in cm-1:     0.000000     0.000000     0.000000 
Rotational constants in MHz :     0.000000     0.000000     0.000000 

 Dipole components along the rotational axes: 
x,y,z [a.u.] :     0.000004     0.000002    -0.000004 
x,y,z [Debye]:     0.000010     0.000005    -0.000011 

 

Timings for individual modules:

Sum of individual times         ...        1.457 sec (=   0.024 min)
GTO integral calculation        ...        0.245 sec (=   0.004 min)  16.8 %
SCF iterations                  ...        1.212 sec (=   0.020 min)  83.2 %
                             ****ORCA TERMINATED NORMALLY****
TOTAL RUN TIME: 0 days 0 hours 0 minutes 1 seconds 651 msec
