
                                 *****************
                                 * O   R   C   A *
                                 *****************

           --- An Ab Initio, DFT and Semiempirical electronic structure package ---

                  #######################################################
                  #                        -***-                        #
                  #          Department of theory and spectroscopy      #
                  #               Directorship: Frank Neese             #
                  #        Max Planck Institute fuer Kohlenforschung    #
                  #                Kaiser Wilhelm Platz 1               #
                  #                 D-45470 Muelheim/Ruhr               #
                  #                      Germany                        #
                  #                                                     #
                  #                  All rights reserved                #
                  #                        -***-                        #
                  #######################################################


                         Program Version 4.2.0 -  RELEASE  -


 With contributions from (in alphabetic order):
   Daniel Aravena         : Magnetic Suceptibility
   Michael Atanasov       : Ab Initio Ligand Field Theory (pilot matlab implementation)
   Alexander A. Auer      : GIAO ZORA, VPT2
   Ute Becker             : Parallelization
   Giovanni Bistoni       : ED, misc. LED, open-shell LED, HFLED
   Martin Brehm           : Molecular dynamics
   Dmytro Bykov           : SCF Hessian
   Vijay G. Chilkuri      : MRCI spin determinant printing, contributions to CSF-ICE
   Dipayan Datta          : RHF DLPNO-CCSD density
   Achintya Kumar Dutta   : EOM-CC, STEOM-CC
   Dmitry Ganyushin       : Spin-Orbit,Spin-Spin,Magnetic field MRCI
   Miquel Garcia          : C-PCM Hessian, Gaussian charge scheme
   Yang Guo               : DLPNO-NEVPT2, CIM, IAO-localization
   Andreas Hansen         : Spin unrestricted coupled pair/coupled cluster methods
   Benjamin Helmich-Paris : CASSCF linear response (MC-RPA)
   Lee Huntington         : MR-EOM, pCC
   Robert Izsak           : Overlap fitted RIJCOSX, COSX-SCS-MP3, EOM
   Christian Kollmar      : KDIIS, OOCD, Brueckner-CCSD(T), CCSD density
   Simone Kossmann        : Meta GGA functionals, TD-DFT gradient, OOMP2, MP2 Hessian
   Martin Krupicka        : AUTO-CI
   Lucas Lang             : DCDCAS
   Dagmar Lenk            : GEPOL surface, SMD
   Dimitrios Liakos       : Extrapolation schemes; Compound Job, initial MDCI parallelization
   Dimitrios Manganas     : Further ROCIS development; embedding schemes
   Dimitrios Pantazis     : SARC Basis sets
   Taras Petrenko         : DFT Hessian,TD-DFT gradient, ASA, ECA, R-Raman, ABS, FL, XAS/XES, NRVS
   Peter Pinski           : DLPNO-MP2, DLPNO-MP2 Gradient
   Christoph Reimann      : Effective Core Potentials
   Marius Retegan         : Local ZFS, SOC
   Christoph Riplinger    : Optimizer, TS searches, QM/MM, DLPNO-CCSD(T), (RO)-DLPNO pert. Triples
   Tobias Risthaus        : Range-separated hybrids, TD-DFT gradient, RPA, STAB
   Michael Roemelt        : Original ROCIS implementation
   Masaaki Saitow         : Open-shell DLPNO-CCSD energy and density
   Barbara Sandhoefer     : DKH picture change effects
   Avijit Sen             : IP-ROCIS
   Kantharuban Sivalingam : CASSCF convergence, NEVPT2, FIC-MRCI
   Bernardo de Souza      : ESD, SOC TD-DFT
   Georgi Stoychev        : AutoAux, RI-MP2 NMR
   Willem Van den Heuvel  : Paramagnetic NMR
   Boris Wezisla          : Elementary symmetry handling
   Frank Wennmohs         : Technical directorship


 We gratefully acknowledge several colleagues who have allowed us to
 interface, adapt or use parts of their codes:
   Stefan Grimme, W. Hujo, H. Kruse,             : VdW corrections, initial TS optimization,
                  C. Bannwarth                     DFT functionals, gCP, sTDA/sTD-DF
   Ed Valeev, F. Pavosevic, A. Kumar             : LibInt (2-el integral package), F12 methods
   Garnet Chan, S. Sharma, J. Yang, R. Olivares  : DMRG
   Ulf Ekstrom                                   : XCFun DFT Library
   Mihaly Kallay                                 : mrcc  (arbitrary order and MRCC methods)
   Andreas Klamt, Michael Diedenhofen            : otool_cosmo (COSMO solvation model)
   Jiri Pittner, Ondrej Demel                    : Mk-CCSD
   Frank Weinhold                                : gennbo (NPA and NBO analysis)
   Christopher J. Cramer and Donald G. Truhlar   : smd solvation model
   Lars Goerigk                                  : TD-DFT with DH, B97 family of functionals
   V. Asgeirsson, H. Jonsson                     : NEB implementation
   FAccTs GmbH                                   : IRC, NEB, NEB-TS, Multilevel, MM, QM/MM, CI optimization
   S Lehtola, MJT Oliveira, MAL Marques          : LibXC Library


 Your calculation uses the libint2 library for the computation of 2-el integrals
 For citations please refer to: http://libint.valeyev.net

 Your ORCA version has been built with support for libXC version: 4.2.3
 For citations please refer to: https://tddft.org/programs/libxc/

 This ORCA versions uses:
   CBLAS   interface :  Fast vector & matrix operations
   LAPACKE interface :  Fast linear algebra routines
   SCALAPACK package :  Parallel linear algebra routines


Setting NCore(Pt) from 46 to 60
----- Orbital basis set information -----
Your calculation utilizes the basis: def2-TZVPPD
   F. Weigend and R. Ahlrichs, Phys. Chem. Chem. Phys. 7, 3297 (2005).
   D. Rappoport and F. Furche, J. Chem. Phys. 133 134105 (2010).

cite the ECPs for Pt [Def2-ECP] as follows:
Ce-Yb(ecp-28): M. Dolg, H. Stoll, H.Preuss, J. Chem. Phys., 1989, 90, 1730-1734.
Y-Cd(ecp-28), Hf-Hg(ecp-46): D. Andrae,U. Haeussermann, M. Dolg, H. Stoll, H. Preuss, Theor. Chim. Acta, 1990, 77, 123-141.
In-Sb(ecp-28), Tl-Bi(ecp-46): B. Metz, H. Stoll, M. Dolg, J. Chem. Phys., 2000, 113, 2563-2569.
Te-Xe(ecp-28), Po-Rn(ecp-46): K. A. Peterson, D. Figgen, E. Goll, H. Stoll, M. Dolg, J. Chem. Phys., 2003, 119, 11113-11123.
Rb(ecp-28), Cs(ecp-46): T. Leininger, A. Nicklass, W. Kuechle, H. Stoll, M. Dolg, A. Bergner, Chem. Phys. Lett., 1996, 255, 274-280.
Sr(ecp-28), Ba(ecp-46): M. Kaupp, P. V. Schleyer, H. Stoll and H. Preuss, J. Chem. Phys., 1991, 94, 1360-1366.
La(ecp-46): M. Dolg, H. Stoll, A. Savin, H. Preuss, Theor. Chim. Acta, 1989, 75, 173-194.
Lu(ecp-28): X. Cao, M. Dolg, J. Chem. Phys., 2001, 115, 7348-7355.

ECP parameters for Pt [Def2-ECP] have been obtained from:
TURBOMOLE (7.0.2)

================================================================================
                                        WARNINGS
                       Please study these warnings very carefully!
================================================================================


WARNING: your system is open-shell and RHF/RKS was chosen
  ===> : WILL SWITCH to UHF/UKS


WARNING: MDCI localization with Augmented Hessian Foster-Boys
  ===> : Switching off randomization!

WARNING: Post HF methods need fully converged wavefunctions
  ===> : Setting SCFConvForced true
         You can overwrite this default with %scf ConvForced false 


INFO   : the flag for use of LIBINT has been found!

================================================================================
                                       INPUT FILE
================================================================================
NAME = 78_Pt.in
|  1> #
|  2> # 78_Pt CCSD(T)/Def2-TZVPPD
|  3> #
|  4> ! CCSD(T) Def2-TZVPPD tightscf veryslowconv kdiis
|  5> 
|  6> *xyz 0 3
|  7>  Pt 0.0 0.0 0.0
|  8> *
|  9> 
| 10> %maxcore 5000 
| 11> 
| 12> %pal
| 13> nprocs 24
| 14> end
| 15> 
| 16> %method
| 17> NewNCore Pt 60 end
| 18> end
| 19> 
| 20> 
| 21>                          ****END OF INPUT****
================================================================================

                       ****************************
                       * Single Point Calculation *
                       ****************************

---------------------------------
CARTESIAN COORDINATES (ANGSTROEM)
---------------------------------
  Pt     0.000000    0.000000    0.000000

----------------------------
CARTESIAN COORDINATES (A.U.)
----------------------------
  NO LB      ZA    FRAG     MASS         X           Y           Z
   0 Pt   18.0000*   0   195.090    0.000000    0.000000    0.000000
* core charge reduced due to ECP

--------------------------------
INTERNAL COORDINATES (ANGSTROEM)
--------------------------------
 Pt     0   0   0     0.000000000000     0.00000000     0.00000000

---------------------------
INTERNAL COORDINATES (A.U.)
---------------------------
 Pt     0   0   0     0.000000000000     0.00000000     0.00000000

---------------------
BASIS SET INFORMATION
---------------------
There are 1 groups of distinct atoms

 Group   1 Type Pt  : 8s8p6d2f1g contracted to 6s5p3d2f1g pattern {311111/41111/411/11/1}

Atom   0Pt   basis set group =>   1
-------------------------
ECP PARAMETER INFORMATION
-------------------------

 Group 1, Type Pt ECP Def2-ECP (replacing 60 core electrons, lmax=3)

Atom   0Pt   ECP group =>   1



           ************************************************************
           *        Program running with 24 parallel MPI-processes    *
           *              working on a common directory               *
           ************************************************************
------------------------------------------------------------------------------
                           ORCA GTO INTEGRAL CALCULATION
------------------------------------------------------------------------------

                         BASIS SET STATISTICS AND STARTUP INFO

 # of primitive gaussian shells          ...   25
 # of primitive gaussian functions       ...   85
 # of contracted shells                  ...   17
 # of contracted basis functions         ...   59
 Highest angular momentum                ...    4
 Maximum contraction depth               ...    4
 Integral package used                   ... LIBINT
 Integral threshhold            Thresh   ...  2.500e-11
 Primitive cut-off              TCut     ...  2.500e-12


------------------------------ INTEGRAL EVALUATION ----------------------------


 * One electron integrals 

   ECP integrals                         ... done
 Pre-screening matrix                    ... done
 Shell pair data                         ... done (   0.000 sec)



           ************************************************************
           *        Program running with 24 parallel MPI-processes    *
           *              working on a common directory               *
           ************************************************************
-------------------------------------------------------------------------------
                                 ORCA SCF
-------------------------------------------------------------------------------

------------
SCF SETTINGS
------------
Hamiltonian:
 Ab initio Hamiltonian  Method          .... Hartree-Fock(GTOs)


General Settings:
 Integral files         IntName         .... 78_Pt
 Hartree-Fock type      HFTyp           .... UHF
 Total Charge           Charge          ....    0
 Multiplicity           Mult            ....    3
 Number of Electrons    NEL             ....   18
 Basis Dimension        Dim             ....   59
 Nuclear Repulsion      ENuc            ....      0.0000000000 Eh

Convergence Acceleration:
 DIIS                   CNVDIIS         .... off
 Newton-Raphson         CNVNR           .... off
 SOSCF                  CNVSOSCF        .... off
 Level Shifting         CNVShift        .... off
 Zerner damping         CNVZerner       .... off
 Static damping         CNVDamp         .... off
 Fernandez-Rico         CNVRico         .... off

SCF Procedure:
 Maximum # iterations   MaxIter         ....   125
 SCF integral mode      SCFMode         .... Direct
   Integral package                     .... LIBINT
 Reset frequency        DirectResetFreq ....    20
 Integral Threshold     Thresh          ....  2.500e-11 Eh
 Primitive CutOff       TCut            ....  2.500e-12 Eh

Convergence Tolerance:
 Convergence Check Mode ConvCheckMode   .... Total+1el-Energy
 Convergence forced     ConvForced      .... 1
 Energy Change          TolE            ....  1.000e-08 Eh
 1-El. energy change                    ....  1.000e-05 Eh


Diagonalization of the overlap matrix:
Smallest eigenvalue                        ... 1.668e-02
Time for diagonalization                   ...    0.002 sec
Threshold for overlap eigenvalues          ... 1.000e-08
Number of eigenvalues below threshold      ... 0
Time for construction of square roots      ...    0.108 sec
Total time needed                          ...    0.110 sec

-------------------
DFT GRID GENERATION
-------------------

General Integration Accuracy     IntAcc      ...  4.340
Radial Grid Type                 RadialGrid  ... Gauss-Chebyshev
Angular Grid (max. acc.)         AngularGrid ... Lebedev-110
Angular grid pruning method      GridPruning ... 3 (G Style)
Weight generation scheme         WeightScheme... Becke
Basis function cutoff            BFCut       ...    1.0000e-11
Integration weight cutoff        WCut        ...    1.0000e-14
Grids for H and He will be reduced by one unit

# of grid points (after initial pruning)     ...   3530 (   0.0 sec)
# of grid points (after weights+screening)   ...   3530 (   0.0 sec)
Grid point division into batches done        ...    0.0 sec
Reduced shell lists constructed in    0.0 sec

Total number of grid points                  ...     3530
Total number of batches                      ...       56
Average number of points per batch           ...       63
Average number of grid points per atom       ...     3530
Average number of shells per batch           ...     3.75 (22.06%)
Average number of basis functions per batch  ...     9.75 (16.53%)
Average number of large shells per batch     ...     3.00 (80.00%)
Average number of large basis fcns per batch ...     9.00 (92.31%)
Maximum spatial batch extension              ...  25.56, 38.92, 38.92 au
Average spatial batch extension              ...   1.31,  1.85,  2.08 au

Time for grid setup =    0.050 sec

------------------------------
INITIAL GUESS: MODEL POTENTIAL
------------------------------
Loading Hartree-Fock densities                     ... done
  calling /sw/apps/orca/orca_4_2_0_linux_x86-64_openmpi314/orca 78_Pt_atom78.inp > 78_Pt_atom78.out in order to generate an atomic fitting density for atom 0 (Pt with ECP) on-the-fly... 
    atom 0 (Pt), assumed electronic state with S=3: 1s2 2s2 2p6 3s2 3p6 4s2 3d10 4p6 5s2 4d10 5p6 6s2 4f14 5d8           ... done
Calculating cut-offs                               ... done
Setting up the integral package                    ... done
Initializing the effective Hamiltonian             ... done
Starting the Coulomb interaction                   ... done (   0.0 sec)
Reading the grid                                   ... done
Mapping shells                                     ... done
Starting the XC term evaluation                    ... done (   0.0 sec)
Transforming the Hamiltonian                       ... done (   0.0 sec)
Diagonalizing the Hamiltonian                      ... done (   0.0 sec)
Back transforming the eigenvectors                 ... done (   0.0 sec)
Now organizing SCF variables                       ... done
                      ------------------
                      INITIAL GUESS DONE (   1.5 sec)
                      ------------------
--------------
SCF ITERATIONS
--------------
ITER       Energy         Delta-E        Max-DP      RMS-DP      [F,P]   Gradient Norm
               ***  Starting incremental Fock matrix formation  ***
                             ****Resetting KDIIS****
                             ****Turning on KDIIS(Cayley)****
  0   -118.2456161551   0.000000000000 0.07689117  0.00157990  0.3646931   0.223974885
  1   -118.2858175677  -0.040201412577 0.11376122  0.00226750  0.3254733   0.195902202
  2   -118.3257275622  -0.039909994511 0.18833901  0.00383490  0.2590186   0.157310394
  3   -118.3720672166  -0.046339654359 0.26480528  0.00575543  0.1555764   0.095521540
  4   -118.3996858803  -0.027618663753 0.00777368  0.00017548  0.0013858   0.001303137
  5   -118.3997233231  -0.000037442798 0.00100488  0.00003214  0.0010977   0.000445780
  6   -118.3997299543  -0.000006631163 0.00770994  0.00021412  0.0010009   0.000331349
  7   -118.3997556337  -0.000025679392 0.00159220  0.00005148  0.0002703   0.000143312
  8   -118.3997576991  -0.000002065406 0.00040316  0.00001000  0.0002911   0.000091163
  9   -118.3997582760  -0.000000576937 0.00040904  0.00000855  0.0002921   0.000082397
 10   -118.3997588098  -0.000000533803 0.00016039  0.00000322  0.0002921   0.000081717
 11   -118.3997590162  -0.000000206346 0.00420356  0.00008445  0.0002920   0.000081675
 12   -118.3997643994  -0.000005383253 0.04673920  0.00094713  0.0002890   0.000081289
 13   -118.3998141278  -0.000049728426 0.00785680  0.00016167  0.0007511   0.000603361
 14   -118.3998081616   0.000005966228 0.02661934  0.00054804  0.0004701   0.000382681
 15   -118.3998261495  -0.000017987850 0.01574356  0.00033119  0.0011021   0.000860302
 16   -118.3998190139   0.000007135529 0.03801763  0.00079469  0.0001819   0.000100462
 17   -118.3998375963  -0.000018582413 0.00620548  0.00013365  0.0008884   0.000678591
 18   -118.3998397417  -0.000002145371 0.00616073  0.00013849  0.0006471   0.000495059
 19   -118.3998397892  -0.000000047505 0.00791693  0.00017196  0.0002522   0.000193159
               *** Restarting incremental Fock matrix formation ***
                             ****Resetting KDIIS****
 20   -118.3998410559  -0.000001266717 0.00000915  0.00000029  0.0001752   0.000132458
 21   -118.3998410705  -0.000000014604 0.00002228  0.00000071  0.0001589   0.000120429
 22   -118.3998410965  -0.000000025997 0.00004159  0.00000130  0.0001282   0.000096972
 23   -118.3998411283  -0.000000031734 0.00006706  0.00000211  0.0000769   0.000058116
 24   -118.3998411469  -0.000000018662 0.00000995  0.00000023  0.0000089   0.000002538
                 **** Energy Check signals convergence ****
                    *** KDIIS BlockDiag ( 5.676 sec) ***

               *****************************************************
               *                     SUCCESS                       *
               *           SCF CONVERGED AFTER  25 CYCLES          *
               *****************************************************


----------------
TOTAL SCF ENERGY
----------------

Total Energy       :         -118.39984115 Eh           -3221.82347 eV

Components:
Nuclear Repulsion  :            0.00000000 Eh               0.00000 eV
Electronic Energy  :         -118.39984115 Eh           -3221.82347 eV
One Electron Energy:         -208.69281035 Eh           -5678.82008 eV
Two Electron Energy:           90.29296920 Eh            2456.99660 eV

Virial components:
Potential Energy   :         -159.12661776 Eh           -4330.05541 eV
Kinetic Energy     :           40.72677662 Eh            1108.23193 eV
Virial Ratio       :            3.90717437


---------------
SCF CONVERGENCE
---------------

  Last Energy change         ...   -4.5875e-10  Tolerance :   1.0000e-08
  Last MAX-Density change    ...    3.1799e-05  Tolerance :   1.0000e-07
  Last RMS-Density change    ...    6.9460e-07  Tolerance :   5.0000e-09

             **** THE GBW FILE WAS UPDATED (78_Pt.gbw) ****
             **** DENSITY FILE WAS UPDATED (78_Pt.scfp) ****
             **** ENERGY FILE WAS UPDATED (78_Pt.en.tmp) ****
----------------------
UHF SPIN CONTAMINATION
----------------------

Expectation value of <S**2>     :     2.003933
Ideal value S*(S+1) for S=1.0   :     2.000000
Deviation                       :     0.003933

             **** THE GBW FILE WAS UPDATED (78_Pt.gbw) ****
             **** DENSITY FILE WAS UPDATED (78_Pt.scfp) ****
----------------
ORBITAL ENERGIES
----------------
                 SPIN UP ORBITALS
  NO   OCC          E(Eh)            E(eV) 
   0   1.0000      -4.462704      -121.4364 
   1   1.0000      -2.590339       -70.4867 
   2   1.0000      -2.589729       -70.4701 
   3   1.0000      -2.534852       -68.9768 
   4   1.0000      -0.481814       -13.1108 
   5   1.0000      -0.440726       -11.9928 
   6   1.0000      -0.421025       -11.4567 
   7   1.0000      -0.420835       -11.4515 
   8   1.0000      -0.416569       -11.3354 
   9   1.0000      -0.290271        -7.8987 
  10   0.0000       0.030092         0.8188 
  11   0.0000       0.030131         0.8199 
  12   0.0000       0.034449         0.9374 
  13   0.0000       0.115084         3.1316 
  14   0.0000       0.115170         3.1339 
  15   0.0000       0.125439         3.4134 
  16   0.0000       0.238756         6.4969 
  17   0.0000       0.366961         9.9855 
  18   0.0000       0.373977        10.1764 
  19   0.0000       0.381119        10.3708 
  20   0.0000       0.381178        10.3724 
  21   0.0000       0.383647        10.4396 
  22   0.0000       0.860904        23.4264 
  23   0.0000       0.861227        23.4352 
  24   0.0000       0.894062        24.3287 
  25   0.0000       1.222395        33.2631 
  26   0.0000       1.222454        33.2647 
  27   0.0000       1.239012        33.7152 
  28   0.0000       1.254692        34.1419 
  29   0.0000       1.259520        34.2733 
  30   0.0000       1.259593        34.2753 
  31   0.0000       1.261991        34.3405 
  32   0.0000       1.587369        43.1945 
  33   0.0000       1.610850        43.8335 
  34   0.0000       1.625469        44.2313 
  35   0.0000       1.625602        44.2349 
  36   0.0000       1.630628        44.3717 
  37   0.0000       2.298416        62.5431 
  38   0.0000       3.734097       101.6100 
  39   0.0000       3.734241       101.6139 
  40   0.0000       3.754693       102.1704 
  41   0.0000       3.779398       102.8426 
  42   0.0000       3.782722       102.9331 
  43   0.0000       3.782800       102.9352 
  44   0.0000       3.784563       102.9832 
  45   0.0000       4.070499       110.7639 
  46   0.0000       4.071534       110.7921 
  47   0.0000       4.094918       111.4284 
  48   0.0000       4.095128       111.4341 
  49   0.0000       4.103234       111.6547 
  50   0.0000       4.124634       112.2370 
  51   0.0000       4.125135       112.2506 
  52   0.0000       4.125140       112.2508 
  53   0.0000       4.125509       112.2608 
  54   0.0000      26.383157       717.9222 
  55   0.0000      26.383493       717.9314 
  56   0.0000      26.415759       718.8093 
  57   0.0000      51.909014      1412.5161 
  58   0.0000     284.804009      7749.9111 

                 SPIN DOWN ORBITALS
  NO   OCC          E(Eh)            E(eV) 
   0   1.0000      -4.405329      -119.8751 
   1   1.0000      -2.522609       -68.6437 
   2   1.0000      -2.485651       -67.6380 
   3   1.0000      -2.485205       -67.6259 
   4   1.0000      -0.418899       -11.3988 
   5   1.0000      -0.384269       -10.4565 
   6   1.0000      -0.383874       -10.4458 
   7   1.0000      -0.372175       -10.1274 
   8   0.0000       0.001839         0.0500 
   9   0.0000       0.042942         1.1685 
  10   0.0000       0.042957         1.1689 
  11   0.0000       0.044496         1.2108 
  12   0.0000       0.115846         3.1523 
  13   0.0000       0.160027         4.3545 
  14   0.0000       0.160059         4.3554 
  15   0.0000       0.161486         4.3943 
  16   0.0000       0.292128         7.9492 
  17   0.0000       0.389491        10.5986 
  18   0.0000       0.397579        10.8187 
  19   0.0000       0.397655        10.8208 
  20   0.0000       0.400551        10.8995 
  21   0.0000       0.428549        11.6614 
  22   0.0000       0.925309        25.1789 
  23   0.0000       0.925382        25.1809 
  24   0.0000       0.930448        25.3188 
  25   0.0000       1.276309        34.7301 
  26   0.0000       1.283617        34.9290 
  27   0.0000       1.283848        34.9353 
  28   0.0000       1.290106        35.1056 
  29   0.0000       1.309558        35.6349 
  30   0.0000       1.316737        35.8302 
  31   0.0000       1.316971        35.8366 
  32   0.0000       1.629090        44.3298 
  33   0.0000       1.647757        44.8378 
  34   0.0000       1.647943        44.8428 
  35   0.0000       1.654364        45.0175 
  36   0.0000       1.679120        45.6912 
  37   0.0000       2.339923        63.6725 
  38   0.0000       3.782009       102.9137 
  39   0.0000       3.790001       103.1312 
  40   0.0000       3.790268       103.1384 
  41   0.0000       3.800720       103.4228 
  42   0.0000       3.813624       103.7740 
  43   0.0000       3.815726       103.8312 
  44   0.0000       3.815922       103.8365 
  45   0.0000       4.131457       112.4227 
  46   0.0000       4.132126       112.4409 
  47   0.0000       4.132147       112.4414 
  48   0.0000       4.132500       112.4510 
  49   0.0000       4.132859       112.4608 
  50   0.0000       4.143485       112.7500 
  51   0.0000       4.143559       112.7520 
  52   0.0000       4.143598       112.7530 
  53   0.0000       4.143666       112.7549 
  54   0.0000      26.402888       718.4591 
  55   0.0000      26.403106       718.4650 
  56   0.0000      26.423948       719.0322 
  57   0.0000      51.914534      1412.6663 
  58   0.0000     284.804410      7749.9220 

                    ********************************
                    * MULLIKEN POPULATION ANALYSIS *
                    ********************************

--------------------------------------------
MULLIKEN ATOMIC CHARGES AND SPIN POPULATIONS
--------------------------------------------
   0 Pt:    0.000000    2.000000
Sum of atomic charges         :    0.0000000
Sum of atomic spin populations:    2.0000000

-----------------------------------------------------
MULLIKEN REDUCED ORBITAL CHARGES AND SPIN POPULATIONS
-----------------------------------------------------
CHARGE
  0 Pts       :     3.004791  s :     3.004791
      pz      :     1.999596  p :     5.999127
      px      :     1.999590
      py      :     1.999941
      dz2     :     1.252895  d :     8.994874
      dxz     :     1.999978
      dyz     :     1.999932
      dx2y2   :     1.742138
      dxy     :     1.999931
      f0      :     0.000315  f :     0.000873
      f+1     :     0.000293
      f-1     :     0.000022
      f+2     :     0.000089
      f-2     :     0.000000
      f+3     :     0.000117
      f-3     :     0.000037
      g0      :     0.000071  g :     0.000335
      g+1     :     0.000003
      g-1     :     0.000046
      g+2     :     0.000046
      g-2     :     0.000015
      g+3     :     0.000020
      g-3     :     0.000022
      g+4     :     0.000058
      g-4     :     0.000054

SPIN
  0 Pts       :     0.996358  s :     0.996358
      pz      :     0.000267  p :     0.000490
      px      :     0.000268
      py      :    -0.000044
      dz2     :     0.746716  d :     1.003485
      dxz     :    -0.000012
      dyz     :    -0.000036
      dx2y2   :     0.256856
      dxy     :    -0.000038
      f0      :    -0.000192  f :    -0.000490
      f+1     :    -0.000277
      f-1     :     0.000017
      f+2     :    -0.000074
      f-2     :    -0.000000
      f+3     :     0.000010
      f-3     :     0.000028
      g0      :     0.000034  g :     0.000157
      g+1     :     0.000001
      g-1     :     0.000045
      g+2     :    -0.000015
      g-2     :    -0.000015
      g+3     :     0.000010
      g-3     :    -0.000009
      g+4     :     0.000052
      g-4     :     0.000053


                     *******************************
                     * LOEWDIN POPULATION ANALYSIS *
                     *******************************

-------------------------------------------
LOEWDIN ATOMIC CHARGES AND SPIN POPULATIONS
-------------------------------------------
   0 Pt:    0.000000    2.000000

----------------------------------------------------
LOEWDIN REDUCED ORBITAL CHARGES AND SPIN POPULATIONS
----------------------------------------------------
CHARGE
  0 Pts       :     3.004791  s :     3.004791
      pz      :     1.999596  p :     5.999127
      px      :     1.999590
      py      :     1.999941
      dz2     :     1.252895  d :     8.994874
      dxz     :     1.999978
      dyz     :     1.999932
      dx2y2   :     1.742138
      dxy     :     1.999931
      f0      :     0.000315  f :     0.000873
      f+1     :     0.000293
      f-1     :     0.000022
      f+2     :     0.000089
      f-2     :     0.000000
      f+3     :     0.000117
      f-3     :     0.000037
      g0      :     0.000071  g :     0.000335
      g+1     :     0.000003
      g-1     :     0.000046
      g+2     :     0.000046
      g-2     :     0.000015
      g+3     :     0.000020
      g-3     :     0.000022
      g+4     :     0.000058
      g-4     :     0.000054

SPIN
  0 Pts       :     0.996358  s :     0.996358
      pz      :     0.000267  p :     0.000490
      px      :     0.000268
      py      :    -0.000044
      dz2     :     0.746716  d :     1.003485
      dxz     :    -0.000012
      dyz     :    -0.000036
      dx2y2   :     0.256856
      dxy     :    -0.000038
      f0      :    -0.000192  f :    -0.000490
      f+1     :    -0.000277
      f-1     :     0.000017
      f+2     :    -0.000074
      f-2     :    -0.000000
      f+3     :     0.000010
      f-3     :     0.000028
      g0      :     0.000034  g :     0.000157
      g+1     :     0.000001
      g-1     :     0.000045
      g+2     :    -0.000015
      g-2     :    -0.000015
      g+3     :     0.000010
      g-3     :    -0.000009
      g+4     :     0.000052
      g-4     :     0.000053


                      *****************************
                      * MAYER POPULATION ANALYSIS *
                      *****************************

  NA   - Mulliken gross atomic population
  ZA   - Total nuclear charge
  QA   - Mulliken gross atomic charge
  VA   - Mayer's total valence
  BVA  - Mayer's bonded valence
  FA   - Mayer's free valence

  ATOM       NA         ZA         QA         VA         BVA        FA
  0 Pt    18.0000    18.0000    -0.0000     2.0079     0.0000     2.0079

  Mayer bond orders larger than 0.100000


-------
TIMINGS
-------

Total SCF time: 0 days 0 hours 0 min 5 sec 

Total time                  ....       5.792 sec
Sum of individual times     ....       5.250 sec  ( 90.6%)

Fock matrix formation       ....       3.596 sec  ( 62.1%)
Diagonalization             ....       0.118 sec  (  2.0%)
Density matrix formation    ....       0.010 sec  (  0.2%)
Population analysis         ....       0.066 sec  (  1.1%)
Initial guess               ....       1.409 sec  ( 24.3%)
Orbital Transformation      ....       0.000 sec  (  0.0%)
Orbital Orthonormalization  ....       0.000 sec  (  0.0%)
DIIS solution               ....       0.000 sec  (  0.0%)


           ************************************************************
           *        Program running with 24 parallel MPI-processes    *
           *              working on a common directory               *
           ************************************************************


------------------------------------------------------------------------------- 
                              ORCA-MATRIX DRIVEN CI                            
------------------------------------------------------------------------------- 

--------------------------------
AUTOMATIC CHOICE OF INCORE LEVEL
--------------------------------

Memory available                           ...   2500.00 MB
Memory needed for S+T                      ...      3.02 MB
Memory needed for J+K                      ...      6.09 MB
Memory needed for DIIS                     ...     42.31 MB
Memory needed for 3-ext                    ...      8.98 MB
Memory needed for 4-ext                    ...     22.44 MB
Memory needed for triples                  ...      4.49 MB
 -> Final InCoreLevel    ... 5
 -> check shows that triples correction can be computed


Wavefunction type
-----------------
Correlation treatment                      ...      CCSD     
Single excitations                         ... ON
Orbital optimization                       ... OFF
Calculation of Z vector                    ... OFF
Calculation of Brueckner orbitals          ... OFF
Perturbative triple excitations            ... ON
Calculation of F12 correction              ... OFF
Frozen core treatment                      ... chemical core (0 el)
Reference Wavefunction                     ... UHF
  Alpha-MOs occ    :     0 ...    9 ( 10 MO's/ 10 electrons)
  Beta-MOs occ     :     0 ...    7 (  8 MO's/  8 electrons)
  Alpha-MOs virt   :    10 ...   58 ( 49 MO's              )
  Beta-MOs virt    :     8 ...   58 ( 51 MO's              )
Number of AO's                             ...     59
Number of electrons                        ...     18
Number of correlated electrons             ...     18

Algorithmic settings
--------------------
Integral transformation                    ... AO direct full transformation
K(C) Formation                             ... FULL-MO TRAFO
Maximum number of iterations               ...        50
Convergence tolerance (max. residuum)      ... 1.000e-05
Level shift for amplitude update           ... 2.000e-01
Maximum number of DIIS vectors             ...         7
DIIS turned on at iteration                ...         0
Damping before turning on DIIS             ...     0.500
Damping after turning on DIIS              ...     0.000
Pair specific amplitude update             ... OFF
Natural orbital iterations                 ... OFF
Perturbative natural orbital generation    ... OFF
Printlevel                                 ... 2

Memory handling:
----------------
Maximum memory for working arrays          ...   2500 MB
Data storage in matrix containers          ... UNCOMPRESSED
Data type for integral storage             ... DOUBLE
In-Core Storage of quantities:
   Amplitudes+Sigma Vector      ... YES
   J+K operators                ... YES
   DIIS vectors                 ... YES
   3-external integrals         ... YES
   4-external integrals         ... YES


Initializing the integral package          ... done
Warning: reference  - re-canonicalizations have been set to INT 1 VIRT 1

--------------------------
UNRESTRICTED FOCK OPERATOR
--------------------------

<ss|ss>:          231 b            0 skpd (  0.0%)    0.000 s ( 0.000 ms/b)
<ss|sp>:          630 b            0 skpd (  0.0%)    0.000 s ( 0.000 ms/b)
<ss|sd>:          378 b            0 skpd (  0.0%)    0.000 s ( 0.000 ms/b)
<ss|sf>:          252 b            0 skpd (  0.0%)    0.000 s ( 0.000 ms/b)
<ss|sg>:          126 b            0 skpd (  0.0%)    0.000 s ( 0.000 ms/b)
<ss|pp>:          315 b            0 skpd (  0.0%)    0.000 s ( 0.000 ms/b)
<ss|pd>:          315 b            0 skpd (  0.0%)    0.000 s ( 0.000 ms/b)
<ss|pf>:          210 b            0 skpd (  0.0%)    0.000 s ( 0.000 ms/b)
<ss|pg>:          105 b            0 skpd (  0.0%)    0.000 s ( 0.001 ms/b)
<ss|dd>:          126 b            0 skpd (  0.0%)    0.000 s ( 0.001 ms/b)
<ss|df>:          126 b            0 skpd (  0.0%)    0.000 s ( 0.001 ms/b)
<ss|dg>:           63 b            0 skpd (  0.0%)    0.000 s ( 0.002 ms/b)
<ss|ff>:           63 b            0 skpd (  0.0%)    0.000 s ( 0.001 ms/b)
<ss|fg>:           42 b            0 skpd (  0.0%)    0.000 s ( 0.002 ms/b)
<ss|gg>:           21 b            0 skpd (  0.0%)    0.000 s ( 0.006 ms/b)
<sp|sp>:          465 b            0 skpd (  0.0%)    0.000 s ( 0.000 ms/b)
<sp|sd>:          540 b            0 skpd (  0.0%)    0.000 s ( 0.000 ms/b)
<sp|sf>:          360 b            0 skpd (  0.0%)    0.000 s ( 0.000 ms/b)
<sp|sg>:          180 b            0 skpd (  0.0%)    0.000 s ( 0.000 ms/b)
<sp|pp>:          450 b            0 skpd (  0.0%)    0.000 s ( 0.000 ms/b)
<sp|pd>:          450 b            0 skpd (  0.0%)    0.000 s ( 0.001 ms/b)
<sp|pf>:          300 b            0 skpd (  0.0%)    0.000 s ( 0.001 ms/b)
<sp|pg>:          150 b            0 skpd (  0.0%)    0.000 s ( 0.002 ms/b)
<sp|dd>:          180 b            0 skpd (  0.0%)    0.000 s ( 0.003 ms/b)
<sp|df>:          180 b            0 skpd (  0.0%)    0.000 s ( 0.002 ms/b)
<sp|dg>:           90 b            0 skpd (  0.0%)    0.000 s ( 0.004 ms/b)
<sp|ff>:           90 b            0 skpd (  0.0%)    0.000 s ( 0.003 ms/b)
<sp|fg>:           60 b            0 skpd (  0.0%)    0.000 s ( 0.006 ms/b)
<sp|gg>:           30 b            0 skpd (  0.0%)    0.000 s ( 0.015 ms/b)
<sd|sd>:          171 b            0 skpd (  0.0%)    0.000 s ( 0.000 ms/b)
<sd|sf>:          216 b            0 skpd (  0.0%)    0.000 s ( 0.001 ms/b)
<sd|sg>:          108 b            0 skpd (  0.0%)    0.000 s ( 0.001 ms/b)
<sd|pp>:          270 b            0 skpd (  0.0%)    0.000 s ( 0.001 ms/b)
<sd|pd>:          270 b            0 skpd (  0.0%)    0.000 s ( 0.002 ms/b)
<sd|pf>:          180 b            0 skpd (  0.0%)    0.000 s ( 0.001 ms/b)
<sd|pg>:           90 b            0 skpd (  0.0%)    0.000 s ( 0.004 ms/b)
<sd|dd>:          108 b            0 skpd (  0.0%)    0.001 s ( 0.007 ms/b)
<sd|df>:          108 b            0 skpd (  0.0%)    0.000 s ( 0.004 ms/b)
<sd|dg>:           54 b            0 skpd (  0.0%)    0.001 s ( 0.012 ms/b)
<sd|ff>:           54 b            0 skpd (  0.0%)    0.000 s ( 0.006 ms/b)
<sd|fg>:           36 b            0 skpd (  0.0%)    0.000 s ( 0.013 ms/b)
<sd|gg>:           18 b            0 skpd (  0.0%)    0.001 s ( 0.036 ms/b)
<sf|sf>:           78 b            0 skpd (  0.0%)    0.000 s ( 0.001 ms/b)
<sf|sg>:           72 b            0 skpd (  0.0%)    0.000 s ( 0.002 ms/b)
<sf|pp>:          180 b            0 skpd (  0.0%)    0.000 s ( 0.001 ms/b)
<sf|pd>:          180 b            0 skpd (  0.0%)    0.000 s ( 0.002 ms/b)
<sf|pf>:          120 b            0 skpd (  0.0%)    0.000 s ( 0.002 ms/b)
<sf|pg>:           60 b            0 skpd (  0.0%)    0.000 s ( 0.005 ms/b)
<sf|dd>:           72 b            0 skpd (  0.0%)    0.001 s ( 0.008 ms/b)
<sf|df>:           72 b            0 skpd (  0.0%)    0.000 s ( 0.005 ms/b)
<sf|dg>:           36 b            0 skpd (  0.0%)    0.001 s ( 0.015 ms/b)
<sf|ff>:           36 b            0 skpd (  0.0%)    0.000 s ( 0.011 ms/b)
<sf|fg>:           24 b            0 skpd (  0.0%)    0.000 s ( 0.020 ms/b)
<sf|gg>:           12 b            0 skpd (  0.0%)    0.001 s ( 0.051 ms/b)
<sg|sg>:           21 b            0 skpd (  0.0%)    0.000 s ( 0.003 ms/b)
<sg|pp>:           90 b            0 skpd (  0.0%)    0.000 s ( 0.002 ms/b)
<sg|pd>:           90 b            0 skpd (  0.0%)    0.000 s ( 0.003 ms/b)
<sg|pf>:           60 b            0 skpd (  0.0%)    0.000 s ( 0.003 ms/b)
<sg|pg>:           30 b            0 skpd (  0.0%)    0.000 s ( 0.010 ms/b)
<sg|dd>:           36 b            0 skpd (  0.0%)    0.001 s ( 0.016 ms/b)
<sg|df>:           36 b            0 skpd (  0.0%)    0.000 s ( 0.009 ms/b)
<sg|dg>:           18 b            0 skpd (  0.0%)    0.001 s ( 0.032 ms/b)
<sg|ff>:           18 b            0 skpd (  0.0%)    0.000 s ( 0.013 ms/b)
<sg|fg>:           12 b            0 skpd (  0.0%)    0.000 s ( 0.034 ms/b)
<sg|gg>:            6 b            0 skpd (  0.0%)    0.001 s ( 0.089 ms/b)
<pp|pp>:          120 b            0 skpd (  0.0%)    0.000 s ( 0.002 ms/b)
<pp|pd>:          225 b            0 skpd (  0.0%)    0.000 s ( 0.002 ms/b)
<pp|pf>:          150 b            0 skpd (  0.0%)    0.000 s ( 0.002 ms/b)
<pp|pg>:           75 b            0 skpd (  0.0%)    0.000 s ( 0.005 ms/b)
<pp|dd>:           90 b            0 skpd (  0.0%)    0.001 s ( 0.008 ms/b)
<pp|df>:           90 b            0 skpd (  0.0%)    0.000 s ( 0.005 ms/b)
<pp|dg>:           45 b            0 skpd (  0.0%)    0.001 s ( 0.015 ms/b)
<pp|ff>:           45 b            0 skpd (  0.0%)    0.000 s ( 0.008 ms/b)
<pp|fg>:           30 b            0 skpd (  0.0%)    0.001 s ( 0.018 ms/b)
<pp|gg>:           15 b            0 skpd (  0.0%)    0.001 s ( 0.047 ms/b)
<pd|pd>:          120 b            0 skpd (  0.0%)    0.001 s ( 0.008 ms/b)
<pd|pf>:          150 b            0 skpd (  0.0%)    0.001 s ( 0.004 ms/b)
<pd|pg>:           75 b            0 skpd (  0.0%)    0.001 s ( 0.012 ms/b)
<pd|dd>:           90 b            0 skpd (  0.0%)    0.002 s ( 0.020 ms/b)
<pd|df>:           90 b            0 skpd (  0.0%)    0.001 s ( 0.012 ms/b)
<pd|dg>:           45 b            0 skpd (  0.0%)    0.002 s ( 0.038 ms/b)
<pd|ff>:           45 b            0 skpd (  0.0%)    0.001 s ( 0.018 ms/b)
<pd|fg>:           30 b            0 skpd (  0.0%)    0.001 s ( 0.040 ms/b)
<pd|gg>:           15 b            0 skpd (  0.0%)    0.002 s ( 0.108 ms/b)
<pf|pf>:           55 b            0 skpd (  0.0%)    0.000 s ( 0.007 ms/b)
<pf|pg>:           50 b            0 skpd (  0.0%)    0.001 s ( 0.014 ms/b)
<pf|dd>:           60 b            0 skpd (  0.0%)    0.001 s ( 0.021 ms/b)
<pf|df>:           60 b            0 skpd (  0.0%)    0.001 s ( 0.015 ms/b)
<pf|dg>:           30 b            0 skpd (  0.0%)    0.001 s ( 0.042 ms/b)
<pf|ff>:           30 b            0 skpd (  0.0%)    0.001 s ( 0.031 ms/b)
<pf|fg>:           20 b            0 skpd (  0.0%)    0.001 s ( 0.058 ms/b)
<pf|gg>:           10 b            0 skpd (  0.0%)    0.001 s ( 0.140 ms/b)
<pg|pg>:           15 b            0 skpd (  0.0%)    0.000 s ( 0.030 ms/b)
<pg|dd>:           30 b            0 skpd (  0.0%)    0.001 s ( 0.041 ms/b)
<pg|df>:           30 b            0 skpd (  0.0%)    0.001 s ( 0.024 ms/b)
<pg|dg>:           15 b            0 skpd (  0.0%)    0.001 s ( 0.081 ms/b)
<pg|ff>:           15 b            0 skpd (  0.0%)    0.001 s ( 0.035 ms/b)
<pg|fg>:           10 b            0 skpd (  0.0%)    0.001 s ( 0.094 ms/b)
<pg|gg>:            5 b            0 skpd (  0.0%)    0.001 s ( 0.231 ms/b)
<dd|dd>:           21 b            0 skpd (  0.0%)    0.002 s ( 0.092 ms/b)
<dd|df>:           36 b            0 skpd (  0.0%)    0.001 s ( 0.031 ms/b)
<dd|dg>:           18 b            0 skpd (  0.0%)    0.002 s ( 0.100 ms/b)
<dd|ff>:           18 b            0 skpd (  0.0%)    0.001 s ( 0.041 ms/b)
<dd|fg>:           12 b            0 skpd (  0.0%)    0.001 s ( 0.092 ms/b)
<dd|gg>:            6 b            0 skpd (  0.0%)    0.002 s ( 0.255 ms/b)
<df|df>:           21 b            0 skpd (  0.0%)    0.001 s ( 0.056 ms/b)
<df|dg>:           18 b            0 skpd (  0.0%)    0.002 s ( 0.099 ms/b)
<df|ff>:           18 b            0 skpd (  0.0%)    0.001 s ( 0.063 ms/b)
<df|fg>:           12 b            0 skpd (  0.0%)    0.001 s ( 0.122 ms/b)
<df|gg>:            6 b            0 skpd (  0.0%)    0.002 s ( 0.313 ms/b)
<dg|dg>:            6 b            0 skpd (  0.0%)    0.001 s ( 0.250 ms/b)
<dg|ff>:            9 b            0 skpd (  0.0%)    0.001 s ( 0.076 ms/b)
<dg|fg>:            6 b            0 skpd (  0.0%)    0.001 s ( 0.187 ms/b)
<dg|gg>:            3 b            0 skpd (  0.0%)    0.001 s ( 0.487 ms/b)
<ff|ff>:            6 b            0 skpd (  0.0%)    0.001 s ( 0.088 ms/b)
<ff|fg>:            6 b            0 skpd (  0.0%)    0.001 s ( 0.165 ms/b)
<ff|gg>:            3 b            0 skpd (  0.0%)    0.002 s ( 0.578 ms/b)
<fg|fg>:            3 b            0 skpd (  0.0%)    0.001 s ( 0.312 ms/b)
<fg|gg>:            2 b            0 skpd (  0.0%)    0.001 s ( 0.681 ms/b)
<gg|gg>:            1 b            0 skpd (  0.0%)    0.001 s ( 1.120 ms/b)
Recanonicalizing the internal orbitals
Recanonicalizing the virtual orbitals
Time needed for Fock operator              ...            0.212 sec
Reference energy                           ...   -118.399841149
Warning: for UHF the TrafoType has to be JK
Warning: for UHF the K(C)-option cannot be MO but must be AOX

-------------------------------
PARTIAL EXCHANGE TRANSFORMATION
-------------------------------

Transformation type                        ... two-operators
Generation of integrals (i,mue|j,nue)      ... ON
Generation of integrals (mue,kappa|nue,tau)... ON
Generation of integrals (i,mue|a,nue)      ... ON
Dimension of the basis                     ...   59
Number of internal alpha-MOs               ...   10 (   0-   9)
Number of internal beta-MOs                ...    8 (   0-   7)
Number of external alpha-MOs               ...   49 (  10-  58)
Number of external beta-MOs                ...   51 (   8-  58)
Pair cutoff                                ... 0.000e+00 Eh
Number of AO pairs in the trafo            ... 1770
Total Number of distinct AO pairs          ... 1770
Memory devoted for trafo                   ... 2500.0 MB 
Max. Number of MO pairs treated together   ... 94133      
Number Format for Storage                  ... Double (8 Byte)
Integral package used                      ... LIBINT

Starting integral evaluation:
    ... done with AO integral generation
Closing buffer AOK[aa] ( 0.00 GB; CompressionRatio= 0.00)
Closing buffer AOK[bb] ( 0.00 GB; CompressionRatio= 0.00)
Closing buffer AOK[ab] ( 0.00 GB; CompressionRatio= 0.00)
Closing buffer AOK[ba] ( 0.00 GB; CompressionRatio= 0.00)
Collecting buffer AOK 
Closing buffer IAAO1[aa] ( 0.00 GB; CompressionRatio= 0.00)
Closing buffer IAAO1[bb] ( 0.00 GB; CompressionRatio= 0.00)
Closing buffer IAAO1[ab] ( 0.00 GB; CompressionRatio= 0.00)
Closing buffer IAAO1[ba] ( 0.00 GB; CompressionRatio= 0.00)
Closing buffer IAAO2[aa] ( 0.00 GB; CompressionRatio= 0.00)
Closing buffer IAAO2[bb] ( 0.00 GB; CompressionRatio= 0.00)
Closing buffer IAAO2[ab] ( 0.00 GB; CompressionRatio= 0.00)
Closing buffer IAAO2[ba] ( 0.00 GB; CompressionRatio= 0.00)
Collecting buffer IAAO 
Closing buffer PRQS    ( 0.00 GB; CompressionRatio= 0.00)
Collecting buffer PRQS 
Number of alpha/alpha MO pairs in trafo    ...   55
Number of beta /beta  MO pairs in trafo    ...   36
Number of alpha/ beta MO pairs in trafo    ...   80
------------------------
SORTING OF (i,mue|j,nue)
------------------------

SORTING OF ALPHA/ALPHA PAIRS
IBATCH = 1 of  1
Closing buffer KAO[aa] ( 0.00 GB; CompressionRatio= 1.00)
Collecting buffer KAO 
SORTING OF BETA /BETA  PAIRS
IBATCH = 1 of  1
Closing buffer KAO[bb] ( 0.00 GB; CompressionRatio= 1.00)
Collecting buffer KAO 
SORTING OF ALPHA/BETA  PAIRS
IBATCH = 1 of  1
Closing buffer KAO[ab] ( 0.00 GB; CompressionRatio= 0.999569274946)
Collecting buffer KAO[ab] 
------------------------
SORTING OF (i,mue|a,nue)
------------------------

Number of alpha/alpha (i,a) pairs in trafo  ...  490
Number of beta /beta  (i,a) pairs in trafo  ...  408
Number of alpha/ beta (i,a) pairs in trafo  ...  510
Number of beta /alpha (i,a) pairs in trafo  ...  392
Setting up the alpha/alpha list             ... done
Setting up the beta /beta  list             ... done
Setting up the alpha/beta  list             ... done
Setting up the beta /alpha list             ... done
    ... Now sorting (i,mue|a,nue)integrals
    ... Integrals (i,b|a,c) will be made on the fly
SORTING OF ALPHA/ALPHA PAIRS
IBATCH = 1 of  1
Closing buffer IPAQ[aa]  0.00 GB; CompressionRatio= 1.00)
SORTING OF BETA /BETA  PAIRS
IBATCH = 1 of  1
Closing buffer IPAQ[bb]( 0.00 GB; CompressionRatio= 1.00)
SORTING OF ALPHA/BETA  PAIRS (NMatSort_ab=22)
IBATCH = 1 of  1
Closing buffer IPAQ[ab]( 0.00 GB; CompressionRatio= 1.00)
SORTING OF BETA/ALPHA  PAIRS
IBATCH = 1 of  1
Closing buffer IPAQ[ba]( 0.00 GB; CompressionRatio= 1.00)
N(AO-Batches) Done                         ...         0 
N(AO-Batches) Skipped                      ...         0 
N(IJ)-pairs Skipped                        ...         0 
TOTAL TIME for half transformation         ...     3.122 sec
AO-integral generation                     ...     0.000 sec
Half transformation                        ...     0.000 sec
K-integral sorting                         ...     0.845 sec
<ss|**>: 
------------------------------
PARTIAL COULOMB TRANSFORMATION
------------------------------

Transformation type                        ... two-operators
Dimension of the basis                     ...   59
Number of internal alpha-MOs               ...   10 (0-9)
Number of internal beta-MOs                ...    8 (0-7)
Pair cutoff                                ... 0.000e+00 Eh
Number of AO pairs included in the trafo   ... 1770
Total Number of distinct AO pairs          ... 1770
Memory devoted for trafo                   ... 2500.0 MB 
Max. Number of MO pairs treated together   ... 185129      
Max. Number of MOs treated per batch       ... 3137      
Number Format for Storage                  ... Double (8 Byte)
AO-integral source                         ... DIRECT
Integral package used                      ... LIBINT

Starting integral evaluation:
<sp|**>:         3213 b        0 skpd     0.001 s (  0.000 ms/b)
        4590 b        0 skpd     0.011 s (  0.002 ms/b)
<sd|**>:         2754 b        0 skpd     0.012 s (  0.004 ms/b)
<sf|**>: <sg|**>:         1836 b        0 skpd     0.012 s (  0.007 ms/b)
<pp|**>:          918 b        0 skpd     0.012 s (  0.014 ms/b)
<pd|**>:         2295 b        0 skpd     0.020 s (  0.009 ms/b)
        2295 b        0 skpd     0.038 s (  0.017 ms/b)
<pf|**>:         1530 b        0 skpd     0.040 s (  0.026 ms/b)
<pg|**>:          765 b        0 skpd     0.033 s (  0.043 ms/b)
<dd|**>:          918 b        0 skpd     0.025 s (  0.028 ms/b)
<df|**>:          918 b        0 skpd     0.037 s (  0.040 ms/b)
<dg|**>:          459 b        0 skpd     0.037 s (  0.081 ms/b)
<ff|**>:          459 b        0 skpd     0.039 s (  0.085 ms/b)
<fg|**>:          306 b        0 skpd     0.045 s (  0.146 ms/b)
<gg|**>:          153 b        0 skpd     0.034 s (  0.224 ms/b)
Closing buffer AOJ[aa] ( 0.00 GB; CompressionRatio= 0.97)
Closing buffer AOJ[bb] ( 0.00 GB; CompressionRatio= 0.00)
Collecting buffer AOJ 
    ... done with AO integral generation
Number of Alpha-MO pairs included          ...   55
Number of Beta-MO pairs included           ...   36
    ... Now sorting integrals
SORTING ALPHA/ALPHA PAIRS
IBATCH = 1 of  1
Closing buffer JAO[aa] ( 0.00 GB; CompressionRatio= 1.00)
SORTING BETA/BETA PAIRS
IBATCH = 1 of  1
Closing buffer JAO[bb] ( 0.00 GB; CompressionRatio= 1.00)
Collecting buffer JAO 
TOTAL TIME for half transformation         ...     0.619 sec
AO-integral generation                     ...     0.287 sec
Half transformation                        ...     0.113 sec
J-integral sorting                         ...     0.092 sec

-------------------------- SECOND HALF TRANSFORMATION -------------------------
Formation of (ij|kl),(ij|ka), (ij|ab)      ... ok (     0.122 sec)
Formation of (ik|jl),(ik|ja), (ia|jb)      ... ok (     0.197 sec)


-----------------------
SPIN UNRESTRICTED GUESS
-----------------------

Entering MDCI_UHF_Guess, Tailored=0
Spin-components of the MP2 energy:
EMP2(aa)=     -0.109053300
EMP2(bb)=     -0.067945538
EMP2(ab)=     -0.350317571

Initial guess performed in     0.014 sec
E(0)                                       ...   -118.399841149
E(MP2)                                     ...     -0.527316409
Initial E(tot)                             ...   -118.927157558
<T|T>                                      ...      0.121291924
Number of pairs included                   ... 153

------------------------------------------------
                  UHF COUPLED CLUSTER ITERATIONS
------------------------------------------------

Number of amplitudes to be optimized       ...       290769

Iter       E(tot)           E(Corr)          Delta-E          Residual     Time      <S|S>**1/2
  0   -118.927157558     -0.527316409     -0.000000000      0.022381191    0.26      0.000008590
                           *** Turning on DIIS ***
  1   -118.891293327     -0.491452178      0.035864231      0.008380298    0.23      0.034778545
  2   -118.900996708     -0.501155559     -0.009703381      0.005276595    0.23      0.039909736
  3   -118.902201591     -0.502360443     -0.001204883      0.002483076    0.24      0.047415009
  4   -118.902649719     -0.502808571     -0.000448128      0.000817457    0.24      0.051084802
  5   -118.902745091     -0.502903942     -0.000095372      0.000453191    0.24      0.052641746
  6   -118.902756198     -0.502915049     -0.000011107      0.000444598    0.23      0.053035810
  7   -118.902759141     -0.502917992     -0.000002943      0.000433988    0.24      0.053196250
  8   -118.902764122     -0.502922973     -0.000004981      0.000391389    0.23      0.053684089
  9   -118.902779947     -0.502938799     -0.000015826      0.000250651    0.23      0.056319701
 10   -118.902798966     -0.502957817     -0.000019018      0.000068816    0.24      0.061204281
 11   -118.902805935     -0.502964786     -0.000006969      0.000016700    0.25      0.062892067
 12   -118.902806826     -0.502965677     -0.000000891      0.000005689    0.26      0.063186472
               --- The Coupled-Cluster iterations have converged ---

----------------------
COUPLED CLUSTER ENERGY
----------------------

E(0)                                       ...   -118.399841149
E(CORR)                                    ...     -0.502965677
E(TOT)                                     ...   -118.902806826
Singles norm <S|S>**1/2                    ...      0.063186472 ( 0.034046195, 0.029140277)  
T1 diagnostic                              ...      0.014893194                              

------------------
LARGEST AMPLITUDES
------------------
   9a-> 16a  -1a-> -1a       0.053927
   7b->  8b  -1b-> -1b       0.046264
   5a-> 26a   4a-> 25a       0.024045
   5a-> 25a   4a-> 26a       0.024045
   9a-> 15a   7b-> 15b       0.021988
   8a-> 31a   7b-> 28b       0.021737
   4b-> 17b  -1b-> -1b       0.020875
   8a-> 31a   7a-> 30a       0.019676
   8a-> 30a   7a-> 31a       0.019676
   8a-> 29a   6a-> 31a       0.019536
   8a-> 31a   6a-> 29a       0.019536
   7b-> 16b  -1b-> -1b       0.019399
   7a-> 30a   6b-> 27b       0.018206
   6a-> 29a   5b-> 26b       0.018166
   7b-> 27b   6b-> 28b       0.017486
   7b-> 28b   6b-> 27b       0.017486

----------------------
UHF TRIPLES CORRECTION (Algorithm 1)
----------------------

Multiplier for the singles contribution    ...      1.000000000

SPIN-CASE Alpha-Alpha-Alpha:
10% done
20% done
30% done
40% done
50% done
60% done
70% done
80% done
90% done


SPIN-CASE Beta-Beta-Beta:
10% done
20% done
30% done
40% done
50% done
60% done
70% done
80% done
90% done


SPIN-CASE Alpha-Alpha-Beta:
10% done
20% done
30% done
40% done
50% done
60% done
70% done
80% done
90% done


SPIN-CASE Beta-Beta-Alpha:
10% done
20% done
30% done
40% done
50% done
60% done
70% done
80% done
90% done


Triples Correction (T)                     ...     -0.016994863
    alpha-alpha-alpha ... -0.001160748 (  6.8%)
    alpha-alpha-beta  ... -0.009225015 ( 54.3%)
    alpha-beta -beta  ... -0.006225371 ( 36.6%)
    beta -beta -beta  ... -0.000383728 (  2.3%)
Scaling of triples based on CCSD energies (Peterson et al. Molecular Physics 113, 1551 (2015))
E(T*) = f*E(T) where f = E(F12-CCSD)/E(CCSD) 
f = CCSD (with F12)/ CCSD (without F12)    ...      1.000000000
Scaled triples correction (T)              ...     -0.016994863

Final correlation energy                   ...     -0.519960540
E(CCSD)                                    ...   -118.902806826
E(CCSD(T))                                 ...   -118.919801689



        !!!!!!!!!!!!!!!!!!!!!!!!!!!!!!!!!!!!!!!!!!!!!!!!!!!!!!!!!!!!!!!!!!!!!!!!!! 
        !  Warning: Densities are linearized densities                           !
        !!!!!!!!!!!!!!!!!!!!!!!!!!!!!!!!!!!!!!!!!!!!!!!!!!!!!!!!!!!!!!!!!!!!!!!!!! 

NORM  =      1.120216262 sqrt=     1.058402694
W(HF) =      0.892684773
------------------------------------------------------------------------------
                           ORCA POPULATION ANALYSIS
------------------------------------------------------------------------------
Input electron density              ... 78_Pt.mdcip
Input spin density                  ... 78_Pt.mdcir
BaseName (.gbw .S,...)              ... 78_Pt

                    ********************************
                    * MULLIKEN POPULATION ANALYSIS *
                    ********************************

------------------------------------------
MULLIKEN ATOMIC CHARGES AND SPIN DENSITIES
------------------------------------------
   0 Pt:    0.000000    2.000000
Sum of atomic charges       :    0.0000000
Sum of atomic spin densities:    2.0000000

---------------------------------------------------
MULLIKEN REDUCED ORBITAL CHARGES AND SPIN DENSITIES
---------------------------------------------------
CHARGE
  0 Pts       :     2.983875  s :     2.983875
      pz      :     2.004979  p :     6.020171
      px      :     2.004928
      py      :     2.010264
      dz2     :     1.246001  d :     8.893542
      dxz     :     1.974956
      dyz     :     1.973660
      dx2y2   :     1.725252
      dxy     :     1.973674
      f0      :     0.011496  f :     0.091710
      f+1     :     0.011857
      f-1     :     0.012994
      f+2     :     0.013886
      f-2     :     0.014459
      f+3     :     0.013513
      f-3     :     0.013504
      g0      :     0.001110  g :     0.010702
      g+1     :     0.001080
      g-1     :     0.001187
      g+2     :     0.001180
      g-2     :     0.001199
      g+3     :     0.001243
      g-3     :     0.001243
      g+4     :     0.001230
      g-4     :     0.001230

SPIN
  0 Pts       :     0.980614  s :     0.980614
      pz      :     0.006791  p :     0.016920
      px      :     0.006826
      py      :     0.003303
      dz2     :     0.732992  d :     0.994459
      dxz     :     0.002451
      dyz     :     0.003436
      dx2y2   :     0.252156
      dxy     :     0.003425
      f0      :     0.002617  f :     0.006519
      f+1     :     0.002115
      f-1     :     0.001107
      f+2     :     0.000070
      f-2     :    -0.000561
      f+3     :     0.000583
      f-3     :     0.000587
      g0      :     0.000297  g :     0.001488
      g+1     :     0.000265
      g-1     :     0.000227
      g+2     :     0.000157
      g-2     :     0.000102
      g+3     :     0.000048
      g-3     :     0.000048
      g+4     :     0.000173
      g-4     :     0.000173


                     *******************************
                     * LOEWDIN POPULATION ANALYSIS *
                     *******************************

-----------------------------------------
LOEWDIN ATOMIC CHARGES AND SPIN DENSITIES
-----------------------------------------
   0 Pt:    0.000000    2.000000

--------------------------------------------------
LOEWDIN REDUCED ORBITAL CHARGES AND SPIN DENSITIES
--------------------------------------------------
CHARGE
  0 Pts       :     2.983875  s :     2.983875
      pz      :     2.004979  p :     6.020171
      px      :     2.004928
      py      :     2.010264
      dz2     :     1.246001  d :     8.893542
      dxz     :     1.974956
      dyz     :     1.973660
      dx2y2   :     1.725252
      dxy     :     1.973674
      f0      :     0.011496  f :     0.091710
      f+1     :     0.011857
      f-1     :     0.012994
      f+2     :     0.013886
      f-2     :     0.014459
      f+3     :     0.013513
      f-3     :     0.013504
      g0      :     0.001110  g :     0.010702
      g+1     :     0.001080
      g-1     :     0.001187
      g+2     :     0.001180
      g-2     :     0.001199
      g+3     :     0.001243
      g-3     :     0.001243
      g+4     :     0.001230
      g-4     :     0.001230

SPIN
  0 Pts       :     0.980614  s :     0.980614
      pz      :     0.006791  p :     0.016920
      px      :     0.006826
      py      :     0.003303
      dz2     :     0.732992  d :     0.994459
      dxz     :     0.002451
      dyz     :     0.003436
      dx2y2   :     0.252156
      dxy     :     0.003425
      f0      :     0.002617  f :     0.006519
      f+1     :     0.002115
      f-1     :     0.001107
      f+2     :     0.000070
      f-2     :    -0.000561
      f+3     :     0.000583
      f-3     :     0.000587
      g0      :     0.000297  g :     0.001488
      g+1     :     0.000265
      g-1     :     0.000227
      g+2     :     0.000157
      g-2     :     0.000102
      g+3     :     0.000048
      g-3     :     0.000048
      g+4     :     0.000173
      g-4     :     0.000173


                      *****************************
                      * MAYER POPULATION ANALYSIS *
                      *****************************

  NA   - Mulliken gross atomic population
  ZA   - Total nuclear charge
  QA   - Mulliken gross atomic charge
  VA   - Mayer's total valence
  BVA  - Mayer's bonded valence
  FA   - Mayer's free valence

  ATOM       NA         ZA         QA         VA         BVA        FA
  0 Pt    18.0000    18.0000     0.0000     2.7995     0.0000     2.7995





------------------------------------------------------------------------------- 
                                     TIMINGS                                   
------------------------------------------------------------------------------- 


Total execution time                   ...        8.187 sec

Fock Matrix Formation                  ...        0.212 sec (  2.6%)
Initial Guess                          ...        0.014 sec (  0.2%)
DIIS Solver                            ...        0.334 sec (  4.1%)
State Vector Update                    ...        0.019 sec (  0.2%)
Sigma-vector construction              ...        2.774 sec ( 33.9%)
  <D|H|D>(0-ext Fock)                  ...        0.005 sec (  0.2% of sigma)
  <D|H|D>(0-ext)                       ...        0.016 sec (  0.6% of sigma)
  <D|H|D>(2-ext Fock)                  ...        0.002 sec (  0.1% of sigma)
  <D|H|D>(2-ext)                       ...        0.076 sec (  2.8% of sigma)
  <D|H|D>(4-ext)                       ...        0.883 sec ( 31.8% of sigma)
  <S|H|0>                              ...        0.113 sec (  4.1% of sigma)
  <S|H|D>(1-ext)                       ...        0.002 sec (  0.1% of sigma)
  <D|H|S>(1-ext)                       ...        0.026 sec (  0.9% of sigma)
  Fock-dressing                        ...        0.767 sec ( 27.6% of sigma)
  (ik|jl)-dressing                     ...        0.023 sec (  0.8% of sigma)
  (ij|ab),(ia|jb)-dressing             ...        0.673 sec ( 24.2% of sigma)
  Pair energies                        ...        0.002 sec (  0.1% of sigma)
Total Time for computing (T)           ...        0.256 sec (  3.1% of ALL)
  I/O of integral and amplitudes       ...        0.056 sec ( 22.0% of (T))
  External N**7 contributions          ...        0.069 sec ( 26.9% of (T))
  Internal N**7 contributions          ...        0.030 sec ( 11.7% of (T))
  N**6 triples energy contributions    ...        0.089 sec ( 34.8% of (T))


-------------------------   --------------------
FINAL SINGLE POINT ENERGY      -118.919801688912
-------------------------   --------------------


                            ***************************************
                            *     ORCA property calculations      *
                            ***************************************

                                    ---------------------
                                    Active property flags
                                    ---------------------
   (+) Dipole Moment


------------------------------------------------------------------------------
                       ORCA ELECTRIC PROPERTIES CALCULATION
------------------------------------------------------------------------------

Dipole Moment Calculation                       ... on
Quadrupole Moment Calculation                   ... off
Polarizability Calculation                      ... off
GBWName                                         ... 78_Pt.gbw
Electron density file                           ... 78_Pt.scfp
The origin for moment calculation is the CENTER OF MASS  = ( 0.000000,  0.000000  0.000000)

-------------
DIPOLE MOMENT
-------------
                                X             Y             Z
Electronic contribution:      0.00000      -0.00000      -0.00000
Nuclear contribution   :      0.00000       0.00000       0.00000
                        -----------------------------------------
Total Dipole Moment    :      0.00000      -0.00000      -0.00000
                        -----------------------------------------
Magnitude (a.u.)       :      0.00000
Magnitude (Debye)      :      0.00000



--------------------
Rotational spectrum 
--------------------
 
Rotational constants in cm-1:     0.000000     0.000000     0.000000 
Rotational constants in MHz :     0.000000     0.000000     0.000000 

 Dipole components along the rotational axes: 
x,y,z [a.u.] :     0.000000    -0.000000    -0.000000 
x,y,z [Debye]:     0.000000    -0.000000    -0.000000 

 

                           *** MDCI DENSITY ***

------------------------------------------------------------------------------
                       ORCA ELECTRIC PROPERTIES CALCULATION
------------------------------------------------------------------------------

Dipole Moment Calculation                       ... on
Quadrupole Moment Calculation                   ... off
Polarizability Calculation                      ... off
GBWName                                         ... 78_Pt.gbw
Electron density file                           ... 78_Pt.mdcip
The origin for moment calculation is the CENTER OF MASS  = ( 0.000000,  0.000000  0.000000)

-------------
DIPOLE MOMENT
-------------
                                X             Y             Z
Electronic contribution:     -0.00000       0.00000       0.00000
Nuclear contribution   :      0.00000       0.00000       0.00000
                        -----------------------------------------
Total Dipole Moment    :     -0.00000       0.00000       0.00000
                        -----------------------------------------
Magnitude (a.u.)       :      0.00000
Magnitude (Debye)      :      0.00000



--------------------
Rotational spectrum 
--------------------
 
Rotational constants in cm-1:     0.000000     0.000000     0.000000 
Rotational constants in MHz :     0.000000     0.000000     0.000000 

 Dipole components along the rotational axes: 
x,y,z [a.u.] :    -0.000000     0.000000     0.000000 
x,y,z [Debye]:    -0.000000     0.000000     0.000000 

 

Timings for individual modules:

Sum of individual times         ...       15.661 sec (=   0.261 min)
GTO integral calculation        ...        0.851 sec (=   0.014 min)   5.4 %
SCF iterations                  ...        6.161 sec (=   0.103 min)  39.3 %
MDCI module                     ...        8.649 sec (=   0.144 min)  55.2 %
                             ****ORCA TERMINATED NORMALLY****
TOTAL RUN TIME: 0 days 0 hours 0 minutes 16 seconds 429 msec
