
                                 *****************
                                 * O   R   C   A *
                                 *****************

           --- An Ab Initio, DFT and Semiempirical electronic structure package ---

                  #######################################################
                  #                        -***-                        #
                  #          Department of theory and spectroscopy      #
                  #               Directorship: Frank Neese             #
                  #        Max Planck Institute fuer Kohlenforschung    #
                  #                Kaiser Wilhelm Platz 1               #
                  #                 D-45470 Muelheim/Ruhr               #
                  #                      Germany                        #
                  #                                                     #
                  #                  All rights reserved                #
                  #                        -***-                        #
                  #######################################################


                         Program Version 4.2.0 -  RELEASE  -


 With contributions from (in alphabetic order):
   Daniel Aravena         : Magnetic Suceptibility
   Michael Atanasov       : Ab Initio Ligand Field Theory (pilot matlab implementation)
   Alexander A. Auer      : GIAO ZORA, VPT2
   Ute Becker             : Parallelization
   Giovanni Bistoni       : ED, misc. LED, open-shell LED, HFLED
   Martin Brehm           : Molecular dynamics
   Dmytro Bykov           : SCF Hessian
   Vijay G. Chilkuri      : MRCI spin determinant printing, contributions to CSF-ICE
   Dipayan Datta          : RHF DLPNO-CCSD density
   Achintya Kumar Dutta   : EOM-CC, STEOM-CC
   Dmitry Ganyushin       : Spin-Orbit,Spin-Spin,Magnetic field MRCI
   Miquel Garcia          : C-PCM Hessian, Gaussian charge scheme
   Yang Guo               : DLPNO-NEVPT2, CIM, IAO-localization
   Andreas Hansen         : Spin unrestricted coupled pair/coupled cluster methods
   Benjamin Helmich-Paris : CASSCF linear response (MC-RPA)
   Lee Huntington         : MR-EOM, pCC
   Robert Izsak           : Overlap fitted RIJCOSX, COSX-SCS-MP3, EOM
   Christian Kollmar      : KDIIS, OOCD, Brueckner-CCSD(T), CCSD density
   Simone Kossmann        : Meta GGA functionals, TD-DFT gradient, OOMP2, MP2 Hessian
   Martin Krupicka        : AUTO-CI
   Lucas Lang             : DCDCAS
   Dagmar Lenk            : GEPOL surface, SMD
   Dimitrios Liakos       : Extrapolation schemes; Compound Job, initial MDCI parallelization
   Dimitrios Manganas     : Further ROCIS development; embedding schemes
   Dimitrios Pantazis     : SARC Basis sets
   Taras Petrenko         : DFT Hessian,TD-DFT gradient, ASA, ECA, R-Raman, ABS, FL, XAS/XES, NRVS
   Peter Pinski           : DLPNO-MP2, DLPNO-MP2 Gradient
   Christoph Reimann      : Effective Core Potentials
   Marius Retegan         : Local ZFS, SOC
   Christoph Riplinger    : Optimizer, TS searches, QM/MM, DLPNO-CCSD(T), (RO)-DLPNO pert. Triples
   Tobias Risthaus        : Range-separated hybrids, TD-DFT gradient, RPA, STAB
   Michael Roemelt        : Original ROCIS implementation
   Masaaki Saitow         : Open-shell DLPNO-CCSD energy and density
   Barbara Sandhoefer     : DKH picture change effects
   Avijit Sen             : IP-ROCIS
   Kantharuban Sivalingam : CASSCF convergence, NEVPT2, FIC-MRCI
   Bernardo de Souza      : ESD, SOC TD-DFT
   Georgi Stoychev        : AutoAux, RI-MP2 NMR
   Willem Van den Heuvel  : Paramagnetic NMR
   Boris Wezisla          : Elementary symmetry handling
   Frank Wennmohs         : Technical directorship


 We gratefully acknowledge several colleagues who have allowed us to
 interface, adapt or use parts of their codes:
   Stefan Grimme, W. Hujo, H. Kruse,             : VdW corrections, initial TS optimization,
                  C. Bannwarth                     DFT functionals, gCP, sTDA/sTD-DF
   Ed Valeev, F. Pavosevic, A. Kumar             : LibInt (2-el integral package), F12 methods
   Garnet Chan, S. Sharma, J. Yang, R. Olivares  : DMRG
   Ulf Ekstrom                                   : XCFun DFT Library
   Mihaly Kallay                                 : mrcc  (arbitrary order and MRCC methods)
   Andreas Klamt, Michael Diedenhofen            : otool_cosmo (COSMO solvation model)
   Jiri Pittner, Ondrej Demel                    : Mk-CCSD
   Frank Weinhold                                : gennbo (NPA and NBO analysis)
   Christopher J. Cramer and Donald G. Truhlar   : smd solvation model
   Lars Goerigk                                  : TD-DFT with DH, B97 family of functionals
   V. Asgeirsson, H. Jonsson                     : NEB implementation
   FAccTs GmbH                                   : IRC, NEB, NEB-TS, Multilevel, MM, QM/MM, CI optimization
   S Lehtola, MJT Oliveira, MAL Marques          : LibXC Library


 Your calculation uses the libint2 library for the computation of 2-el integrals
 For citations please refer to: http://libint.valeyev.net

 Your ORCA version has been built with support for libXC version: 4.2.3
 For citations please refer to: https://tddft.org/programs/libxc/

 This ORCA versions uses:
   CBLAS   interface :  Fast vector & matrix operations
   LAPACKE interface :  Fast linear algebra routines
   SCALAPACK package :  Parallel linear algebra routines


Setting NCore(Au) from 46 to 60
----- Orbital basis set information -----
Your calculation utilizes the basis: def2-TZVPPD
   F. Weigend and R. Ahlrichs, Phys. Chem. Chem. Phys. 7, 3297 (2005).
   D. Rappoport and F. Furche, J. Chem. Phys. 133 134105 (2010).

cite the ECPs for Au [Def2-ECP] as follows:
Ce-Yb(ecp-28): M. Dolg, H. Stoll, H.Preuss, J. Chem. Phys., 1989, 90, 1730-1734.
Y-Cd(ecp-28), Hf-Hg(ecp-46): D. Andrae,U. Haeussermann, M. Dolg, H. Stoll, H. Preuss, Theor. Chim. Acta, 1990, 77, 123-141.
In-Sb(ecp-28), Tl-Bi(ecp-46): B. Metz, H. Stoll, M. Dolg, J. Chem. Phys., 2000, 113, 2563-2569.
Te-Xe(ecp-28), Po-Rn(ecp-46): K. A. Peterson, D. Figgen, E. Goll, H. Stoll, M. Dolg, J. Chem. Phys., 2003, 119, 11113-11123.
Rb(ecp-28), Cs(ecp-46): T. Leininger, A. Nicklass, W. Kuechle, H. Stoll, M. Dolg, A. Bergner, Chem. Phys. Lett., 1996, 255, 274-280.
Sr(ecp-28), Ba(ecp-46): M. Kaupp, P. V. Schleyer, H. Stoll and H. Preuss, J. Chem. Phys., 1991, 94, 1360-1366.
La(ecp-46): M. Dolg, H. Stoll, A. Savin, H. Preuss, Theor. Chim. Acta, 1989, 75, 173-194.
Lu(ecp-28): X. Cao, M. Dolg, J. Chem. Phys., 2001, 115, 7348-7355.

ECP parameters for Au [Def2-ECP] have been obtained from:
TURBOMOLE (7.0.2)

================================================================================
                                        WARNINGS
                       Please study these warnings very carefully!
================================================================================


WARNING: your system is open-shell and RHF/RKS was chosen
  ===> : WILL SWITCH to UHF/UKS


WARNING: MDCI localization with Augmented Hessian Foster-Boys
  ===> : Switching off randomization!

WARNING: Post HF methods need fully converged wavefunctions
  ===> : Setting SCFConvForced true
         You can overwrite this default with %scf ConvForced false 


INFO   : the flag for use of LIBINT has been found!

================================================================================
                                       INPUT FILE
================================================================================
NAME = 79_Au.in
|  1> #
|  2> # 79_Au CCSD(T)/Def2-TZVPPD
|  3> #
|  4> ! CCSD(T) Def2-TZVPPD tightscf slowconv
|  5> 
|  6> *xyz 0 2
|  7>  Au 0.0 0.0 0.0
|  8> *
|  9> 
| 10> %maxcore 5000 
| 11> 
| 12> %pal
| 13> nprocs 24
| 14> end
| 15> 
| 16> %method
| 17> NewNCore Au 60 end
| 18> end
| 19> 
| 20> 
| 21>                          ****END OF INPUT****
================================================================================

                       ****************************
                       * Single Point Calculation *
                       ****************************

---------------------------------
CARTESIAN COORDINATES (ANGSTROEM)
---------------------------------
  Au     0.000000    0.000000    0.000000

----------------------------
CARTESIAN COORDINATES (A.U.)
----------------------------
  NO LB      ZA    FRAG     MASS         X           Y           Z
   0 Au   19.0000*   0   196.966    0.000000    0.000000    0.000000
* core charge reduced due to ECP

--------------------------------
INTERNAL COORDINATES (ANGSTROEM)
--------------------------------
 Au     0   0   0     0.000000000000     0.00000000     0.00000000

---------------------------
INTERNAL COORDINATES (A.U.)
---------------------------
 Au     0   0   0     0.000000000000     0.00000000     0.00000000

---------------------
BASIS SET INFORMATION
---------------------
There are 1 groups of distinct atoms

 Group   1 Type Au  : 8s8p6d2f1g contracted to 6s5p3d2f1g pattern {311111/41111/411/11/1}

Atom   0Au   basis set group =>   1
-------------------------
ECP PARAMETER INFORMATION
-------------------------

 Group 1, Type Au ECP Def2-ECP (replacing 60 core electrons, lmax=3)

Atom   0Au   ECP group =>   1



           ************************************************************
           *        Program running with 24 parallel MPI-processes    *
           *              working on a common directory               *
           ************************************************************
------------------------------------------------------------------------------
                           ORCA GTO INTEGRAL CALCULATION
------------------------------------------------------------------------------

                         BASIS SET STATISTICS AND STARTUP INFO

 # of primitive gaussian shells          ...   25
 # of primitive gaussian functions       ...   85
 # of contracted shells                  ...   17
 # of contracted basis functions         ...   59
 Highest angular momentum                ...    4
 Maximum contraction depth               ...    4
 Integral package used                   ... LIBINT
 Integral threshhold            Thresh   ...  2.500e-11
 Primitive cut-off              TCut     ...  2.500e-12


------------------------------ INTEGRAL EVALUATION ----------------------------


 * One electron integrals 

   ECP integrals                         ... done
 Pre-screening matrix                    ... done
 Shell pair data                         ... done (   0.000 sec)



           ************************************************************
           *        Program running with 24 parallel MPI-processes    *
           *              working on a common directory               *
           ************************************************************
-------------------------------------------------------------------------------
                                 ORCA SCF
-------------------------------------------------------------------------------

------------
SCF SETTINGS
------------
Hamiltonian:
 Ab initio Hamiltonian  Method          .... Hartree-Fock(GTOs)


General Settings:
 Integral files         IntName         .... 79_Au
 Hartree-Fock type      HFTyp           .... UHF
 Total Charge           Charge          ....    0
 Multiplicity           Mult            ....    2
 Number of Electrons    NEL             ....   19
 Basis Dimension        Dim             ....   59
 Nuclear Repulsion      ENuc            ....      0.0000000000 Eh

Convergence Acceleration:
 DIIS                   CNVDIIS         .... on
   Start iteration      DIISMaxIt       ....     0
   Startup error        DIISStart       ....  0.200000
   # of expansion vecs  DIISMaxEq       ....     5
   Bias factor          DIISBfac        ....   1.050
   Max. coefficient     DIISMaxC        ....  10.000
 Newton-Raphson         CNVNR           .... off
 SOSCF                  CNVSOSCF        .... off
 Level Shifting         CNVShift        .... on
   Level shift para.    LevelShift      ....    0.2500
   Turn off err/grad.   ShiftErr        ....    0.0000
 Zerner damping         CNVZerner       .... off
 Static damping         CNVDamp         .... on
   Fraction old density DampFac         ....    0.8500
   Max. Damping (<1)    DampMax         ....    0.9800
   Min. Damping (>=0)   DampMin         ....    0.0000
   Turn off err/grad.   DampErr         ....    0.0300
 Fernandez-Rico         CNVRico         .... off

SCF Procedure:
 Maximum # iterations   MaxIter         ....   125
 SCF integral mode      SCFMode         .... Direct
   Integral package                     .... LIBINT
 Reset frequency        DirectResetFreq ....    20
 Integral Threshold     Thresh          ....  2.500e-11 Eh
 Primitive CutOff       TCut            ....  2.500e-12 Eh

Convergence Tolerance:
 Convergence Check Mode ConvCheckMode   .... Total+1el-Energy
 Convergence forced     ConvForced      .... 1
 Energy Change          TolE            ....  1.000e-08 Eh
 1-El. energy change                    ....  1.000e-05 Eh
 DIIS Error             TolErr          ....  5.000e-07


Diagonalization of the overlap matrix:
Smallest eigenvalue                        ... 1.668e-02
Time for diagonalization                   ...    0.002 sec
Threshold for overlap eigenvalues          ... 1.000e-08
Number of eigenvalues below threshold      ... 0
Time for construction of square roots      ...    0.109 sec
Total time needed                          ...    0.111 sec

-------------------
DFT GRID GENERATION
-------------------

General Integration Accuracy     IntAcc      ...  4.340
Radial Grid Type                 RadialGrid  ... Gauss-Chebyshev
Angular Grid (max. acc.)         AngularGrid ... Lebedev-110
Angular grid pruning method      GridPruning ... 3 (G Style)
Weight generation scheme         WeightScheme... Becke
Basis function cutoff            BFCut       ...    1.0000e-11
Integration weight cutoff        WCut        ...    1.0000e-14
Grids for H and He will be reduced by one unit

# of grid points (after initial pruning)     ...   3530 (   0.0 sec)
# of grid points (after weights+screening)   ...   3530 (   0.0 sec)
Grid point division into batches done        ...    0.0 sec
Reduced shell lists constructed in    0.0 sec

Total number of grid points                  ...     3530
Total number of batches                      ...       56
Average number of points per batch           ...       63
Average number of grid points per atom       ...     3530
Average number of shells per batch           ...     3.75 (22.06%)
Average number of basis functions per batch  ...     9.75 (16.53%)
Average number of large shells per batch     ...     3.00 (80.00%)
Average number of large basis fcns per batch ...     9.00 (92.31%)
Maximum spatial batch extension              ...  25.56, 38.92, 38.92 au
Average spatial batch extension              ...   1.31,  1.85,  2.08 au

Time for grid setup =    0.061 sec

------------------------------
INITIAL GUESS: MODEL POTENTIAL
------------------------------
Loading Hartree-Fock densities                     ... done
  calling /sw/apps/orca/orca_4_2_0_linux_x86-64_openmpi314/orca 79_Au_atom79.inp > 79_Au_atom79.out in order to generate an atomic fitting density for atom 0 (Au with ECP) on-the-fly... 
    atom 0 (Au), assumed electronic state with S=2: 1s2 2s2 2p6 3s2 3p6 4s2 3d10 4p6 5s2 4d10 5p6 6s1 4f14 5d10           ... done
Calculating cut-offs                               ... done
Setting up the integral package                    ... done
Initializing the effective Hamiltonian             ... done
Starting the Coulomb interaction                   ... done (   0.0 sec)
Reading the grid                                   ... done
Mapping shells                                     ... done
Starting the XC term evaluation                    ... done (   0.0 sec)
Transforming the Hamiltonian                       ... done (   0.0 sec)
Diagonalizing the Hamiltonian                      ... done (   0.0 sec)
Back transforming the eigenvectors                 ... done (   0.0 sec)
Now organizing SCF variables                       ... done
                      ------------------
                      INITIAL GUESS DONE (   1.4 sec)
                      ------------------
--------------
SCF ITERATIONS
--------------
ITER       Energy         Delta-E        Max-DP      RMS-DP      [F,P]     Damp
               ***  Starting incremental Fock matrix formation  ***
  0   -134.6662823228   0.000000000000 0.08791146  0.00178264  0.5810186 0.8500
  1   -134.6874128045  -0.021130481753 0.07847209  0.00163848  0.4943598 0.8500
                               ***Turning on DIIS***
  2   -134.7040731407  -0.016660336187 0.06609302  0.00140169  0.4195499 0.8500
  3   -135.0440521617  -0.339979020997 0.05436924  0.00116937  0.3563950 0.8500
  4   -135.1931938222  -0.149141660529 0.04627561  0.00101608  0.3036505 0.8500
  5   -135.1600689581   0.033124864154 0.04060200  0.00091051  0.2590480 0.8500
  6   -135.0977384090   0.062330549099 0.03569023  0.00081695  0.2208762 0.8500
  7   -135.0058531766   0.091885232350 0.03152655  0.00073606  0.1881604 0.8500
  8   -134.9617642896   0.044088887008 0.02735362  0.00065174  0.1600497 0.8500
  9   -134.9406851498   0.021079139827 0.02372848  0.00056937  0.1360695 0.8500
 10   -134.9235787378   0.017106411997 0.02108244  0.00049483  0.1157013 0.8500
 11   -134.9061029691   0.017475768695 0.01862463  0.00042959  0.0984078 0.8500
 12   -134.8886588804   0.017444088762 0.01640473  0.00037299  0.0837102 0.8500
 13   -134.8733858288   0.015273051531 0.01440667  0.00032350  0.0712057 0.8500
 14   -134.8607647436   0.012621085171 0.01261218  0.00028011  0.0605655 0.8500
 15   -134.8502898734   0.010474870223 0.01101122  0.00024217  0.0515139 0.8500
 16   -134.8413995651   0.008890308374 0.00959413  0.00020917  0.0438155 0.8500
 17   -134.8337542004   0.007645364605 0.00834757  0.00018056  0.0372683 0.8500
 18   -134.8271910475   0.006563152996 0.00725523  0.00015581  0.0316998 0.8500
 19   -134.8215929255   0.005598121952 0.04200181  0.00089596  0.0269634 0.0000
               *** Restarting incremental Fock matrix formation ***
                                   *** Resetting DIIS ***
 20   -134.7898632187   0.031729706843 0.00183912  0.00003309  0.0003137 0.0000
 21   -134.7898736516  -0.000010432920 0.00125232  0.00002237  0.0001506 0.0000
 22   -134.7896536540   0.000219997586 0.00092891  0.00001624  0.0000914 0.0000
 23   -134.7898756491  -0.000221995084 0.00057651  0.00001000  0.0000495 0.0000
 24   -134.7899358011  -0.000060152072 0.00030329  0.00000524  0.0000233 0.0000
 25   -134.7898979100   0.000037891099 0.00011988  0.00000206  0.0000095 0.0000
 26   -134.7898836217   0.000014288391 0.00005267  0.00000090  0.0000040 0.0000
 27   -134.7898738445   0.000009777125 0.00002110  0.00000036  0.0000016 0.0000
                            ***DIIS convergence achieved***

               *****************************************************
               *                     SUCCESS                       *
               *           SCF CONVERGED AFTER  28 CYCLES          *
               *****************************************************


----------------
TOTAL SCF ENERGY
----------------

Total Energy       :         -134.78986867 Eh           -3667.81879 eV

Components:
Nuclear Repulsion  :            0.00000000 Eh               0.00000 eV
Electronic Energy  :         -134.78986867 Eh           -3667.81879 eV
One Electron Energy:         -239.01944374 Eh           -6504.04972 eV
Two Electron Energy:          104.22957507 Eh            2836.23093 eV

Virial components:
Potential Energy   :         -180.86605339 Eh           -4921.61552 eV
Kinetic Energy     :           46.07618472 Eh            1253.79673 eV
Virial Ratio       :            3.92536957


---------------
SCF CONVERGENCE
---------------

  Last Energy change         ...    5.1750e-06  Tolerance :   1.0000e-08
  Last MAX-Density change    ...    8.1782e-06  Tolerance :   1.0000e-07
  Last RMS-Density change    ...    1.4059e-07  Tolerance :   5.0000e-09
  Last DIIS Error            ...    5.9612e-07  Tolerance :   5.0000e-07

             **** THE GBW FILE WAS UPDATED (79_Au.gbw) ****
             **** DENSITY FILE WAS UPDATED (79_Au.scfp) ****
             **** ENERGY FILE WAS UPDATED (79_Au.en.tmp) ****
----------------------
UHF SPIN CONTAMINATION
----------------------

Expectation value of <S**2>     :     0.752782
Ideal value S*(S+1) for S=0.5   :     0.750000
Deviation                       :     0.002782

             **** THE GBW FILE WAS UPDATED (79_Au.gbw) ****
             **** DENSITY FILE WAS UPDATED (79_Au.scfp) ****
----------------
ORBITAL ENERGIES
----------------
                 SPIN UP ORBITALS
  NO   OCC          E(Eh)            E(eV) 
   0   1.0000      -4.688714      -127.5864 
   1   1.0000      -2.724272       -74.1312 
   2   1.0000      -2.724272       -74.1312 
   3   1.0000      -2.724272       -74.1312 
   4   1.0000      -0.457707       -12.4548 
   5   1.0000      -0.457707       -12.4548 
   6   1.0000      -0.457707       -12.4548 
   7   1.0000      -0.457707       -12.4548 
   8   1.0000      -0.457707       -12.4548 
   9   1.0000      -0.292102        -7.9485 
  10   0.0000       0.054537         1.4840 
  11   0.0000       0.054537         1.4840 
  12   0.0000       0.054537         1.4840 
  13   0.0000       0.239125         6.5069 
  14   0.0000       0.292970         7.9721 
  15   0.0000       0.292970         7.9721 
  16   0.0000       0.292970         7.9721 
  17   0.0000       0.412979        11.2377 
  18   0.0000       0.412979        11.2377 
  19   0.0000       0.412979        11.2377 
  20   0.0000       0.412979        11.2377 
  21   0.0000       0.412979        11.2377 
  22   0.0000       1.286883        35.0179 
  23   0.0000       1.286883        35.0179 
  24   0.0000       1.286883        35.0179 
  25   0.0000       1.360533        37.0220 
  26   0.0000       1.360533        37.0220 
  27   0.0000       1.360533        37.0220 
  28   0.0000       1.360533        37.0220 
  29   0.0000       1.360533        37.0220 
  30   0.0000       1.360533        37.0220 
  31   0.0000       1.360533        37.0220 
  32   0.0000       1.764905        48.0255 
  33   0.0000       1.764905        48.0255 
  34   0.0000       1.764905        48.0255 
  35   0.0000       1.764905        48.0255 
  36   0.0000       1.764905        48.0255 
  37   0.0000       2.393089        65.1193 
  38   0.0000       4.044154       110.0470 
  39   0.0000       4.044154       110.0470 
  40   0.0000       4.044154       110.0470 
  41   0.0000       4.044154       110.0470 
  42   0.0000       4.044154       110.0470 
  43   0.0000       4.044154       110.0470 
  44   0.0000       4.044154       110.0470 
  45   0.0000       4.581550       124.6703 
  46   0.0000       4.581550       124.6703 
  47   0.0000       4.581550       124.6703 
  48   0.0000       4.581550       124.6703 
  49   0.0000       4.581550       124.6703 
  50   0.0000       4.581550       124.6703 
  51   0.0000       4.581550       124.6703 
  52   0.0000       4.581550       124.6703 
  53   0.0000       4.581550       124.6703 
  54   0.0000      27.736013       754.7353 
  55   0.0000      27.736013       754.7353 
  56   0.0000      27.736013       754.7353 
  57   0.0000      44.325179      1206.1494 
  58   0.0000     205.317056      5586.9611 

                 SPIN DOWN ORBITALS
  NO   OCC          E(Eh)            E(eV) 
   0   1.0000      -4.687288      -127.5476 
   1   1.0000      -2.728283       -74.2404 
   2   1.0000      -2.728283       -74.2404 
   3   1.0000      -2.728283       -74.2404 
   4   1.0000      -0.449197       -12.2233 
   5   1.0000      -0.449197       -12.2233 
   6   1.0000      -0.449197       -12.2233 
   7   1.0000      -0.449197       -12.2233 
   8   1.0000      -0.449197       -12.2233 
   9   0.0000      -0.004728        -0.1287 
  10   0.0000       0.084623         2.3027 
  11   0.0000       0.084623         2.3027 
  12   0.0000       0.084623         2.3027 
  13   0.0000       0.282620         7.6905 
  14   0.0000       0.334222         9.0946 
  15   0.0000       0.334222         9.0946 
  16   0.0000       0.334222         9.0946 
  17   0.0000       0.428463        11.6591 
  18   0.0000       0.428463        11.6591 
  19   0.0000       0.428463        11.6591 
  20   0.0000       0.428463        11.6591 
  21   0.0000       0.428463        11.6591 
  22   0.0000       1.310159        35.6512 
  23   0.0000       1.310159        35.6512 
  24   0.0000       1.310159        35.6512 
  25   0.0000       1.379180        37.5294 
  26   0.0000       1.379180        37.5294 
  27   0.0000       1.379180        37.5294 
  28   0.0000       1.379180        37.5294 
  29   0.0000       1.379180        37.5294 
  30   0.0000       1.379180        37.5294 
  31   0.0000       1.379180        37.5294 
  32   0.0000       1.777987        48.3815 
  33   0.0000       1.777987        48.3815 
  34   0.0000       1.777987        48.3815 
  35   0.0000       1.777987        48.3815 
  36   0.0000       1.777987        48.3815 
  37   0.0000       2.414701        65.7074 
  38   0.0000       4.042378       109.9987 
  39   0.0000       4.042378       109.9987 
  40   0.0000       4.042378       109.9987 
  41   0.0000       4.042378       109.9987 
  42   0.0000       4.042378       109.9987 
  43   0.0000       4.042378       109.9987 
  44   0.0000       4.042378       109.9987 
  45   0.0000       4.584399       124.7478 
  46   0.0000       4.584399       124.7478 
  47   0.0000       4.584399       124.7478 
  48   0.0000       4.584399       124.7478 
  49   0.0000       4.584399       124.7478 
  50   0.0000       4.584399       124.7478 
  51   0.0000       4.584399       124.7478 
  52   0.0000       4.584399       124.7478 
  53   0.0000       4.584399       124.7478 
  54   0.0000      27.740075       754.8458 
  55   0.0000      27.740075       754.8458 
  56   0.0000      27.740075       754.8458 
  57   0.0000      44.327670      1206.2172 
  58   0.0000     205.317186      5586.9647 

                    ********************************
                    * MULLIKEN POPULATION ANALYSIS *
                    ********************************

--------------------------------------------
MULLIKEN ATOMIC CHARGES AND SPIN POPULATIONS
--------------------------------------------
   0 Au:   -0.000000    1.000000
Sum of atomic charges         :   -0.0000000
Sum of atomic spin populations:    1.0000000

-----------------------------------------------------
MULLIKEN REDUCED ORBITAL CHARGES AND SPIN POPULATIONS
-----------------------------------------------------
CHARGE
  0 Aus       :     3.000000  s :     3.000000
      pz      :     2.000000  p :     6.000000
      px      :     2.000000
      py      :     2.000000
      dz2     :     2.000000  d :    10.000000
      dxz     :     2.000000
      dyz     :     2.000000
      dx2y2   :     2.000000
      dxy     :     2.000000
      f0      :     0.000000  f :     0.000000
      f+1     :     0.000000
      f-1     :     0.000000
      f+2     :     0.000000
      f-2     :     0.000000
      f+3     :     0.000000
      f-3     :     0.000000
      g0      :     0.000000  g :     0.000000
      g+1     :     0.000000
      g-1     :     0.000000
      g+2     :     0.000000
      g-2     :     0.000000
      g+3     :     0.000000
      g-3     :     0.000000
      g+4     :     0.000000
      g-4     :     0.000000

SPIN
  0 Aus       :     1.000000  s :     1.000000
      pz      :    -0.000000  p :     0.000000
      px      :    -0.000000
      py      :     0.000000
      dz2     :     0.000000  d :     0.000000
      dxz     :    -0.000000
      dyz     :     0.000000
      dx2y2   :     0.000000
      dxy     :     0.000000
      f0      :    -0.000000  f :    -0.000000
      f+1     :    -0.000000
      f-1     :    -0.000000
      f+2     :    -0.000000
      f-2     :    -0.000000
      f+3     :    -0.000000
      f-3     :    -0.000000
      g0      :    -0.000000  g :     0.000000
      g+1     :     0.000000
      g-1     :    -0.000000
      g+2     :     0.000000
      g-2     :     0.000000
      g+3     :    -0.000000
      g-3     :     0.000000
      g+4     :    -0.000000
      g-4     :     0.000000


                     *******************************
                     * LOEWDIN POPULATION ANALYSIS *
                     *******************************

-------------------------------------------
LOEWDIN ATOMIC CHARGES AND SPIN POPULATIONS
-------------------------------------------
   0 Au:   -0.000000    1.000000

----------------------------------------------------
LOEWDIN REDUCED ORBITAL CHARGES AND SPIN POPULATIONS
----------------------------------------------------
CHARGE
  0 Aus       :     3.000000  s :     3.000000
      pz      :     2.000000  p :     6.000000
      px      :     2.000000
      py      :     2.000000
      dz2     :     2.000000  d :    10.000000
      dxz     :     2.000000
      dyz     :     2.000000
      dx2y2   :     2.000000
      dxy     :     2.000000
      f0      :     0.000000  f :     0.000000
      f+1     :     0.000000
      f-1     :     0.000000
      f+2     :     0.000000
      f-2     :     0.000000
      f+3     :     0.000000
      f-3     :     0.000000
      g0      :     0.000000  g :     0.000000
      g+1     :     0.000000
      g-1     :     0.000000
      g+2     :     0.000000
      g-2     :     0.000000
      g+3     :     0.000000
      g-3     :     0.000000
      g+4     :     0.000000
      g-4     :     0.000000

SPIN
  0 Aus       :     1.000000  s :     1.000000
      pz      :    -0.000000  p :     0.000000
      px      :    -0.000000
      py      :     0.000000
      dz2     :     0.000000  d :     0.000000
      dxz     :    -0.000000
      dyz     :     0.000000
      dx2y2   :     0.000000
      dxy     :     0.000000
      f0      :    -0.000000  f :    -0.000000
      f+1     :    -0.000000
      f-1     :    -0.000000
      f+2     :    -0.000000
      f-2     :    -0.000000
      f+3     :    -0.000000
      f-3     :    -0.000000
      g0      :    -0.000000  g :     0.000000
      g+1     :     0.000000
      g-1     :    -0.000000
      g+2     :     0.000000
      g-2     :     0.000000
      g+3     :    -0.000000
      g-3     :     0.000000
      g+4     :    -0.000000
      g-4     :     0.000000


                      *****************************
                      * MAYER POPULATION ANALYSIS *
                      *****************************

  NA   - Mulliken gross atomic population
  ZA   - Total nuclear charge
  QA   - Mulliken gross atomic charge
  VA   - Mayer's total valence
  BVA  - Mayer's bonded valence
  FA   - Mayer's free valence

  ATOM       NA         ZA         QA         VA         BVA        FA
  0 Au    19.0000    19.0000    -0.0000     1.0056     0.0000     1.0056

  Mayer bond orders larger than 0.100000


-------
TIMINGS
-------

Total SCF time: 0 days 0 hours 0 min 11 sec 

Total time                  ....      11.869 sec
Sum of individual times     ....       6.140 sec  ( 51.7%)

Fock matrix formation       ....       4.123 sec  ( 34.7%)
Diagonalization             ....       0.135 sec  (  1.1%)
Density matrix formation    ....       0.013 sec  (  0.1%)
Population analysis         ....       0.161 sec  (  1.4%)
Initial guess               ....       1.301 sec  ( 11.0%)
Orbital Transformation      ....       0.000 sec  (  0.0%)
Orbital Orthonormalization  ....       0.000 sec  (  0.0%)
DIIS solution               ....       0.345 sec  (  2.9%)


           ************************************************************
           *        Program running with 24 parallel MPI-processes    *
           *              working on a common directory               *
           ************************************************************


------------------------------------------------------------------------------- 
                              ORCA-MATRIX DRIVEN CI                            
------------------------------------------------------------------------------- 

--------------------------------
AUTOMATIC CHOICE OF INCORE LEVEL
--------------------------------

Memory available                           ...   2500.00 MB
Memory needed for S+T                      ...      3.02 MB
Memory needed for J+K                      ...      6.09 MB
Memory needed for DIIS                     ...     42.31 MB
Memory needed for 3-ext                    ...      8.98 MB
Memory needed for 4-ext                    ...     22.44 MB
Memory needed for triples                  ...      4.49 MB
 -> Final InCoreLevel    ... 5
 -> check shows that triples correction can be computed


Wavefunction type
-----------------
Correlation treatment                      ...      CCSD     
Single excitations                         ... ON
Orbital optimization                       ... OFF
Calculation of Z vector                    ... OFF
Calculation of Brueckner orbitals          ... OFF
Perturbative triple excitations            ... ON
Calculation of F12 correction              ... OFF
Frozen core treatment                      ... chemical core (0 el)
Reference Wavefunction                     ... UHF
  Alpha-MOs occ    :     0 ...    9 ( 10 MO's/ 10 electrons)
  Beta-MOs occ     :     0 ...    8 (  9 MO's/  9 electrons)
  Alpha-MOs virt   :    10 ...   58 ( 49 MO's              )
  Beta-MOs virt    :     9 ...   58 ( 50 MO's              )
Number of AO's                             ...     59
Number of electrons                        ...     19
Number of correlated electrons             ...     19

Algorithmic settings
--------------------
Integral transformation                    ... AO direct full transformation
K(C) Formation                             ... FULL-MO TRAFO
Maximum number of iterations               ...        50
Convergence tolerance (max. residuum)      ... 1.000e-05
Level shift for amplitude update           ... 2.000e-01
Maximum number of DIIS vectors             ...         7
DIIS turned on at iteration                ...         0
Damping before turning on DIIS             ...     0.500
Damping after turning on DIIS              ...     0.000
Pair specific amplitude update             ... OFF
Natural orbital iterations                 ... OFF
Perturbative natural orbital generation    ... OFF
Printlevel                                 ... 2

Memory handling:
----------------
Maximum memory for working arrays          ...   2500 MB
Data storage in matrix containers          ... UNCOMPRESSED
Data type for integral storage             ... DOUBLE
In-Core Storage of quantities:
   Amplitudes+Sigma Vector      ... YES
   J+K operators                ... YES
   DIIS vectors                 ... YES
   3-external integrals         ... YES
   4-external integrals         ... YES


Initializing the integral package          ... done
Warning: reference  - re-canonicalizations have been set to INT 1 VIRT 1

--------------------------
UNRESTRICTED FOCK OPERATOR
--------------------------

<ss|ss>:          231 b            0 skpd (  0.0%)    0.000 s ( 0.000 ms/b)
<ss|sp>:          630 b            0 skpd (  0.0%)    0.000 s ( 0.000 ms/b)
<ss|sd>:          378 b            0 skpd (  0.0%)    0.000 s ( 0.000 ms/b)
<ss|sf>:          252 b            0 skpd (  0.0%)    0.000 s ( 0.000 ms/b)
<ss|sg>:          126 b            0 skpd (  0.0%)    0.000 s ( 0.000 ms/b)
<ss|pp>:          315 b            0 skpd (  0.0%)    0.000 s ( 0.000 ms/b)
<ss|pd>:          315 b            0 skpd (  0.0%)    0.000 s ( 0.001 ms/b)
<ss|pf>:          210 b            0 skpd (  0.0%)    0.000 s ( 0.001 ms/b)
<ss|pg>:          105 b            0 skpd (  0.0%)    0.000 s ( 0.001 ms/b)
<ss|dd>:          126 b            0 skpd (  0.0%)    0.000 s ( 0.003 ms/b)
<ss|df>:          126 b            0 skpd (  0.0%)    0.000 s ( 0.002 ms/b)
<ss|dg>:           63 b            0 skpd (  0.0%)    0.000 s ( 0.005 ms/b)
<ss|ff>:           63 b            0 skpd (  0.0%)    0.000 s ( 0.003 ms/b)
<ss|fg>:           42 b            0 skpd (  0.0%)    0.000 s ( 0.007 ms/b)
<ss|gg>:           21 b            0 skpd (  0.0%)    0.000 s ( 0.016 ms/b)
<sp|sp>:          465 b            0 skpd (  0.0%)    0.000 s ( 0.000 ms/b)
<sp|sd>:          540 b            0 skpd (  0.0%)    0.000 s ( 0.000 ms/b)
<sp|sf>:          360 b            0 skpd (  0.0%)    0.000 s ( 0.000 ms/b)
<sp|sg>:          180 b            0 skpd (  0.0%)    0.000 s ( 0.001 ms/b)
<sp|pp>:          450 b            0 skpd (  0.0%)    0.000 s ( 0.001 ms/b)
<sp|pd>:          450 b            0 skpd (  0.0%)    0.001 s ( 0.002 ms/b)
<sp|pf>:          300 b            1 skpd (  0.3%)    0.000 s ( 0.002 ms/b)
<sp|pg>:          150 b            1 skpd (  0.7%)    0.000 s ( 0.003 ms/b)
<sp|dd>:          180 b            0 skpd (  0.0%)    0.001 s ( 0.008 ms/b)
<sp|df>: done
<sp|dg>: done
<sp|ff>: done
<sp|fg>: done
<sp|gg>: done
<sd|sd>:          171 b            0 skpd (  0.0%)    0.000 s ( 0.001 ms/b)
<sd|sf>:          216 b            0 skpd (  0.0%)    0.000 s ( 0.001 ms/b)
<sd|sg>:          108 b            0 skpd (  0.0%)    0.000 s ( 0.002 ms/b)
<sd|pp>:          270 b            0 skpd (  0.0%)    0.001 s ( 0.003 ms/b)
<sd|pd>:          270 b            0 skpd (  0.0%)    0.001 s ( 0.003 ms/b)
<sd|pf>: done
<sd|pg>: done
<sd|dd>:          108 b            0 skpd (  0.0%)    0.002 s ( 0.021 ms/b)
<sd|df>:          108 b            0 skpd (  0.0%)    0.001 s ( 0.013 ms/b)
<sd|dg>:           54 b            0 skpd (  0.0%)    0.001 s ( 0.023 ms/b)
<sd|ff>: done
<sd|fg>: done
<sd|gg>: done
<sf|sf>:           78 b            0 skpd (  0.0%)    0.000 s ( 0.001 ms/b)
<sf|sg>:           72 b            0 skpd (  0.0%)    0.000 s ( 0.002 ms/b)
<sf|pp>:          180 b            0 skpd (  0.0%)    0.000 s ( 0.002 ms/b)
<sf|pd>: done
<sf|pf>: done
<sf|pg>: done
<sf|dd>:           72 b            0 skpd (  0.0%)    0.001 s ( 0.016 ms/b)
<sf|df>: done
<sf|dg>: done
<sf|ff>: done
<sf|fg>: done
<sf|gg>: done
<sg|sg>:           21 b            0 skpd (  0.0%)    0.000 s ( 0.005 ms/b)
<sg|pp>:           90 b            0 skpd (  0.0%)    0.000 s ( 0.004 ms/b)
<sg|pd>: done
<sg|pf>: done
<sg|pg>: done
<sg|dd>:           36 b            0 skpd (  0.0%)    0.001 s ( 0.030 ms/b)
<sg|df>: done
<sg|dg>: done
<sg|ff>: done
<sg|fg>: done
<sg|gg>: done
<pp|pp>:          120 b            0 skpd (  0.0%)    0.000 s ( 0.004 ms/b)
<pp|pd>:          225 b            0 skpd (  0.0%)    0.001 s ( 0.002 ms/b)
<pp|pf>:          150 b            0 skpd (  0.0%)    0.000 s ( 0.003 ms/b)
<pp|pg>:           75 b            0 skpd (  0.0%)    0.001 s ( 0.015 ms/b)
<pp|dd>:           90 b            0 skpd (  0.0%)    0.001 s ( 0.015 ms/b)
<pp|df>:           90 b            0 skpd (  0.0%)    0.001 s ( 0.011 ms/b)
<pp|dg>:           45 b            0 skpd (  0.0%)    0.001 s ( 0.019 ms/b)
<pp|ff>:           45 b            0 skpd (  0.0%)    0.001 s ( 0.016 ms/b)
<pp|fg>:           30 b            0 skpd (  0.0%)    0.001 s ( 0.023 ms/b)
<pp|gg>:           15 b            0 skpd (  0.0%)    0.001 s ( 0.061 ms/b)
<pd|pd>:          120 b            0 skpd (  0.0%)    0.001 s ( 0.008 ms/b)
<pd|pf>:          150 b            0 skpd (  0.0%)    0.001 s ( 0.004 ms/b)
<pd|pg>:           75 b            0 skpd (  0.0%)    0.002 s ( 0.023 ms/b)
<pd|dd>:           90 b            0 skpd (  0.0%)    0.002 s ( 0.026 ms/b)
<pd|df>:           90 b            0 skpd (  0.0%)    0.002 s ( 0.019 ms/b)
<pd|dg>:           45 b            0 skpd (  0.0%)    0.002 s ( 0.038 ms/b)
<pd|ff>: done
<pd|fg>: done
<pd|gg>: done
<pf|pf>:           55 b            0 skpd (  0.0%)    0.000 s ( 0.007 ms/b)
<pf|pg>:           50 b            0 skpd (  0.0%)    0.001 s ( 0.018 ms/b)
<pf|dd>:           60 b            0 skpd (  0.0%)    0.001 s ( 0.021 ms/b)
<pf|df>: done
<pf|dg>: done
<pf|ff>: done
<pf|fg>: done
<pf|gg>: done
<pg|pg>:           15 b            0 skpd (  0.0%)    0.001 s ( 0.039 ms/b)
<pg|dd>:           30 b            0 skpd (  0.0%)    0.001 s ( 0.041 ms/b)
<pg|df>: done
<pg|dg>: done
<pg|ff>: done
<pg|fg>: done
<pg|gg>: done
<dd|dd>:           21 b            0 skpd (  0.0%)    0.002 s ( 0.092 ms/b)
<dd|df>:           36 b            0 skpd (  0.0%)    0.001 s ( 0.036 ms/b)
<dd|dg>:           18 b            0 skpd (  0.0%)    0.002 s ( 0.102 ms/b)
<dd|ff>:           18 b            0 skpd (  0.0%)    0.001 s ( 0.042 ms/b)
<dd|fg>:           12 b            0 skpd (  0.0%)    0.001 s ( 0.094 ms/b)
<dd|gg>:            6 b            0 skpd (  0.0%)    0.002 s ( 0.257 ms/b)
<df|df>:           21 b            0 skpd (  0.0%)    0.001 s ( 0.056 ms/b)
<df|dg>:           18 b            0 skpd (  0.0%)    0.002 s ( 0.099 ms/b)
<df|ff>: done
<df|fg>: done
<df|gg>: done
<dg|dg>:            6 b            0 skpd (  0.0%)    0.001 s ( 0.250 ms/b)
<dg|ff>: done
<dg|fg>: done
<dg|gg>: done
<ff|ff>: done
<ff|fg>: done
<ff|gg>: done
<fg|fg>: done
<fg|gg>: done
<gg|gg>: done
Recanonicalizing the internal orbitals
Recanonicalizing the virtual orbitals
Time needed for Fock operator              ...            0.195 sec
Reference energy                           ...   -134.789864699
Warning: for UHF the TrafoType has to be JK
Warning: for UHF the K(C)-option cannot be MO but must be AOX

-------------------------------
PARTIAL EXCHANGE TRANSFORMATION
-------------------------------

Transformation type                        ... two-operators
Generation of integrals (i,mue|j,nue)      ... ON
Generation of integrals (mue,kappa|nue,tau)... ON
Generation of integrals (i,mue|a,nue)      ... ON
Dimension of the basis                     ...   59
Number of internal alpha-MOs               ...   10 (   0-   9)
Number of internal beta-MOs                ...    9 (   0-   8)
Number of external alpha-MOs               ...   49 (  10-  58)
Number of external beta-MOs                ...   50 (   9-  58)
Pair cutoff                                ... 0.000e+00 Eh
Number of AO pairs in the trafo            ... 1770
Total Number of distinct AO pairs          ... 1770
Memory devoted for trafo                   ... 2500.0 MB 
Max. Number of MO pairs treated together   ... 94133      
Number Format for Storage                  ... Double (8 Byte)
Integral package used                      ... LIBINT

Starting integral evaluation:
    ... done with AO integral generation
Closing buffer AOK[aa] ( 0.00 GB; CompressionRatio= 0.00)
Closing buffer AOK[bb] ( 0.00 GB; CompressionRatio= 0.00)
Closing buffer AOK[ab] ( 0.00 GB; CompressionRatio= 0.00)
Closing buffer AOK[ba] ( 0.00 GB; CompressionRatio= 0.00)
Collecting buffer AOK 
Closing buffer IAAO1[aa] ( 0.00 GB; CompressionRatio= 0.00)
Closing buffer IAAO1[bb] ( 0.00 GB; CompressionRatio= 0.00)
Closing buffer IAAO1[ab] ( 0.00 GB; CompressionRatio= 0.00)
Closing buffer IAAO1[ba] ( 0.00 GB; CompressionRatio= 0.00)
Closing buffer IAAO2[aa] ( 0.00 GB; CompressionRatio= 0.00)
Closing buffer IAAO2[bb] ( 0.00 GB; CompressionRatio= 0.00)
Closing buffer IAAO2[ab] ( 0.00 GB; CompressionRatio= 0.00)
Closing buffer IAAO2[ba] ( 0.00 GB; CompressionRatio= 0.00)
Collecting buffer IAAO 
Closing buffer PRQS    ( 0.00 GB; CompressionRatio= 0.00)
Collecting buffer PRQS 
Number of alpha/alpha MO pairs in trafo    ...   55
Number of beta /beta  MO pairs in trafo    ...   45
Number of alpha/ beta MO pairs in trafo    ...   90
------------------------
SORTING OF (i,mue|j,nue)
------------------------

SORTING OF ALPHA/ALPHA PAIRS
IBATCH = 1 of  1
Closing buffer KAO[aa] ( 0.00 GB; CompressionRatio= 1.00)
Collecting buffer KAO 
SORTING OF BETA /BETA  PAIRS
IBATCH = 1 of  1
Closing buffer KAO[bb] ( 0.00 GB; CompressionRatio= 1.00)
Collecting buffer KAO 
SORTING OF ALPHA/BETA  PAIRS
IBATCH = 1 of  1
Closing buffer KAO[ab] ( 0.00 GB; CompressionRatio= 0.999569274946)
Collecting buffer KAO[ab] 
------------------------
SORTING OF (i,mue|a,nue)
------------------------

Number of alpha/alpha (i,a) pairs in trafo  ...  490
Number of beta /beta  (i,a) pairs in trafo  ...  450
Number of alpha/ beta (i,a) pairs in trafo  ...  500
Number of beta /alpha (i,a) pairs in trafo  ...  441
Setting up the alpha/alpha list             ... done
Setting up the beta /beta  list             ... done
Setting up the alpha/beta  list             ... done
Setting up the beta /alpha list             ... done
    ... Now sorting (i,mue|a,nue)integrals
    ... Integrals (i,b|a,c) will be made on the fly
SORTING OF ALPHA/ALPHA PAIRS
IBATCH = 1 of  1
Closing buffer IPAQ[aa]  0.00 GB; CompressionRatio= 1.00)
SORTING OF BETA /BETA  PAIRS
IBATCH = 1 of  1
Closing buffer IPAQ[bb]( 0.00 GB; CompressionRatio= 1.00)
SORTING OF ALPHA/BETA  PAIRS (NMatSort_ab=21)
IBATCH = 1 of  1
Closing buffer IPAQ[ab]( 0.00 GB; CompressionRatio= 1.00)
SORTING OF BETA/ALPHA  PAIRS
IBATCH = 1 of  1
Closing buffer IPAQ[ba]( 0.00 GB; CompressionRatio= 1.00)
N(AO-Batches) Done                         ...         0 
N(AO-Batches) Skipped                      ...         0 
N(IJ)-pairs Skipped                        ...         0 
TOTAL TIME for half transformation         ...     3.205 sec
AO-integral generation                     ...     0.000 sec
Half transformation                        ...     0.000 sec
K-integral sorting                         ...     0.837 sec
<ss|**>: 
------------------------------
PARTIAL COULOMB TRANSFORMATION
------------------------------

Transformation type                        ... two-operators
Dimension of the basis                     ...   59
Number of internal alpha-MOs               ...   10 (0-9)
Number of internal beta-MOs                ...    9 (0-8)
Pair cutoff                                ... 0.000e+00 Eh
Number of AO pairs included in the trafo   ... 1770
Total Number of distinct AO pairs          ... 1770
Memory devoted for trafo                   ... 2500.0 MB 
Max. Number of MO pairs treated together   ... 185129      
Max. Number of MOs treated per batch       ... 3137      
Number Format for Storage                  ... Double (8 Byte)
AO-integral source                         ... DIRECT
Integral package used                      ... LIBINT

Starting integral evaluation:
<sp|**>:         3213 b        0 skpd     0.001 s (  0.000 ms/b)
<sd|**>:         4590 b        0 skpd     0.012 s (  0.003 ms/b)
        2754 b        0 skpd     0.013 s (  0.005 ms/b)
<sf|**>: <sg|**>:         1836 b        0 skpd     0.013 s (  0.007 ms/b)
<pp|**>:          918 b        0 skpd     0.014 s (  0.015 ms/b)
        2295 b        0 skpd     0.019 s (  0.008 ms/b)
<pd|**>:         2295 b        0 skpd     0.038 s (  0.017 ms/b)
<pf|**>:         1530 b        0 skpd     0.037 s (  0.024 ms/b)
<pg|**>:          765 b        0 skpd     0.035 s (  0.045 ms/b)
<dd|**>:          918 b        0 skpd     0.031 s (  0.033 ms/b)
<df|**>:          918 b        0 skpd     0.041 s (  0.045 ms/b)
<dg|**>:          459 b        0 skpd     0.044 s (  0.095 ms/b)
<ff|**>:          459 b        0 skpd     0.046 s (  0.099 ms/b)
<fg|**>:          306 b        0 skpd     0.048 s (  0.156 ms/b)
<gg|**>:          153 b        0 skpd     0.036 s (  0.237 ms/b)
Closing buffer AOJ[aa] ( 0.00 GB; CompressionRatio= 0.97)
Closing buffer AOJ[bb] ( 0.00 GB; CompressionRatio= 0.00)
Collecting buffer AOJ 
    ... done with AO integral generation
Number of Alpha-MO pairs included          ...   55
Number of Beta-MO pairs included           ...   45
    ... Now sorting integrals
SORTING ALPHA/ALPHA PAIRS
IBATCH = 1 of  1
Closing buffer JAO[aa] ( 0.00 GB; CompressionRatio= 1.00)
SORTING BETA/BETA PAIRS
IBATCH = 1 of  1
Closing buffer JAO[bb] ( 0.00 GB; CompressionRatio= 1.00)
Collecting buffer JAO 
TOTAL TIME for half transformation         ...     0.570 sec
AO-integral generation                     ...     0.311 sec
Half transformation                        ...     0.118 sec
J-integral sorting                         ...     0.103 sec

-------------------------- SECOND HALF TRANSFORMATION -------------------------
Formation of (ij|kl),(ij|ka), (ij|ab)      ... ok (     0.131 sec)
Formation of (ik|jl),(ik|ja), (ia|jb)      ... ok (     0.238 sec)


-----------------------
SPIN UNRESTRICTED GUESS
-----------------------

Entering MDCI_UHF_Guess, Tailored=0
Spin-components of the MP2 energy:
EMP2(aa)=     -0.110247764
EMP2(bb)=     -0.088113222
EMP2(ab)=     -0.388582288

Initial guess performed in     0.013 sec
E(0)                                       ...   -134.789864699
E(MP2)                                     ...     -0.586943274
Initial E(tot)                             ...   -135.376807972
<T|T>                                      ...      0.127305257
Number of pairs included                   ... 171

------------------------------------------------
                  UHF COUPLED CLUSTER ITERATIONS
------------------------------------------------

Number of amplitudes to be optimized       ...       319970

Iter       E(tot)           E(Corr)          Delta-E          Residual     Time      <S|S>**1/2
  0   -135.376807972     -0.586943274     -0.000000000      0.021198852    0.25      0.000000632
                           *** Turning on DIIS ***
  1   -135.327592647     -0.537727948      0.049215325      0.009127215    0.21      0.037140573
  2   -135.339390220     -0.549525522     -0.011797574      0.005946160    0.21      0.041557233
  3   -135.340545356     -0.550680657     -0.001155135      0.002898890    0.22      0.049511201
  4   -135.341041870     -0.551177171     -0.000496514      0.001012393    0.22      0.053429468
  5   -135.341160871     -0.551296172     -0.000119001      0.000213313    0.22      0.055190852
  6   -135.341171394     -0.551306696     -0.000010524      0.000032981    0.22      0.055529113
  7   -135.341172982     -0.551308283     -0.000001588      0.000006203    0.23      0.055578924
               --- The Coupled-Cluster iterations have converged ---

----------------------
COUPLED CLUSTER ENERGY
----------------------

E(0)                                       ...   -134.789864699
E(CORR)                                    ...     -0.551308283
E(TOT)                                     ...   -135.341172982
Singles norm <S|S>**1/2                    ...      0.055578924 ( 0.034704487, 0.020874437)  
T1 diagnostic                              ...      0.012750680                              

------------------
LARGEST AMPLITUDES
------------------
   9a-> 13a  -1a-> -1a       0.060032
   4b-> 18b  -1b-> -1b       0.016681
   7b-> 17b  -1b-> -1b       0.015590
   5b-> 21b  -1b-> -1b       0.015246
   4a-> 31a   5b-> 28b       0.015126
   9a-> 12a   4b-> 14b       0.014691
   9a-> 12a   5b-> 15b       0.014641
   9a-> 14a   5b-> 15b       0.013912
   9a-> 12a   7b-> 16b       0.013697
   9a-> 16a   8b-> 14b       0.013017
   7a-> 29a   8b-> 30b       0.012953
   6a-> 25a   5a-> 27a       0.012881
   6a-> 27a   5a-> 25a       0.012881
   6b-> 28b   5b-> 29b       0.012658
   6b-> 29b   5b-> 28b       0.012658
   9a-> 16a   8b-> 30b       0.012652

----------------------
UHF TRIPLES CORRECTION (Algorithm 1)
----------------------

Multiplier for the singles contribution    ...      1.000000000

SPIN-CASE Alpha-Alpha-Alpha:
10% done
20% done
30% done
40% done
50% done
60% done
70% done
80% done
90% done


SPIN-CASE Beta-Beta-Beta:
10% done
20% done
30% done
40% done
50% done
60% done
70% done
80% done
90% done


SPIN-CASE Alpha-Alpha-Beta:
10% done
20% done
30% done
40% done
50% done
60% done
70% done
80% done
90% done


SPIN-CASE Beta-Beta-Alpha:
10% done
20% done
30% done
40% done
50% done
60% done
70% done
80% done
90% done


Triples Correction (T)                     ...     -0.018733598
    alpha-alpha-alpha ... -0.001073688 (  5.7%)
    alpha-alpha-beta  ... -0.009592276 ( 51.2%)
    alpha-beta -beta  ... -0.007500272 ( 40.0%)
    beta -beta -beta  ... -0.000567362 (  3.0%)
Scaling of triples based on CCSD energies (Peterson et al. Molecular Physics 113, 1551 (2015))
E(T*) = f*E(T) where f = E(F12-CCSD)/E(CCSD) 
f = CCSD (with F12)/ CCSD (without F12)    ...      1.000000000
Scaled triples correction (T)              ...     -0.018733598

Final correlation energy                   ...     -0.570041881
E(CCSD)                                    ...   -135.341172982
E(CCSD(T))                                 ...   -135.359906580



        !!!!!!!!!!!!!!!!!!!!!!!!!!!!!!!!!!!!!!!!!!!!!!!!!!!!!!!!!!!!!!!!!!!!!!!!!! 
        !  Warning: Densities are linearized densities                           !
        !!!!!!!!!!!!!!!!!!!!!!!!!!!!!!!!!!!!!!!!!!!!!!!!!!!!!!!!!!!!!!!!!!!!!!!!!! 

NORM  =      1.119837754 sqrt=     1.058223868
W(HF) =      0.892986503
------------------------------------------------------------------------------
                           ORCA POPULATION ANALYSIS
------------------------------------------------------------------------------
Input electron density              ... 79_Au.mdcip
Input spin density                  ... 79_Au.mdcir
BaseName (.gbw .S,...)              ... 79_Au

                    ********************************
                    * MULLIKEN POPULATION ANALYSIS *
                    ********************************

------------------------------------------
MULLIKEN ATOMIC CHARGES AND SPIN DENSITIES
------------------------------------------
   0 Au:    0.000000    1.000000
Sum of atomic charges       :    0.0000000
Sum of atomic spin densities:    1.0000000

---------------------------------------------------
MULLIKEN REDUCED ORBITAL CHARGES AND SPIN DENSITIES
---------------------------------------------------
CHARGE
  0 Aus       :     2.982135  s :     2.982135
      pz      :     2.009907  p :     6.029722
      px      :     2.009907
      py      :     2.009907
      dz2     :     1.975907  d :     9.879536
      dxz     :     1.975907
      dyz     :     1.975907
      dx2y2   :     1.975907
      dxy     :     1.975907
      f0      :     0.013970  f :     0.097793
      f+1     :     0.013970
      f-1     :     0.013970
      f+2     :     0.013970
      f-2     :     0.013970
      f+3     :     0.013970
      f-3     :     0.013970
      g0      :     0.001202  g :     0.010814
      g+1     :     0.001202
      g-1     :     0.001202
      g+2     :     0.001202
      g-2     :     0.001202
      g+3     :     0.001202
      g-3     :     0.001202
      g+4     :     0.001202
      g-4     :     0.001202

SPIN
  0 Aus       :     0.978134  s :     0.978134
      pz      :     0.003874  p :     0.011623
      px      :     0.003874
      py      :     0.003874
      dz2     :     0.002425  d :     0.012125
      dxz     :     0.002425
      dyz     :     0.002425
      dx2y2   :     0.002425
      dxy     :     0.002425
      f0      :    -0.000289  f :    -0.002023
      f+1     :    -0.000289
      f-1     :    -0.000289
      f+2     :    -0.000289
      f-2     :    -0.000289
      f+3     :    -0.000289
      f-3     :    -0.000289
      g0      :     0.000016  g :     0.000142
      g+1     :     0.000016
      g-1     :     0.000016
      g+2     :     0.000016
      g-2     :     0.000016
      g+3     :     0.000016
      g-3     :     0.000016
      g+4     :     0.000016
      g-4     :     0.000016


                     *******************************
                     * LOEWDIN POPULATION ANALYSIS *
                     *******************************

-----------------------------------------
LOEWDIN ATOMIC CHARGES AND SPIN DENSITIES
-----------------------------------------
   0 Au:   -0.000000    1.000000

--------------------------------------------------
LOEWDIN REDUCED ORBITAL CHARGES AND SPIN DENSITIES
--------------------------------------------------
CHARGE
  0 Aus       :     2.982135  s :     2.982135
      pz      :     2.009907  p :     6.029722
      px      :     2.009907
      py      :     2.009907
      dz2     :     1.975907  d :     9.879536
      dxz     :     1.975907
      dyz     :     1.975907
      dx2y2   :     1.975907
      dxy     :     1.975907
      f0      :     0.013970  f :     0.097793
      f+1     :     0.013970
      f-1     :     0.013970
      f+2     :     0.013970
      f-2     :     0.013970
      f+3     :     0.013970
      f-3     :     0.013970
      g0      :     0.001202  g :     0.010814
      g+1     :     0.001202
      g-1     :     0.001202
      g+2     :     0.001202
      g-2     :     0.001202
      g+3     :     0.001202
      g-3     :     0.001202
      g+4     :     0.001202
      g-4     :     0.001202

SPIN
  0 Aus       :     0.978134  s :     0.978134
      pz      :     0.003874  p :     0.011623
      px      :     0.003874
      py      :     0.003874
      dz2     :     0.002425  d :     0.012125
      dxz     :     0.002425
      dyz     :     0.002425
      dx2y2   :     0.002425
      dxy     :     0.002425
      f0      :    -0.000289  f :    -0.002023
      f+1     :    -0.000289
      f-1     :    -0.000289
      f+2     :    -0.000289
      f-2     :    -0.000289
      f+3     :    -0.000289
      f-3     :    -0.000289
      g0      :     0.000016  g :     0.000142
      g+1     :     0.000016
      g-1     :     0.000016
      g+2     :     0.000016
      g-2     :     0.000016
      g+3     :     0.000016
      g-3     :     0.000016
      g+4     :     0.000016
      g-4     :     0.000016


                      *****************************
                      * MAYER POPULATION ANALYSIS *
                      *****************************

  NA   - Mulliken gross atomic population
  ZA   - Total nuclear charge
  QA   - Mulliken gross atomic charge
  VA   - Mayer's total valence
  BVA  - Mayer's bonded valence
  FA   - Mayer's free valence

  ATOM       NA         ZA         QA         VA         BVA        FA
  0 Au    19.0000    19.0000     0.0000     1.8519     0.0000     1.8519





------------------------------------------------------------------------------- 
                                     TIMINGS                                   
------------------------------------------------------------------------------- 


Total execution time                   ...        6.989 sec

Fock Matrix Formation                  ...        0.195 sec (  2.8%)
Initial Guess                          ...        0.013 sec (  0.2%)
DIIS Solver                            ...        0.176 sec (  2.5%)
State Vector Update                    ...        0.011 sec (  0.2%)
Sigma-vector construction              ...        1.584 sec ( 22.7%)
  <D|H|D>(0-ext Fock)                  ...        0.003 sec (  0.2% of sigma)
  <D|H|D>(0-ext)                       ...        0.011 sec (  0.7% of sigma)
  <D|H|D>(2-ext Fock)                  ...        0.001 sec (  0.1% of sigma)
  <D|H|D>(2-ext)                       ...        0.051 sec (  3.2% of sigma)
  <D|H|D>(4-ext)                       ...        0.553 sec ( 34.9% of sigma)
  <S|H|0>                              ...        0.090 sec (  5.7% of sigma)
  <S|H|D>(1-ext)                       ...        0.001 sec (  0.1% of sigma)
  <D|H|S>(1-ext)                       ...        0.017 sec (  1.1% of sigma)
  Fock-dressing                        ...        0.258 sec ( 16.3% of sigma)
  (ik|jl)-dressing                     ...        0.016 sec (  1.0% of sigma)
  (ij|ab),(ia|jb)-dressing             ...        0.450 sec ( 28.4% of sigma)
  Pair energies                        ...        0.002 sec (  0.1% of sigma)
Total Time for computing (T)           ...        0.261 sec (  3.7% of ALL)
  I/O of integral and amplitudes       ...        0.055 sec ( 20.9% of (T))
  External N**7 contributions          ...        0.074 sec ( 28.2% of (T))
  Internal N**7 contributions          ...        0.032 sec ( 12.2% of (T))
  N**6 triples energy contributions    ...        0.094 sec ( 35.9% of (T))


-------------------------   --------------------
FINAL SINGLE POINT ENERGY      -135.359906579856
-------------------------   --------------------


                            ***************************************
                            *     ORCA property calculations      *
                            ***************************************

                                    ---------------------
                                    Active property flags
                                    ---------------------
   (+) Dipole Moment


------------------------------------------------------------------------------
                       ORCA ELECTRIC PROPERTIES CALCULATION
------------------------------------------------------------------------------

Dipole Moment Calculation                       ... on
Quadrupole Moment Calculation                   ... off
Polarizability Calculation                      ... off
GBWName                                         ... 79_Au.gbw
Electron density file                           ... 79_Au.scfp
The origin for moment calculation is the CENTER OF MASS  = ( 0.000000,  0.000000  0.000000)

-------------
DIPOLE MOMENT
-------------
                                X             Y             Z
Electronic contribution:     -0.00000      -0.00000       0.00000
Nuclear contribution   :      0.00000       0.00000       0.00000
                        -----------------------------------------
Total Dipole Moment    :     -0.00000      -0.00000       0.00000
                        -----------------------------------------
Magnitude (a.u.)       :      0.00000
Magnitude (Debye)      :      0.00000



--------------------
Rotational spectrum 
--------------------
 
Rotational constants in cm-1:     0.000000     0.000000     0.000000 
Rotational constants in MHz :     0.000000     0.000000     0.000000 

 Dipole components along the rotational axes: 
x,y,z [a.u.] :    -0.000000    -0.000000     0.000000 
x,y,z [Debye]:    -0.000000    -0.000000     0.000000 

 

                           *** MDCI DENSITY ***

------------------------------------------------------------------------------
                       ORCA ELECTRIC PROPERTIES CALCULATION
------------------------------------------------------------------------------

Dipole Moment Calculation                       ... on
Quadrupole Moment Calculation                   ... off
Polarizability Calculation                      ... off
GBWName                                         ... 79_Au.gbw
Electron density file                           ... 79_Au.mdcip
The origin for moment calculation is the CENTER OF MASS  = ( 0.000000,  0.000000  0.000000)

-------------
DIPOLE MOMENT
-------------
                                X             Y             Z
Electronic contribution:      0.00000      -0.00000       0.00000
Nuclear contribution   :      0.00000       0.00000       0.00000
                        -----------------------------------------
Total Dipole Moment    :      0.00000      -0.00000       0.00000
                        -----------------------------------------
Magnitude (a.u.)       :      0.00000
Magnitude (Debye)      :      0.00000



--------------------
Rotational spectrum 
--------------------
 
Rotational constants in cm-1:     0.000000     0.000000     0.000000 
Rotational constants in MHz :     0.000000     0.000000     0.000000 

 Dipole components along the rotational axes: 
x,y,z [a.u.] :     0.000000    -0.000000     0.000000 
x,y,z [Debye]:     0.000000    -0.000000     0.000000 

 

Timings for individual modules:

Sum of individual times         ...       20.684 sec (=   0.345 min)
GTO integral calculation        ...        0.955 sec (=   0.016 min)   4.6 %
SCF iterations                  ...       12.231 sec (=   0.204 min)  59.1 %
MDCI module                     ...        7.499 sec (=   0.125 min)  36.3 %
                             ****ORCA TERMINATED NORMALLY****
TOTAL RUN TIME: 0 days 0 hours 0 minutes 21 seconds 437 msec
