
                                 *****************
                                 * O   R   C   A *
                                 *****************

           --- An Ab Initio, DFT and Semiempirical electronic structure package ---

                  #######################################################
                  #                        -***-                        #
                  #          Department of theory and spectroscopy      #
                  #               Directorship: Frank Neese             #
                  #        Max Planck Institute fuer Kohlenforschung    #
                  #                Kaiser Wilhelm Platz 1               #
                  #                 D-45470 Muelheim/Ruhr               #
                  #                      Germany                        #
                  #                                                     #
                  #                  All rights reserved                #
                  #                        -***-                        #
                  #######################################################


                         Program Version 4.2.0 -  RELEASE  -


 With contributions from (in alphabetic order):
   Daniel Aravena         : Magnetic Suceptibility
   Michael Atanasov       : Ab Initio Ligand Field Theory (pilot matlab implementation)
   Alexander A. Auer      : GIAO ZORA, VPT2
   Ute Becker             : Parallelization
   Giovanni Bistoni       : ED, misc. LED, open-shell LED, HFLED
   Martin Brehm           : Molecular dynamics
   Dmytro Bykov           : SCF Hessian
   Vijay G. Chilkuri      : MRCI spin determinant printing, contributions to CSF-ICE
   Dipayan Datta          : RHF DLPNO-CCSD density
   Achintya Kumar Dutta   : EOM-CC, STEOM-CC
   Dmitry Ganyushin       : Spin-Orbit,Spin-Spin,Magnetic field MRCI
   Miquel Garcia          : C-PCM Hessian, Gaussian charge scheme
   Yang Guo               : DLPNO-NEVPT2, CIM, IAO-localization
   Andreas Hansen         : Spin unrestricted coupled pair/coupled cluster methods
   Benjamin Helmich-Paris : CASSCF linear response (MC-RPA)
   Lee Huntington         : MR-EOM, pCC
   Robert Izsak           : Overlap fitted RIJCOSX, COSX-SCS-MP3, EOM
   Christian Kollmar      : KDIIS, OOCD, Brueckner-CCSD(T), CCSD density
   Simone Kossmann        : Meta GGA functionals, TD-DFT gradient, OOMP2, MP2 Hessian
   Martin Krupicka        : AUTO-CI
   Lucas Lang             : DCDCAS
   Dagmar Lenk            : GEPOL surface, SMD
   Dimitrios Liakos       : Extrapolation schemes; Compound Job, initial MDCI parallelization
   Dimitrios Manganas     : Further ROCIS development; embedding schemes
   Dimitrios Pantazis     : SARC Basis sets
   Taras Petrenko         : DFT Hessian,TD-DFT gradient, ASA, ECA, R-Raman, ABS, FL, XAS/XES, NRVS
   Peter Pinski           : DLPNO-MP2, DLPNO-MP2 Gradient
   Christoph Reimann      : Effective Core Potentials
   Marius Retegan         : Local ZFS, SOC
   Christoph Riplinger    : Optimizer, TS searches, QM/MM, DLPNO-CCSD(T), (RO)-DLPNO pert. Triples
   Tobias Risthaus        : Range-separated hybrids, TD-DFT gradient, RPA, STAB
   Michael Roemelt        : Original ROCIS implementation
   Masaaki Saitow         : Open-shell DLPNO-CCSD energy and density
   Barbara Sandhoefer     : DKH picture change effects
   Avijit Sen             : IP-ROCIS
   Kantharuban Sivalingam : CASSCF convergence, NEVPT2, FIC-MRCI
   Bernardo de Souza      : ESD, SOC TD-DFT
   Georgi Stoychev        : AutoAux, RI-MP2 NMR
   Willem Van den Heuvel  : Paramagnetic NMR
   Boris Wezisla          : Elementary symmetry handling
   Frank Wennmohs         : Technical directorship


 We gratefully acknowledge several colleagues who have allowed us to
 interface, adapt or use parts of their codes:
   Stefan Grimme, W. Hujo, H. Kruse,             : VdW corrections, initial TS optimization,
                  C. Bannwarth                     DFT functionals, gCP, sTDA/sTD-DF
   Ed Valeev, F. Pavosevic, A. Kumar             : LibInt (2-el integral package), F12 methods
   Garnet Chan, S. Sharma, J. Yang, R. Olivares  : DMRG
   Ulf Ekstrom                                   : XCFun DFT Library
   Mihaly Kallay                                 : mrcc  (arbitrary order and MRCC methods)
   Andreas Klamt, Michael Diedenhofen            : otool_cosmo (COSMO solvation model)
   Jiri Pittner, Ondrej Demel                    : Mk-CCSD
   Frank Weinhold                                : gennbo (NPA and NBO analysis)
   Christopher J. Cramer and Donald G. Truhlar   : smd solvation model
   Lars Goerigk                                  : TD-DFT with DH, B97 family of functionals
   V. Asgeirsson, H. Jonsson                     : NEB implementation
   FAccTs GmbH                                   : IRC, NEB, NEB-TS, Multilevel, MM, QM/MM, CI optimization
   S Lehtola, MJT Oliveira, MAL Marques          : LibXC Library


 Your calculation uses the libint2 library for the computation of 2-el integrals
 For citations please refer to: http://libint.valeyev.net

 Your ORCA version has been built with support for libXC version: 4.2.3
 For citations please refer to: https://tddft.org/programs/libxc/

 This ORCA versions uses:
   CBLAS   interface :  Fast vector & matrix operations
   LAPACKE interface :  Fast linear algebra routines
   SCALAPACK package :  Parallel linear algebra routines


----- Orbital basis set information -----
Your calculation utilizes the basis: def2-SVP
   F. Weigend and R. Ahlrichs, Phys. Chem. Chem. Phys. 7, 3297 (2005).

----- AuxJ basis set information -----
Your calculation utilizes the auxiliary basis: def2/J
   F. Weigend, Phys. Chem. Chem. Phys. 8, 1057 (2006).

================================================================================
                                        WARNINGS
                       Please study these warnings very carefully!
================================================================================


INFO   : the flag for use of LIBINT has been found!

================================================================================
                                       INPUT FILE
================================================================================
NAME = 80_Hg_atom80.inp
|  1> # input to generate an atomic fitting density for Hg
|  2> # this file is use internally by ORCA
|  3> #
|  4> # atomic ground state (S=1): 1s2 2s2 2p6 3s2 3p6 4s2 3d10 4p6 5s2 4d10 5p6 6s2 4f14 5d10 
|  5> #
|  6> ! RHF AllowRHF def2-SVP def2/J  NoMulliken NoLoewdin NoMayer NoPrintMOs 
|  7> 
|  8> %output print[p_atomdensfit] 2 end
|  9> 
| 10> %scf
| 11>   guess hcore
| 12>   maxiter 1000
| 13>   maxdisk 500000
| 14>   SCFMode Conventional
| 15>   lshift 1.000000
| 16>   hftyp rohf
| 17>   rohf_case sahf
| 18>   rohf_numop   2
| 19>   rohf_norb[1] 5
| 20>   rohf_nel[1]  10
| 21> end
| 22> 
| 23> %basis
| 24>   NewECP 80
| 25>     N_core 60
| 26>     lmax f
| 27>     s 3
| 28>       1      12.9815487000    275.7372117000  2
| 29>       2       6.4907744000     49.0892125000  2
| 30>       3       3.8857911000    -30.3649964000  2
| 31>     p 3
| 32>       1      10.5380958000    241.5400740000  2
| 33>       2       5.2690479000     27.3965908000  2
| 34>       3       3.8857911000    -30.3649964000  2
| 35>     d 3
| 36>       1       8.1017205000    127.8670076000  2
| 37>       2       4.0508603000     16.6083115000  2
| 38>       3       3.8857911000    -30.3649964000  2
| 39>     f 1
| 40>       1       3.8857911000     30.3649964000  2
| 41>   end
| 42>   NewGTO 80
| 43>     s 3 
| 44>      1      48.0137869900      0.0289798220
| 45>      2      21.2398750950     -0.8656835524
| 46>      3      15.8761008790      1.8193112096
| 47>     s 1 
| 48>      1       5.5180531820      1.0000000000
| 49>     s 1 
| 50>      1       1.5099145479      1.0000000000
| 51>     s 1 
| 52>      1       0.7068348216      1.0000000000
| 53>     s 1 
| 54>      1       0.1626626558      1.0000000000
| 55>     s 1 
| 56>      1       0.0569605891      1.0000000000
| 57>     p 4 
| 58>      1      17.5000000000     -0.2060509577
| 59>      2      15.2525948550      0.3652916199
| 60>      3       6.4404715169     -0.7215344055
| 61>      4       1.8180159920      1.2955770587
| 62>     p 1 
| 63>      1       0.9006798180      1.0000000000
| 64>     p 1 
| 65>      1       0.4130454012      1.0000000000
| 66>     p 1 
| 67>      1       0.1184570265      1.0000000000
| 68>     p 1 
| 69>      1       0.0360876193      1.0000000000
| 70>     d 4 
| 71>      1      10.0281977010      0.0565424472
| 72>      2       7.5920661493     -0.1342297359
| 73>      3       1.9144256118      0.4413812282
| 74>      4       0.8864155210      0.6453713071
| 75>     d 1 
| 76>      1       0.3815423532      1.0000000000
| 77>     d 1 
| 78>      1       0.1488074009      1.0000000000
| 79>     p 1 
| 80>      1       0.0602993078      1.0000000000
| 81>   end
| 82>   NewAuxGTO 80
| 83>     S 1
| 84>      1 1310.72 1.0
| 85>     S 1
| 86>      1  655.36 1.0
| 87>     S 1
| 88>      1  327.68 1.0
| 89>     S 1
| 90>      1  163.84 1.0
| 91>     S 1
| 92>      1   81.82 1.0
| 93>     S 1
| 94>      1   40.96 1.0
| 95>     S 1
| 96>      1   20.48 1.0
| 97>     S 1
| 98>      1   10.24 1.0
| 99>     S 1
|100>      1    5.12 1.0
|101>     S 1
|102>      1    2.56 1.0
|103>     S 1
|104>      1    1.28 1.0
|105>     S 1
|106>      1    0.64 1.0
|107>     S 1
|108>      1    0.32 1.0
|109>     S 1
|110>      1    0.16 1.0
|111>     S 1
|112>      1    0.08 1.0
|113>     S 1
|114>      1    0.04 1.0
|115>     S 1
|116>      1    0.02 1.0
|117>     S 1
|118>      1    0.01 1.0
|119>   end
|120> end
|121> 
|122> * xyz 0 1
|123> 80  0.0 0.0 0.0
|124> *
|125> 
|126> 
|127>                          ****END OF INPUT****
================================================================================

                       ****************************
                       * Single Point Calculation *
                       ****************************

---------------------------------
CARTESIAN COORDINATES (ANGSTROEM)
---------------------------------
  Hg     0.000000    0.000000    0.000000

----------------------------
CARTESIAN COORDINATES (A.U.)
----------------------------
  NO LB      ZA    FRAG     MASS         X           Y           Z
   0 Hg   20.0000*   0   200.590    0.000000    0.000000    0.000000
* core charge reduced due to ECP

--------------------------------
INTERNAL COORDINATES (ANGSTROEM)
--------------------------------
 Hg     0   0   0     0.000000000000     0.00000000     0.00000000

---------------------------
INTERNAL COORDINATES (A.U.)
---------------------------
 Hg     0   0   0     0.000000000000     0.00000000     0.00000000

---------------------
BASIS SET INFORMATION
---------------------
There are 1 groups of distinct atoms

 Group   1 Type Hg  : 8s9p6d contracted to 6s6p3d pattern {311111/411111/411}

Atom   0Hg   basis set group =>   1
---------------------------------
AUXILIARY/J BASIS SET INFORMATION
---------------------------------
There are 1 groups of distinct atoms

 Group   1 Type Hg  : 18s contracted to 18s pattern {111111111111111111}

Atom   0Hg   basis set group =>   1
-------------------------
ECP PARAMETER INFORMATION
-------------------------

 Group 1, Type Hg ECP (replacing 60 core electrons, lmax=3)

Atom   0Hg   ECP group =>   1

------------------------------------------------------------------------------
                           ORCA GTO INTEGRAL CALCULATION
------------------------------------------------------------------------------

                         BASIS SET STATISTICS AND STARTUP INFO

 # of primitive gaussian shells          ...   23
 # of primitive gaussian functions       ...   65
 # of contracted shells                  ...   15
 # of contracted basis functions         ...   39
 Highest angular momentum                ...    2
 Maximum contraction depth               ...    4
 Integral package used                   ... LIBINT
 Integral threshhold            Thresh   ...  1.000e-10
 Primitive cut-off              TCut     ...  1.000e-11
 Storage cut-off                TCutStore... -1.000e+00
 Buffer length                           ... 1048576 integrals/buffer
 Generate file with integrals 4 distinct ...false


------------------------------ INTEGRAL EVALUATION ----------------------------


 * One electron integrals 

   ECP integrals                         ... done
 Pre-screening matrix                    ... done
 Shell pair data                         ... done (   0.000 sec)
 Statistics run                          ... done
 Maximum amount of storage needed        ...     3 MB
 Maximum amount of storage dedicated     ... 500000 MB
 Beginning two electron integral evaluation:
 Starting repulsion integrals
  <ss|ss>  ...          231 b.         0 skpd (  0.0%)     0.000 s. (  0.000 ms/b)
  <ss|sp>  ...          756 b.         0 skpd (  0.0%)     0.000 s. (  0.000 ms/b)
  <ss|sd>  ...          378 b.         0 skpd (  0.0%)     0.000 s. (  0.000 ms/b)
  <ss|pp>  ...          441 b.         0 skpd (  0.0%)     0.000 s. (  0.000 ms/b)
  <ss|pd>  ...          378 b.         0 skpd (  0.0%)     0.000 s. (  0.001 ms/b)
  <ss|dd>  ...          126 b.         0 skpd (  0.0%)     0.000 s. (  0.002 ms/b)
  <sp|sp>  ...          666 b.         0 skpd (  0.0%)     0.000 s. (  0.000 ms/b)
  <sp|sd>  ...          648 b.         0 skpd (  0.0%)     0.001 s. (  0.001 ms/b)
  <sp|pp>  ...          756 b.         0 skpd (  0.0%)     0.001 s. (  0.001 ms/b)
  <sp|pd>  ...          648 b.         0 skpd (  0.0%)     0.001 s. (  0.002 ms/b)
  <sp|dd>  ...          216 b.         0 skpd (  0.0%)     0.001 s. (  0.004 ms/b)
  <sd|sd>  ...          171 b.         0 skpd (  0.0%)     0.000 s. (  0.002 ms/b)
  <sd|pp>  ...          378 b.         0 skpd (  0.0%)     0.001 s. (  0.002 ms/b)
  <sd|pd>  ...          324 b.         0 skpd (  0.0%)     0.002 s. (  0.005 ms/b)
  <sd|dd>  ...          108 b.         0 skpd (  0.0%)     0.001 s. (  0.012 ms/b)
  <pp|pp>  ...          231 b.         0 skpd (  0.0%)     0.001 s. (  0.003 ms/b)
  <pp|pd>  ...          378 b.         0 skpd (  0.0%)     0.002 s. (  0.005 ms/b)
  <pp|dd>  ...          126 b.         0 skpd (  0.0%)     0.002 s. (  0.013 ms/b)
  <pd|pd>  ...          171 b.         0 skpd (  0.0%)     0.002 s. (  0.014 ms/b)
  <pd|dd>  ...          108 b.         0 skpd (  0.0%)     0.004 s. (  0.034 ms/b)
  <dd|dd>  ...           21 b.         0 skpd (  0.0%)     0.002 s. (  0.117 ms/b)


                                      INTEGRAL STATISTICS

Integral type statistics:
 Number of integrals retained            ...     304590 
 One   Center Integrals retained         ...     304590 (100.0%)
 Two   Center Integrals retained         ...          0 (  0.0%)
 Three Center Integrals retained         ...          0 (  0.0%)
 Four  Center Integrals retained         ...          0 (  0.0%)

Storage statistics:
 Number of char integrals                ...          0 (  0.0%)
 Number of short int integrals           ...          0 (  0.0%)
 Number of double/float integrals        ...     304590 (100.0%)
 Amount of memory used                   ...          3 MB
 Amount of memory estimated              ...          3 MB ( 95.4%)

Prescreening statistics:
 Total number of shell quadruples        ...       7260 
 Number of skipped shell quadruples      ...          0 (  0.0%)
 # of negligible batches done            ...          0 (  0.0%)

Timings:
 Total evaluation time               ...     0.187 sec (   0.003 min)
 One electron matrix time            ...     0.016 sec (   0.000 min) =  8.5%
 Schwartz matrix evaluation time     ...     0.070 sec (   0.001 min) = 37.5%
 Statistics run                      ...     0.002 sec (   0.000 min) =  1.3%
 Repulsion integral time             ...     0.022 sec (   0.000 min) = 11.7%

-------------------------------------------------------------------------------
                                 ORCA SCF
-------------------------------------------------------------------------------

------------
SCF SETTINGS
------------
Hamiltonian:
 Ab initio Hamiltonian  Method          .... Hartree-Fock(GTOs)


General Settings:
 Integral files         IntName         .... 80_Hg_atom80
 Hartree-Fock type      HFTyp           .... ROHF
 Total Charge           Charge          ....    0
 Multiplicity           Mult            ....    1
 Number of Electrons    NEL             ....   20
 Basis Dimension        Dim             ....   39
 Nuclear Repulsion      ENuc            ....      0.0000000000 Eh

Convergence Acceleration:
 DIIS                   CNVDIIS         .... on
   Start iteration      DIISMaxIt       ....    12
   Startup error        DIISStart       ....  0.200000
   # of expansion vecs  DIISMaxEq       ....     5
   Bias factor          DIISBfac        ....   1.050
   Max. coefficient     DIISMaxC        ....  10.000
 Newton-Raphson         CNVNR           .... off
 SOSCF                  CNVSOSCF        .... off
 Level Shifting         CNVShift        .... on
   Level shift para.    LevelShift      ....    1.0000
   Turn off err/grad.   ShiftErr        ....    0.0010
 Zerner damping         CNVZerner       .... off
 Static damping         CNVDamp         .... on
   Fraction old density DampFac         ....    0.7000
   Max. Damping (<1)    DampMax         ....    0.9800
   Min. Damping (>=0)   DampMin         ....    0.0000
   Turn off err/grad.   DampErr         ....    0.1000
 Fernandez-Rico         CNVRico         .... off

SCF Procedure:
 Maximum # iterations   MaxIter         ....  1000
 SCF integral mode      SCFMode         .... Conventional
 Integral Threshold     Thresh          ....  1.000e-10 Eh
 Primitive CutOff       TCut            ....  1.000e-11 Eh
 Integral Buffer length BufferLength    .... 1048576
 Integral index format  IndFormat       ....     0
 Integral value format  ValFormat       ....     0
 Integral Storage       Thresh          ....  1.000e-10 Eh

Convergence Tolerance:
 Convergence Check Mode ConvCheckMode   .... Total+1el-Energy
 Convergence forced     ConvForced      .... 0
 Energy Change          TolE            ....  1.000e-06 Eh
 1-El. energy change                    ....  1.000e-03 Eh
 DIIS Error             TolErr          ....  1.000e-06


Diagonalization of the overlap matrix:
Smallest eigenvalue                        ... 9.235e-03
Time for diagonalization                   ...    0.000 sec
Threshold for overlap eigenvalues          ... 1.000e-08
Number of eigenvalues below threshold      ... 0
Time for construction of square roots      ...    0.002 sec
Total time needed                          ...    0.002 sec

--------------------
INITIAL GUESS: HCORE
--------------------
AVERAGE-CONFIGURATION (SAHF) CASE FOUND

-------------------
FINAL ROHF SETTINGS
-------------------
Number of operators             ... 2
  operator   0:   5 orbitals  10 electrons n(mue)= 2.000
  operator   1:   5 orbitals  10 electrons n(mue)= 2.000
Vector coupling coefficients a and b (Zerner convention):
   1.000    1.000           1.000    1.000 
   1.000    1.000           1.000    1.000 

                      -----------------
                      INTIAL GUESS DONE 
                      -----------------

 InCore treatment chosen:
   Memory dedicated               ...    1024 MB
   Memory needed                  ...      3 MB
   Number of tiny    integrals    ...       0
   Number of small   integrals    ...       0
   Number of regular integrals    ...  304590

--------------
SCF ITERATIONS
--------------
ITER       Energy         Delta-E        Max-DP      RMS-DP      [F,P]     Damp
  0   -141.2467460052   0.000000000000 2.97850142  0.08690893  1.4674266 0.7000
  1   -149.0262257253  -7.779479720101 2.23701497  0.06420187  0.8674572 0.7000
                            ****Activating DIIS****
  2   -150.3138385936  -1.287612868292 1.59106478  0.04529006  0.1662516 0.7000
  3   -150.7927223616  -0.478883768057 3.69113112  0.10498076  0.0922576 0.0000
  4   -152.1423149793  -1.349592617674 0.02425450  0.00094678  0.2509657 0.7000
  5   -151.9426993117   0.199615667552 0.02158954  0.00076063  0.3190807 0.7000
  6   -151.8947231866   0.047976125123 0.01837966  0.00064608  0.3302795 0.7000
  7   -151.8417727237   0.052950462933 0.01236554  0.00041879  0.3446108 0.7000
  8   -151.8459971997  -0.004224476017 0.07263454  0.00328301  0.3419725 0.7000
  9   -152.4024957333  -0.556498533591 0.18678650  0.00989524  0.0629333 0.0000
 10   -152.4625531164  -0.060057383094 0.01206652  0.00053445  0.1291190 0.7000
 11   -152.4916352398  -0.029082123373 0.01426895  0.00061971  0.1005650 0.7000
 12   -152.5054763198  -0.013841080052 0.05499424  0.00235226  0.0851681 0.0000
 13   -152.5307577246  -0.025281404779 0.05743167  0.00195515  0.0574179 0.0000
 14   -152.5446537859  -0.013896061335 0.07390858  0.00203398  0.0317389 0.0000
 15   -152.5509801249  -0.006326338986 0.05059397  0.00119928  0.0198296 0.0000
 16   -152.5527801371  -0.001800012188 0.06138118  0.00144915  0.0135827 0.0000
 17   -152.5540093318  -0.001229194680 0.02889360  0.00069345  0.0065395 0.0000
 18   -152.5542585701  -0.000249238324 0.00957479  0.00023138  0.0032189 0.0000
 19   -152.5542996304  -0.000041060284 0.00910352  0.00022143  0.0020412 0.0000
 20   -152.5543220286  -0.000022398255 0.00501293  0.00012296  0.0008831 0.0000
 21   -152.5543272667  -0.000005238101 0.00180449  0.00004513  0.0002657 0.0000
                 **** Energy Check signals convergence ****

               *****************************************************
               *                     SUCCESS                       *
               *           SCF CONVERGED AFTER  22 CYCLES          *
               *****************************************************


----------------
TOTAL SCF ENERGY
----------------

Total Energy       :         -152.55432792 Eh           -4151.21431 eV

Components:
Nuclear Repulsion  :            0.00000000 Eh               0.00000 eV
Electronic Energy  :         -152.55432792 Eh           -4151.21431 eV
One Electron Energy:         -270.13767033 Eh           -7350.81972 eV
Two Electron Energy:          117.58334241 Eh            3199.60541 eV

Virial components:
Potential Energy   :         -203.63651300 Eh           -5541.23123 eV
Kinetic Energy     :           51.08218508 Eh            1390.01692 eV
Virial Ratio       :            3.98644875


---------------
SCF CONVERGENCE
---------------

  Last Energy change         ...   -6.5385e-07  Tolerance :   1.0000e-06
  Last MAX-Density change    ...    1.9214e-04  Tolerance :   1.0000e-05
  Last RMS-Density change    ...    5.4794e-06  Tolerance :   1.0000e-06
  Last DIIS Error            ...    7.6637e-05  Tolerance :   1.0000e-06

             **** THE GBW FILE WAS UPDATED (80_Hg_atom80.gbw) ****
             **** DENSITY FILE WAS UPDATED (80_Hg_atom80.scfp) ****
             **** ENERGY FILE WAS UPDATED (80_Hg_atom80.en.tmp) ****
             **** THE GBW FILE WAS UPDATED (80_Hg_atom80.gbw) ****
             **** DENSITY FILE WAS UPDATED (80_Hg_atom80.scfp) ****
----------------
ORBITAL ENERGIES
----------------

  NO   OCC          E(Eh)            E(eV) 
   0   2.0000      -4.874342      -132.6376 
   1   2.0000      -3.031621       -82.4946 
   2   2.0000      -3.031621       -82.4946 
   3   2.0000      -3.031621       -82.4946 
   4   2.0000      -0.604053       -16.4371 
   5   2.0000      -0.604061       -16.4373 
   6   2.0000      -0.604059       -16.4373 
   7   2.0000      -0.604058       -16.4373 
   8   2.0000      -0.604058       -16.4372 
   9   2.0000      -0.496079       -13.4990 
  10   0.0000       0.043157         1.1744 
  11   0.0000       0.043157         1.1744 
  12   0.0000       0.043158         1.1744 
  13   0.0000       0.155784         4.2391 
  14   0.0000       0.155784         4.2391 
  15   0.0000       0.155784         4.2391 
  16   0.0000       0.271863         7.3978 
  17   0.0000       0.464993        12.6531 
  18   0.0000       0.464993        12.6531 
  19   0.0000       0.464993        12.6531 
  20   0.0000       0.476718        12.9722 
  21   0.0000       0.476718        12.9722 
  22   0.0000       0.476718        12.9722 
  23   0.0000       0.476718        12.9722 
  24   0.0000       0.476719        12.9722 
  25   0.0000       1.583778        43.0968 
  26   0.0000       1.583778        43.0968 
  27   0.0000       1.583778        43.0968 
  28   0.0000       1.988909        54.1210 
  29   0.0000       1.988909        54.1210 
  30   0.0000       1.988909        54.1210 
  31   0.0000       1.988909        54.1210 
  32   0.0000       1.988910        54.1210 
  33   0.0000       2.642417        71.9038 
  34   0.0000      34.441092       937.1897 
  35   0.0000      34.441092       937.1898 
  36   0.0000      34.441093       937.1898 
  37   0.0000      35.696660       971.3555 
  38   0.0000     124.787832      3395.6495 
CleanUpVectors: The d-vectors have cracked symmetry at i=4
CleanUpVectors: The d-vectors have cracked symmetry at i=5
CleanUpVectors: The d-vectors have cracked symmetry at i=6
CleanUpVectors: The d-vectors have cracked symmetry at i=7
CleanUpVectors: The d-vectors have cracked symmetry at i=8
--------------------------
ATOM BASIS FOR ELEMENT Hg
--------------------------
 NewGTO Hg
 S 8
    1         48.013786990000        -0.005998469188
    2         21.239875095000         0.179185921685
    3         15.876100879000        -0.376575198895
    4          5.518053182000         0.835164045792
    5          1.509914547900        -0.991522160166
    6          0.706834821600        -0.507725654690
    7          0.162662655800         0.108923051538
    8          0.056960589100         0.107374769761
 D 23
    1         48.013786990000         0.000000000094
    2         21.239875095000        -0.000000006345
    3         15.876100879000         0.000000017839
    4          5.518053182000        -0.000000123516
    5          1.509914547900         0.000000742911
    6          0.706834821600         0.000000801335
    7          0.162662655800        -0.000008713901
    8          0.056960589100        -0.000020415096
    9         10.028197701000        -0.023968199414
   10          7.592066149300         0.056899643305
   11          1.914425611800        -0.187100378898
   12          0.886415521000        -0.273571253995
   13         10.028197701000        -0.014390902442
   14          7.592066149300         0.034163484776
   15          1.914425611800        -0.112338154946
   16          0.886415521000        -0.164256695262
   17         10.028197701000         0.022939545094
   18          7.592066149300        -0.054457654950
   19          1.914425611800         0.179070505248
   20          0.886415521000         0.261830269733
   21         10.028197701000        -0.011705252131
   22          7.592066149300         0.027787847537
   23          1.914425611800        -0.091373451587
 S 8
    1         48.013786990000         0.053832766048
    2         21.239875095000        -1.608089247348
    3         15.876100879000         3.379543004631
    4          5.518053182000        -3.597033976629
    5          1.509914547900         2.774442421032
    6          0.706834821600        -1.715259400138
    7          0.162662655800         0.483867213859
    8          0.056960589100        -0.180273444449
 S 8
    1         48.013786990000         0.056906344575
    2         21.239875095000        -1.699903005815
    3         15.876100879000         3.572497808394
    4          5.518053182000        -1.540066598945
    5          1.509914547900         0.880724819562
    6          0.706834821600        -0.519385595833
    7          0.162662655800         0.144703379933
    8          0.056960589100        -0.054074149108
 P 9
    1         17.500000000000        -0.086453928943
    2         15.252594855000         0.153267405806
    3          6.440471516900        -0.302738142640
    4          1.818015992000         0.543592362898
    5          0.900679818000         0.497628337658
    6          0.413045401200         0.137811994771
    7          0.118457026500         0.006966113024
    8          0.036087619300         0.000511328347
    9          0.060299307800        -0.001635410630
 D 23
    1         10.028197701000         0.005861924792
    2          7.592066149300        -0.013915998612
    3          1.914425611800         0.045759313447
    4          0.886415521000         0.066907575685
    5         10.028197701000        -0.031857963721
    6          7.592066149300         0.075629659988
    7          1.914425611800        -0.248689397994
    8          0.886415521000        -0.363624439806
    9         10.028197701000        -0.017888140751
   10          7.592066149300         0.042465802732
   11          1.914425611800        -0.139638270466
   12          0.886415521000        -0.204173914462
   13         10.028197701000        -0.013777592241
   14          7.592066149300         0.032707508418
   15          1.914425611800        -0.107550537444
   16          0.886415521000        -0.157256418024
   17         10.028197701000         0.005688155307
   18          7.592066149300        -0.013503476105
   19          1.914425611800         0.044402835394
   20          0.886415521000         0.064924183645
   21          0.381542353200         0.048771691497
   22          0.381542353200        -0.265060851743
   23          0.381542353200        -0.148830787337
 P 9
    1         17.500000000000        -0.010111028946
    2         15.252594855000         0.017925052054
    3          6.440471516900        -0.035406073046
    4          1.818015992000         0.063574648177
    5          0.900679818000         0.091461037886
    6          0.413045401200         0.009744867128
    7          0.118457026500        -0.491433643858
    8          0.036087619300        -1.640362113470
    9          0.060299307800         1.053536812288
 P 9
    1         17.500000000000        -0.015799145921
    2         15.252594855000         0.028009069558
    3          6.440471516900        -0.055324311457
    4          1.818015992000         0.099339557706
    5          0.900679818000         0.205843719826
    6          0.413045401200        -0.199596451319
    7          0.118457026500         0.682211250961
    8          0.036087619300         2.769077463185
    9          0.060299307800        -3.581301533879
 P 9
    1         17.500000000000        -0.023739315675
    2         15.252594855000         0.042085575214
    3          6.440471516900        -0.083128626110
    4          1.818015992000         0.149264595130
    5          0.900679818000         0.164472192116
    6          0.413045401200         0.297670431316
    7          0.118457026500        -3.549475938172
    8          0.036087619300        -2.575849908678
    9          0.060299307800         5.385337400667
 P 9
    1         17.500000000000        -0.058282569564
    2         15.252594855000         0.103324607105
    3          6.440471516900        -0.204089705046
    4          1.818015992000         0.366460611939
    5          0.900679818000         1.410817116591
    6          0.413045401200        -2.903652313238
    7          0.118457026500         3.306600876726
    8          0.036087619300         1.390779718666
    9          0.060299307800        -3.317585231724
 P 9
    1         17.500000000000        -0.583337920524
    2         15.252594855000         1.034154154467
    3          6.440471516900        -2.042690722670
    4          1.818015992000         3.667826812051
    5          0.900679818000        -4.482602688771
    6          0.413045401200         2.606498541727
    7          0.118457026500        -1.623938356302
    8          0.036087619300        -0.665295722993
    9          0.060299307800         1.567665450649
 D 6
    1         10.028197701000        -0.012697286497
    2          7.592066149300         0.030142901441
    3          1.914425611800        -0.099117462836
    4          0.886415521000        -0.144925888234
    5          0.381542353200        -0.477035093730
    6          0.148807400900         1.234824099167
 D 6
    1         10.028197701000        -0.065791588124
    2          7.592066149300         0.156186863775
    3          1.914425611800        -0.513581802866
    4          0.886415521000        -0.750940316991
    5          0.381542353200         1.755356624037
    6          0.148807400900        -0.802108859779
 end
  // -----------------------------------------------
  // The basis set
  // -----------------------------------------------
  BAS[ATNO] = new BFNGauss[NSH];
  // Basis function   1 L = s
  InitBFNGauss(BAS[ATNO][  0]);
  BAS[ATNO][  0].l  = 0;
  BAS[ATNO][  0].ng = 8;
  BAS[ATNO][  0].a[  0] =        48.013786990000;     BAS[ATNO][  0].d[  0] =         0.005998469188;
  BAS[ATNO][  0].a[  1] =        21.239875095000;     BAS[ATNO][  0].d[  1] =        -0.179185921685;
  BAS[ATNO][  0].a[  2] =        15.876100879000;     BAS[ATNO][  0].d[  2] =         0.376575198895;
  BAS[ATNO][  0].a[  3] =         5.518053182000;     BAS[ATNO][  0].d[  3] =        -0.835164045792;
  BAS[ATNO][  0].a[  4] =         1.509914547900;     BAS[ATNO][  0].d[  4] =         0.991522160166;
  BAS[ATNO][  0].a[  5] =         0.706834821600;     BAS[ATNO][  0].d[  5] =         0.507725654690;
  BAS[ATNO][  0].a[  6] =         0.162662655800;     BAS[ATNO][  0].d[  6] =        -0.108923051538;
  BAS[ATNO][  0].a[  7] =         0.056960589100;     BAS[ATNO][  0].d[  7] =        -0.107374769761;

  // Basis function   2 L = d
  InitBFNGauss(BAS[ATNO][  1]);
  BAS[ATNO][  1].l  = 2;
  BAS[ATNO][  1].ng = 23;
  BAS[ATNO][  1].a[  0] =        48.013786990000;     BAS[ATNO][  1].d[  0] =        -0.000000000094;
  BAS[ATNO][  1].a[  1] =        21.239875095000;     BAS[ATNO][  1].d[  1] =         0.000000006345;
  BAS[ATNO][  1].a[  2] =        15.876100879000;     BAS[ATNO][  1].d[  2] =        -0.000000017839;
  BAS[ATNO][  1].a[  3] =         5.518053182000;     BAS[ATNO][  1].d[  3] =         0.000000123516;
  BAS[ATNO][  1].a[  4] =         1.509914547900;     BAS[ATNO][  1].d[  4] =        -0.000000742911;
  BAS[ATNO][  1].a[  5] =         0.706834821600;     BAS[ATNO][  1].d[  5] =        -0.000000801335;
  BAS[ATNO][  1].a[  6] =         0.162662655800;     BAS[ATNO][  1].d[  6] =         0.000008713901;
  BAS[ATNO][  1].a[  7] =         0.056960589100;     BAS[ATNO][  1].d[  7] =         0.000020415096;
  BAS[ATNO][  1].a[  8] =        10.028197701000;     BAS[ATNO][  1].d[  8] =         0.023968199414;
  BAS[ATNO][  1].a[  9] =         7.592066149300;     BAS[ATNO][  1].d[  9] =        -0.056899643305;
  BAS[ATNO][  1].a[ 10] =         1.914425611800;     BAS[ATNO][  1].d[ 10] =         0.187100378898;
  BAS[ATNO][  1].a[ 11] =         0.886415521000;     BAS[ATNO][  1].d[ 11] =         0.273571253995;
  BAS[ATNO][  1].a[ 12] =        10.028197701000;     BAS[ATNO][  1].d[ 12] =         0.014390902442;
  BAS[ATNO][  1].a[ 13] =         7.592066149300;     BAS[ATNO][  1].d[ 13] =        -0.034163484776;
  BAS[ATNO][  1].a[ 14] =         1.914425611800;     BAS[ATNO][  1].d[ 14] =         0.112338154946;
  BAS[ATNO][  1].a[ 15] =         0.886415521000;     BAS[ATNO][  1].d[ 15] =         0.164256695262;
  BAS[ATNO][  1].a[ 16] =        10.028197701000;     BAS[ATNO][  1].d[ 16] =        -0.022939545094;
  BAS[ATNO][  1].a[ 17] =         7.592066149300;     BAS[ATNO][  1].d[ 17] =         0.054457654950;
  BAS[ATNO][  1].a[ 18] =         1.914425611800;     BAS[ATNO][  1].d[ 18] =        -0.179070505248;
  BAS[ATNO][  1].a[ 19] =         0.886415521000;     BAS[ATNO][  1].d[ 19] =        -0.261830269733;
  BAS[ATNO][  1].a[ 20] =        10.028197701000;     BAS[ATNO][  1].d[ 20] =         0.011705252131;
  BAS[ATNO][  1].a[ 21] =         7.592066149300;     BAS[ATNO][  1].d[ 21] =        -0.027787847537;
  BAS[ATNO][  1].a[ 22] =         1.914425611800;     BAS[ATNO][  1].d[ 22] =         0.091373451587;

  // Basis function   3 L = s
  InitBFNGauss(BAS[ATNO][  2]);
  BAS[ATNO][  2].l  = 0;
  BAS[ATNO][  2].ng = 8;
  BAS[ATNO][  2].a[  0] =        48.013786990000;     BAS[ATNO][  2].d[  0] =        -0.053832766048;
  BAS[ATNO][  2].a[  1] =        21.239875095000;     BAS[ATNO][  2].d[  1] =         1.608089247348;
  BAS[ATNO][  2].a[  2] =        15.876100879000;     BAS[ATNO][  2].d[  2] =        -3.379543004631;
  BAS[ATNO][  2].a[  3] =         5.518053182000;     BAS[ATNO][  2].d[  3] =         3.597033976629;
  BAS[ATNO][  2].a[  4] =         1.509914547900;     BAS[ATNO][  2].d[  4] =        -2.774442421032;
  BAS[ATNO][  2].a[  5] =         0.706834821600;     BAS[ATNO][  2].d[  5] =         1.715259400138;
  BAS[ATNO][  2].a[  6] =         0.162662655800;     BAS[ATNO][  2].d[  6] =        -0.483867213859;
  BAS[ATNO][  2].a[  7] =         0.056960589100;     BAS[ATNO][  2].d[  7] =         0.180273444449;

  // Basis function   4 L = s
  InitBFNGauss(BAS[ATNO][  3]);
  BAS[ATNO][  3].l  = 0;
  BAS[ATNO][  3].ng = 8;
  BAS[ATNO][  3].a[  0] =        48.013786990000;     BAS[ATNO][  3].d[  0] =         0.056906344575;
  BAS[ATNO][  3].a[  1] =        21.239875095000;     BAS[ATNO][  3].d[  1] =        -1.699903005815;
  BAS[ATNO][  3].a[  2] =        15.876100879000;     BAS[ATNO][  3].d[  2] =         3.572497808394;
  BAS[ATNO][  3].a[  3] =         5.518053182000;     BAS[ATNO][  3].d[  3] =        -1.540066598945;
  BAS[ATNO][  3].a[  4] =         1.509914547900;     BAS[ATNO][  3].d[  4] =         0.880724819562;
  BAS[ATNO][  3].a[  5] =         0.706834821600;     BAS[ATNO][  3].d[  5] =        -0.519385595833;
  BAS[ATNO][  3].a[  6] =         0.162662655800;     BAS[ATNO][  3].d[  6] =         0.144703379933;
  BAS[ATNO][  3].a[  7] =         0.056960589100;     BAS[ATNO][  3].d[  7] =        -0.054074149108;

  // Basis function   5 L = p
  InitBFNGauss(BAS[ATNO][  4]);
  BAS[ATNO][  4].l  = 1;
  BAS[ATNO][  4].ng = 9;
  BAS[ATNO][  4].a[  0] =        17.500000000000;     BAS[ATNO][  4].d[  0] =        -0.086453928943;
  BAS[ATNO][  4].a[  1] =        15.252594855000;     BAS[ATNO][  4].d[  1] =         0.153267405806;
  BAS[ATNO][  4].a[  2] =         6.440471516900;     BAS[ATNO][  4].d[  2] =        -0.302738142640;
  BAS[ATNO][  4].a[  3] =         1.818015992000;     BAS[ATNO][  4].d[  3] =         0.543592362898;
  BAS[ATNO][  4].a[  4] =         0.900679818000;     BAS[ATNO][  4].d[  4] =         0.497628337658;
  BAS[ATNO][  4].a[  5] =         0.413045401200;     BAS[ATNO][  4].d[  5] =         0.137811994771;
  BAS[ATNO][  4].a[  6] =         0.118457026500;     BAS[ATNO][  4].d[  6] =         0.006966113024;
  BAS[ATNO][  4].a[  7] =         0.036087619300;     BAS[ATNO][  4].d[  7] =         0.000511328347;
  BAS[ATNO][  4].a[  8] =         0.060299307800;     BAS[ATNO][  4].d[  8] =        -0.001635410630;

  // Basis function   6 L = d
  InitBFNGauss(BAS[ATNO][  5]);
  BAS[ATNO][  5].l  = 2;
  BAS[ATNO][  5].ng = 23;
  BAS[ATNO][  5].a[  0] =        10.028197701000;     BAS[ATNO][  5].d[  0] =        -0.005861924792;
  BAS[ATNO][  5].a[  1] =         7.592066149300;     BAS[ATNO][  5].d[  1] =         0.013915998612;
  BAS[ATNO][  5].a[  2] =         1.914425611800;     BAS[ATNO][  5].d[  2] =        -0.045759313447;
  BAS[ATNO][  5].a[  3] =         0.886415521000;     BAS[ATNO][  5].d[  3] =        -0.066907575685;
  BAS[ATNO][  5].a[  4] =        10.028197701000;     BAS[ATNO][  5].d[  4] =         0.031857963721;
  BAS[ATNO][  5].a[  5] =         7.592066149300;     BAS[ATNO][  5].d[  5] =        -0.075629659988;
  BAS[ATNO][  5].a[  6] =         1.914425611800;     BAS[ATNO][  5].d[  6] =         0.248689397994;
  BAS[ATNO][  5].a[  7] =         0.886415521000;     BAS[ATNO][  5].d[  7] =         0.363624439806;
  BAS[ATNO][  5].a[  8] =        10.028197701000;     BAS[ATNO][  5].d[  8] =         0.017888140751;
  BAS[ATNO][  5].a[  9] =         7.592066149300;     BAS[ATNO][  5].d[  9] =        -0.042465802732;
  BAS[ATNO][  5].a[ 10] =         1.914425611800;     BAS[ATNO][  5].d[ 10] =         0.139638270466;
  BAS[ATNO][  5].a[ 11] =         0.886415521000;     BAS[ATNO][  5].d[ 11] =         0.204173914462;
  BAS[ATNO][  5].a[ 12] =        10.028197701000;     BAS[ATNO][  5].d[ 12] =         0.013777592241;
  BAS[ATNO][  5].a[ 13] =         7.592066149300;     BAS[ATNO][  5].d[ 13] =        -0.032707508418;
  BAS[ATNO][  5].a[ 14] =         1.914425611800;     BAS[ATNO][  5].d[ 14] =         0.107550537444;
  BAS[ATNO][  5].a[ 15] =         0.886415521000;     BAS[ATNO][  5].d[ 15] =         0.157256418024;
  BAS[ATNO][  5].a[ 16] =        10.028197701000;     BAS[ATNO][  5].d[ 16] =        -0.005688155307;
  BAS[ATNO][  5].a[ 17] =         7.592066149300;     BAS[ATNO][  5].d[ 17] =         0.013503476105;
  BAS[ATNO][  5].a[ 18] =         1.914425611800;     BAS[ATNO][  5].d[ 18] =        -0.044402835394;
  BAS[ATNO][  5].a[ 19] =         0.886415521000;     BAS[ATNO][  5].d[ 19] =        -0.064924183645;
  BAS[ATNO][  5].a[ 20] =         0.381542353200;     BAS[ATNO][  5].d[ 20] =        -0.048771691497;
  BAS[ATNO][  5].a[ 21] =         0.381542353200;     BAS[ATNO][  5].d[ 21] =         0.265060851743;
  BAS[ATNO][  5].a[ 22] =         0.381542353200;     BAS[ATNO][  5].d[ 22] =         0.148830787337;

  // Basis function   7 L = p
  InitBFNGauss(BAS[ATNO][  6]);
  BAS[ATNO][  6].l  = 1;
  BAS[ATNO][  6].ng = 9;
  BAS[ATNO][  6].a[  0] =        17.500000000000;     BAS[ATNO][  6].d[  0] =         0.010111028946;
  BAS[ATNO][  6].a[  1] =        15.252594855000;     BAS[ATNO][  6].d[  1] =        -0.017925052054;
  BAS[ATNO][  6].a[  2] =         6.440471516900;     BAS[ATNO][  6].d[  2] =         0.035406073046;
  BAS[ATNO][  6].a[  3] =         1.818015992000;     BAS[ATNO][  6].d[  3] =        -0.063574648177;
  BAS[ATNO][  6].a[  4] =         0.900679818000;     BAS[ATNO][  6].d[  4] =        -0.091461037886;
  BAS[ATNO][  6].a[  5] =         0.413045401200;     BAS[ATNO][  6].d[  5] =        -0.009744867128;
  BAS[ATNO][  6].a[  6] =         0.118457026500;     BAS[ATNO][  6].d[  6] =         0.491433643858;
  BAS[ATNO][  6].a[  7] =         0.036087619300;     BAS[ATNO][  6].d[  7] =         1.640362113470;
  BAS[ATNO][  6].a[  8] =         0.060299307800;     BAS[ATNO][  6].d[  8] =        -1.053536812288;

  // Basis function   8 L = p
  InitBFNGauss(BAS[ATNO][  7]);
  BAS[ATNO][  7].l  = 1;
  BAS[ATNO][  7].ng = 9;
  BAS[ATNO][  7].a[  0] =        17.500000000000;     BAS[ATNO][  7].d[  0] =         0.015799145921;
  BAS[ATNO][  7].a[  1] =        15.252594855000;     BAS[ATNO][  7].d[  1] =        -0.028009069558;
  BAS[ATNO][  7].a[  2] =         6.440471516900;     BAS[ATNO][  7].d[  2] =         0.055324311457;
  BAS[ATNO][  7].a[  3] =         1.818015992000;     BAS[ATNO][  7].d[  3] =        -0.099339557706;
  BAS[ATNO][  7].a[  4] =         0.900679818000;     BAS[ATNO][  7].d[  4] =        -0.205843719826;
  BAS[ATNO][  7].a[  5] =         0.413045401200;     BAS[ATNO][  7].d[  5] =         0.199596451319;
  BAS[ATNO][  7].a[  6] =         0.118457026500;     BAS[ATNO][  7].d[  6] =        -0.682211250961;
  BAS[ATNO][  7].a[  7] =         0.036087619300;     BAS[ATNO][  7].d[  7] =        -2.769077463185;
  BAS[ATNO][  7].a[  8] =         0.060299307800;     BAS[ATNO][  7].d[  8] =         3.581301533879;

  // Basis function   9 L = p
  InitBFNGauss(BAS[ATNO][  8]);
  BAS[ATNO][  8].l  = 1;
  BAS[ATNO][  8].ng = 9;
  BAS[ATNO][  8].a[  0] =        17.500000000000;     BAS[ATNO][  8].d[  0] =        -0.023739315675;
  BAS[ATNO][  8].a[  1] =        15.252594855000;     BAS[ATNO][  8].d[  1] =         0.042085575214;
  BAS[ATNO][  8].a[  2] =         6.440471516900;     BAS[ATNO][  8].d[  2] =        -0.083128626110;
  BAS[ATNO][  8].a[  3] =         1.818015992000;     BAS[ATNO][  8].d[  3] =         0.149264595130;
  BAS[ATNO][  8].a[  4] =         0.900679818000;     BAS[ATNO][  8].d[  4] =         0.164472192116;
  BAS[ATNO][  8].a[  5] =         0.413045401200;     BAS[ATNO][  8].d[  5] =         0.297670431316;
  BAS[ATNO][  8].a[  6] =         0.118457026500;     BAS[ATNO][  8].d[  6] =        -3.549475938172;
  BAS[ATNO][  8].a[  7] =         0.036087619300;     BAS[ATNO][  8].d[  7] =        -2.575849908678;
  BAS[ATNO][  8].a[  8] =         0.060299307800;     BAS[ATNO][  8].d[  8] =         5.385337400667;

  // Basis function  10 L = p
  InitBFNGauss(BAS[ATNO][  9]);
  BAS[ATNO][  9].l  = 1;
  BAS[ATNO][  9].ng = 9;
  BAS[ATNO][  9].a[  0] =        17.500000000000;     BAS[ATNO][  9].d[  0] =         0.058282569564;
  BAS[ATNO][  9].a[  1] =        15.252594855000;     BAS[ATNO][  9].d[  1] =        -0.103324607105;
  BAS[ATNO][  9].a[  2] =         6.440471516900;     BAS[ATNO][  9].d[  2] =         0.204089705046;
  BAS[ATNO][  9].a[  3] =         1.818015992000;     BAS[ATNO][  9].d[  3] =        -0.366460611939;
  BAS[ATNO][  9].a[  4] =         0.900679818000;     BAS[ATNO][  9].d[  4] =        -1.410817116591;
  BAS[ATNO][  9].a[  5] =         0.413045401200;     BAS[ATNO][  9].d[  5] =         2.903652313238;
  BAS[ATNO][  9].a[  6] =         0.118457026500;     BAS[ATNO][  9].d[  6] =        -3.306600876726;
  BAS[ATNO][  9].a[  7] =         0.036087619300;     BAS[ATNO][  9].d[  7] =        -1.390779718666;
  BAS[ATNO][  9].a[  8] =         0.060299307800;     BAS[ATNO][  9].d[  8] =         3.317585231724;

  // Basis function  11 L = p
  InitBFNGauss(BAS[ATNO][ 10]);
  BAS[ATNO][ 10].l  = 1;
  BAS[ATNO][ 10].ng = 9;
  BAS[ATNO][ 10].a[  0] =        17.500000000000;     BAS[ATNO][ 10].d[  0] =         0.583337920524;
  BAS[ATNO][ 10].a[  1] =        15.252594855000;     BAS[ATNO][ 10].d[  1] =        -1.034154154467;
  BAS[ATNO][ 10].a[  2] =         6.440471516900;     BAS[ATNO][ 10].d[  2] =         2.042690722670;
  BAS[ATNO][ 10].a[  3] =         1.818015992000;     BAS[ATNO][ 10].d[  3] =        -3.667826812051;
  BAS[ATNO][ 10].a[  4] =         0.900679818000;     BAS[ATNO][ 10].d[  4] =         4.482602688771;
  BAS[ATNO][ 10].a[  5] =         0.413045401200;     BAS[ATNO][ 10].d[  5] =        -2.606498541727;
  BAS[ATNO][ 10].a[  6] =         0.118457026500;     BAS[ATNO][ 10].d[  6] =         1.623938356302;
  BAS[ATNO][ 10].a[  7] =         0.036087619300;     BAS[ATNO][ 10].d[  7] =         0.665295722993;
  BAS[ATNO][ 10].a[  8] =         0.060299307800;     BAS[ATNO][ 10].d[  8] =        -1.567665450649;

  // Basis function  12 L = d
  InitBFNGauss(BAS[ATNO][ 11]);
  BAS[ATNO][ 11].l  = 2;
  BAS[ATNO][ 11].ng = 6;
  BAS[ATNO][ 11].a[  0] =        10.028197701000;     BAS[ATNO][ 11].d[  0] =        -0.012697286497;
  BAS[ATNO][ 11].a[  1] =         7.592066149300;     BAS[ATNO][ 11].d[  1] =         0.030142901441;
  BAS[ATNO][ 11].a[  2] =         1.914425611800;     BAS[ATNO][ 11].d[  2] =        -0.099117462836;
  BAS[ATNO][ 11].a[  3] =         0.886415521000;     BAS[ATNO][ 11].d[  3] =        -0.144925888234;
  BAS[ATNO][ 11].a[  4] =         0.381542353200;     BAS[ATNO][ 11].d[  4] =        -0.477035093730;
  BAS[ATNO][ 11].a[  5] =         0.148807400900;     BAS[ATNO][ 11].d[  5] =         1.234824099167;

  // Basis function  13 L = d
  InitBFNGauss(BAS[ATNO][ 12]);
  BAS[ATNO][ 12].l  = 2;
  BAS[ATNO][ 12].ng = 6;
  BAS[ATNO][ 12].a[  0] =        10.028197701000;     BAS[ATNO][ 12].d[  0] =        -0.065791588124;
  BAS[ATNO][ 12].a[  1] =         7.592066149300;     BAS[ATNO][ 12].d[  1] =         0.156186863775;
  BAS[ATNO][ 12].a[  2] =         1.914425611800;     BAS[ATNO][ 12].d[  2] =        -0.513581802866;
  BAS[ATNO][ 12].a[  3] =         0.886415521000;     BAS[ATNO][ 12].d[  3] =        -0.750940316991;
  BAS[ATNO][ 12].a[  4] =         0.381542353200;     BAS[ATNO][ 12].d[  4] =         1.755356624037;
  BAS[ATNO][ 12].a[  5] =         0.148807400900;     BAS[ATNO][ 12].d[  5] =        -0.802108859779;

-------------------------------------------
RADIAL EXPECTATION VALUES <R**-3> TO <R**3>
-------------------------------------------
   0 :     0.000000     1.542328     1.186260     0.947907     1.109617     1.960771
   1 :     0.716104     0.698206     0.779210     1.485985     2.573583    26.068501
   2 :     0.716098     0.698201     0.779207     1.485992     2.573605    26.068823
   3 :     0.000000     0.191104     0.405701     2.831839     9.189008    34.022242
   4 :     0.000000     0.159993     0.315096     4.235689    20.949094   113.161972
   5 :     0.000000     0.893945     0.803923     1.816018     4.898283    18.735822
   6 :     0.000000     6.682540     2.245416     0.576095     0.571292     1.314654
   7 :     0.000000    63.954130     6.375194     0.217615     0.086586     0.126589
   8 :     1.446066     1.161507     1.027392     1.071893     1.267156     1.654896
   9 :     1.446066     1.161507     1.027392     1.071893     1.267156     1.654896
  10 :     1.446066     1.161507     1.027392     1.071894     1.267156     1.654897
  11 :     0.716098     0.698201     0.779207     1.485992     2.573605    26.068813
  12 :     0.716098     0.698201     0.779207     1.485992     2.573605    26.068809
  13 :     0.716097     0.698200     0.779207     1.485992     2.573604    26.068778
  14 :     0.024571     0.052927     0.198098     6.007824    40.634004   299.821184
  15 :     0.024571     0.052927     0.198098     6.007824    40.634005   299.821190
  16 :     0.024571     0.052927     0.198099     6.007824    40.634000   299.821151
  17 :     0.051876     0.081282     0.229102     5.950848    43.549602   360.403635
  18 :     0.051876     0.081282     0.229102     5.950848    43.549602   360.403635
  19 :     0.051876     0.081282     0.229102     5.950848    43.549601   360.403632
  20 :     0.094454     0.131308     0.295457     4.702972    28.670014   211.126789
  21 :     0.094454     0.131308     0.295457     4.702972    28.670013   211.126785
  22 :     0.094454     0.131308     0.295457     4.702972    28.670017   211.126815
  23 :     0.492049     0.436184     0.545141     2.709241    10.910210    63.044695
  24 :     0.492049     0.436184     0.545141     2.709241    10.910210    63.044693
  25 :     0.492049     0.436184     0.545141     2.709241    10.910212    63.044704
  26 :    17.403990     4.736704     1.747182     1.150826     2.941707    14.456961
  27 :    17.403990     4.736704     1.747182     1.150826     2.941707    14.456961
  28 :    17.403990     4.736704     1.747182     1.150826     2.941707    14.456961
  29 :     0.099792     0.144181     0.326174     3.556911    13.647291   275.304551
  30 :     0.099791     0.144180     0.326174     3.556912    13.647294   275.304618
  31 :     0.099791     0.144180     0.326174     3.556912    13.647294   275.304611
  32 :     0.099791     0.144180     0.326174     3.556911    13.647291   275.304562
  33 :     0.099792     0.144181     0.326174     3.556911    13.647291   275.304551
  34 :     0.596855     0.546690     0.634393     2.147895     5.957074   100.359456
  35 :     0.596854     0.546689     0.634393     2.147895     5.957076   100.359479
  36 :     0.596853     0.546689     0.634392     2.147896     5.957077   100.359489
  37 :     0.596855     0.546690     0.634393     2.147895     5.957074   100.359460
  38 :     0.596855     0.546690     0.634393     2.147895     5.957073   100.359455
Making the total density                ... o.k.
o.k.
Initializing the integrals              ... done
Making exponents                        ... done
Making rho(0)                           ... done (         0.000707533)
Integral calculation                    ... Two index integrals                     ... done
Solving the equation system             ... done
atomic density will be written to file 80_Hg_atom80.adf

-------
TIMINGS
-------

Total SCF time: 0 days 0 hours 0 min 0 sec 

Total time                  ....       0.792 sec
Sum of individual times     ....       0.406 sec  ( 51.3%)

Fock matrix formation       ....       0.331 sec  ( 41.8%)
Diagonalization             ....       0.032 sec  (  4.1%)
Density matrix formation    ....       0.001 sec  (  0.1%)
Population analysis         ....       0.000 sec  (  0.0%)
Initial guess               ....       0.001 sec  (  0.1%)
Orbital Transformation      ....       0.000 sec  (  0.0%)
Orbital Orthonormalization  ....       0.000 sec  (  0.0%)
DIIS solution               ....       0.041 sec  (  5.2%)

-------------------------   --------------------
FINAL SINGLE POINT ENERGY      -152.554327920589
-------------------------   --------------------


                            ***************************************
                            *     ORCA property calculations      *
                            ***************************************

                                    ---------------------
                                    Active property flags
                                    ---------------------
   (+) Dipole Moment


------------------------------------------------------------------------------
                       ORCA ELECTRIC PROPERTIES CALCULATION
------------------------------------------------------------------------------

Dipole Moment Calculation                       ... on
Quadrupole Moment Calculation                   ... off
Polarizability Calculation                      ... off
GBWName                                         ... 80_Hg_atom80.gbw
Electron density file                           ... 80_Hg_atom80.scfp
The origin for moment calculation is the CENTER OF MASS  = ( 0.000000,  0.000000  0.000000)

-------------
DIPOLE MOMENT
-------------
                                X             Y             Z
Electronic contribution:      0.00000       0.00000      -0.00000
Nuclear contribution   :      0.00000       0.00000       0.00000
                        -----------------------------------------
Total Dipole Moment    :      0.00000       0.00000      -0.00000
                        -----------------------------------------
Magnitude (a.u.)       :      0.00000
Magnitude (Debye)      :      0.00000



--------------------
Rotational spectrum 
--------------------
 
Rotational constants in cm-1:     0.000000     0.000000     0.000000 
Rotational constants in MHz :     0.000000     0.000000     0.000000 

 Dipole components along the rotational axes: 
x,y,z [a.u.] :     0.000000     0.000000    -0.000000 
x,y,z [Debye]:     0.000000     0.000000    -0.000000 

 

Timings for individual modules:

Sum of individual times         ...        1.078 sec (=   0.018 min)
GTO integral calculation        ...        0.262 sec (=   0.004 min)  24.3 %
SCF iterations                  ...        0.817 sec (=   0.014 min)  75.7 %
                             ****ORCA TERMINATED NORMALLY****
TOTAL RUN TIME: 0 days 0 hours 0 minutes 1 seconds 290 msec
