
                                 *****************
                                 * O   R   C   A *
                                 *****************

           --- An Ab Initio, DFT and Semiempirical electronic structure package ---

                  #######################################################
                  #                        -***-                        #
                  #          Department of theory and spectroscopy      #
                  #               Directorship: Frank Neese             #
                  #        Max Planck Institute fuer Kohlenforschung    #
                  #                Kaiser Wilhelm Platz 1               #
                  #                 D-45470 Muelheim/Ruhr               #
                  #                      Germany                        #
                  #                                                     #
                  #                  All rights reserved                #
                  #                        -***-                        #
                  #######################################################


                         Program Version 4.2.0 -  RELEASE  -


 With contributions from (in alphabetic order):
   Daniel Aravena         : Magnetic Suceptibility
   Michael Atanasov       : Ab Initio Ligand Field Theory (pilot matlab implementation)
   Alexander A. Auer      : GIAO ZORA, VPT2
   Ute Becker             : Parallelization
   Giovanni Bistoni       : ED, misc. LED, open-shell LED, HFLED
   Martin Brehm           : Molecular dynamics
   Dmytro Bykov           : SCF Hessian
   Vijay G. Chilkuri      : MRCI spin determinant printing, contributions to CSF-ICE
   Dipayan Datta          : RHF DLPNO-CCSD density
   Achintya Kumar Dutta   : EOM-CC, STEOM-CC
   Dmitry Ganyushin       : Spin-Orbit,Spin-Spin,Magnetic field MRCI
   Miquel Garcia          : C-PCM Hessian, Gaussian charge scheme
   Yang Guo               : DLPNO-NEVPT2, CIM, IAO-localization
   Andreas Hansen         : Spin unrestricted coupled pair/coupled cluster methods
   Benjamin Helmich-Paris : CASSCF linear response (MC-RPA)
   Lee Huntington         : MR-EOM, pCC
   Robert Izsak           : Overlap fitted RIJCOSX, COSX-SCS-MP3, EOM
   Christian Kollmar      : KDIIS, OOCD, Brueckner-CCSD(T), CCSD density
   Simone Kossmann        : Meta GGA functionals, TD-DFT gradient, OOMP2, MP2 Hessian
   Martin Krupicka        : AUTO-CI
   Lucas Lang             : DCDCAS
   Dagmar Lenk            : GEPOL surface, SMD
   Dimitrios Liakos       : Extrapolation schemes; Compound Job, initial MDCI parallelization
   Dimitrios Manganas     : Further ROCIS development; embedding schemes
   Dimitrios Pantazis     : SARC Basis sets
   Taras Petrenko         : DFT Hessian,TD-DFT gradient, ASA, ECA, R-Raman, ABS, FL, XAS/XES, NRVS
   Peter Pinski           : DLPNO-MP2, DLPNO-MP2 Gradient
   Christoph Reimann      : Effective Core Potentials
   Marius Retegan         : Local ZFS, SOC
   Christoph Riplinger    : Optimizer, TS searches, QM/MM, DLPNO-CCSD(T), (RO)-DLPNO pert. Triples
   Tobias Risthaus        : Range-separated hybrids, TD-DFT gradient, RPA, STAB
   Michael Roemelt        : Original ROCIS implementation
   Masaaki Saitow         : Open-shell DLPNO-CCSD energy and density
   Barbara Sandhoefer     : DKH picture change effects
   Avijit Sen             : IP-ROCIS
   Kantharuban Sivalingam : CASSCF convergence, NEVPT2, FIC-MRCI
   Bernardo de Souza      : ESD, SOC TD-DFT
   Georgi Stoychev        : AutoAux, RI-MP2 NMR
   Willem Van den Heuvel  : Paramagnetic NMR
   Boris Wezisla          : Elementary symmetry handling
   Frank Wennmohs         : Technical directorship


 We gratefully acknowledge several colleagues who have allowed us to
 interface, adapt or use parts of their codes:
   Stefan Grimme, W. Hujo, H. Kruse,             : VdW corrections, initial TS optimization,
                  C. Bannwarth                     DFT functionals, gCP, sTDA/sTD-DF
   Ed Valeev, F. Pavosevic, A. Kumar             : LibInt (2-el integral package), F12 methods
   Garnet Chan, S. Sharma, J. Yang, R. Olivares  : DMRG
   Ulf Ekstrom                                   : XCFun DFT Library
   Mihaly Kallay                                 : mrcc  (arbitrary order and MRCC methods)
   Andreas Klamt, Michael Diedenhofen            : otool_cosmo (COSMO solvation model)
   Jiri Pittner, Ondrej Demel                    : Mk-CCSD
   Frank Weinhold                                : gennbo (NPA and NBO analysis)
   Christopher J. Cramer and Donald G. Truhlar   : smd solvation model
   Lars Goerigk                                  : TD-DFT with DH, B97 family of functionals
   V. Asgeirsson, H. Jonsson                     : NEB implementation
   FAccTs GmbH                                   : IRC, NEB, NEB-TS, Multilevel, MM, QM/MM, CI optimization
   S Lehtola, MJT Oliveira, MAL Marques          : LibXC Library


 Your calculation uses the libint2 library for the computation of 2-el integrals
 For citations please refer to: http://libint.valeyev.net

 Your ORCA version has been built with support for libXC version: 4.2.3
 For citations please refer to: https://tddft.org/programs/libxc/

 This ORCA versions uses:
   CBLAS   interface :  Fast vector & matrix operations
   LAPACKE interface :  Fast linear algebra routines
   SCALAPACK package :  Parallel linear algebra routines


----- Orbital basis set information -----
Your calculation utilizes the basis: def2-SVP
   F. Weigend and R. Ahlrichs, Phys. Chem. Chem. Phys. 7, 3297 (2005).

----- AuxJ basis set information -----
Your calculation utilizes the auxiliary basis: def2/J
   F. Weigend, Phys. Chem. Chem. Phys. 8, 1057 (2006).

================================================================================
                                        WARNINGS
                       Please study these warnings very carefully!
================================================================================


INFO   : the flag for use of LIBINT has been found!

================================================================================
                                       INPUT FILE
================================================================================
NAME = 81_Tl_atom81.inp
|  1> # input to generate an atomic fitting density for Tl
|  2> # this file is use internally by ORCA
|  3> #
|  4> # atomic ground state (S=2): 1s2 2s2 2p6 3s2 3p6 4s2 3d10 4p6 5s2 4d10 5p6 6s2 4f14 5d10 6p1 
|  5> #
|  6> ! RHF AllowRHF def2-SVP def2/J  NoMulliken NoLoewdin NoMayer NoPrintMOs 
|  7> 
|  8> %output print[p_atomdensfit] 2 end
|  9> 
| 10> %scf
| 11>   guess hcore
| 12>   maxiter 1000
| 13>   maxdisk 500000
| 14>   SCFMode Conventional
| 15>   lshift 1.000000
| 16>   hftyp rohf
| 17>   rohf_case sahf
| 18>   rohf_numop   2
| 19>   rohf_norb[1] 3
| 20>   rohf_nel[1]  1
| 21> end
| 22> 
| 23> %basis
| 24>   NewECP 81
| 25>     N_core 60
| 26>     lmax f
| 27>     s 6
| 28>       1      12.1678050000    281.2846630000  2
| 29>       2       8.2949090000     62.4342510000  2
| 30>       3       5.6263990000    -15.8254880000  2
| 31>       4       5.5489520000    -21.1040210000  2
| 32>       5       2.8749460000     -2.9151270000  2
| 33>       6       2.8214510000     -3.8969030000  2
| 34>     p 8
| 35>       1       7.1514920000      4.6334080000  2
| 36>       2       5.1728650000      9.3417560000  2
| 37>       3       9.8910720000     72.2992530000  2
| 38>       4       9.0033910000    144.5580370000  2
| 39>       5       5.6263990000    -15.8254880000  2
| 40>       6       5.5489520000    -21.1040210000  2
| 41>       7       2.8749460000     -2.9151270000  2
| 42>       8       2.8214510000     -3.8969030000  2
| 43>     d 8
| 44>       1       7.1302180000     35.9430390000  2
| 45>       2       6.9269060000     53.9095930000  2
| 46>       3       5.4175700000     10.3819390000  2
| 47>       4       5.1386810000     15.5838220000  2
| 48>       5       5.6263990000    -15.8254880000  2
| 49>       6       5.5489520000    -21.1040210000  2
| 50>       7       2.8749460000     -2.9151270000  2
| 51>       8       2.8214510000     -3.8969030000  2
| 52>     f 4
| 53>       1       5.6263990000     15.8254880000  2
| 54>       2       5.5489520000     21.1040210000  2
| 55>       3       2.8749460000      2.9151270000  2
| 56>       4       2.8214510000      3.8969030000  2
| 57>   end
| 58>   NewGTO 81
| 59>     s 4 
| 60>      1     729.6503814500      0.0006142718
| 61>      2      46.6655487070      0.0271550952
| 62>      3      20.9704487260     -0.8995204906
| 63>      4      14.1495886770      1.8330747970
| 64>     s 2 
| 65>      1      20.7301342850     -0.0775732709
| 66>      2       6.1527631309      1.0585195425
| 67>     s 1 
| 68>      1       1.5757324480      1.0000000000
| 69>     s 1 
| 70>      1       0.7498016946      1.0000000000
| 71>     s 1 
| 72>      1       0.1953681619      1.0000000000
| 73>     s 1 
| 74>      1       0.0708787673      1.0000000000
| 75>     p 3 
| 76>      1      15.3838526160      2.0084242419
| 77>      2      14.8149295440     -2.3709837424
| 78>      3       6.7261253658      1.3159389276
| 79>     p 3 
| 80>      1       1.9626182149      0.4740914507
| 81>      2       1.0331857851      0.4309501157
| 82>      3       0.5383744600      0.1538728384
| 83>     p 1 
| 84>      1       0.2444661168      1.0000000000
| 85>     p 1 
| 86>      1       0.0907853773      1.0000000000
| 87>     p 1 
| 88>      1       0.0334013215      1.0000000000
| 89>     s 1 
| 90>      1       0.0212504031      1.0000000000
| 91>   end
| 92>   NewAuxGTO 81
| 93>     S 1
| 94>      1 1310.72 1.0
| 95>     S 1
| 96>      1  655.36 1.0
| 97>     S 1
| 98>      1  327.68 1.0
| 99>     S 1
|100>      1  163.84 1.0
|101>     S 1
|102>      1   81.82 1.0
|103>     S 1
|104>      1   40.96 1.0
|105>     S 1
|106>      1   20.48 1.0
|107>     S 1
|108>      1   10.24 1.0
|109>     S 1
|110>      1    5.12 1.0
|111>     S 1
|112>      1    2.56 1.0
|113>     S 1
|114>      1    1.28 1.0
|115>     S 1
|116>      1    0.64 1.0
|117>     S 1
|118>      1    0.32 1.0
|119>     S 1
|120>      1    0.16 1.0
|121>     S 1
|122>      1    0.08 1.0
|123>     S 1
|124>      1    0.04 1.0
|125>     S 1
|126>      1    0.02 1.0
|127>     S 1
|128>      1    0.01 1.0
|129>   end
|130> end
|131> 
|132> * xyz 0 2
|133> 81  0.0 0.0 0.0
|134> *
|135> 
|136> 
|137>                          ****END OF INPUT****
================================================================================

                       ****************************
                       * Single Point Calculation *
                       ****************************

---------------------------------
CARTESIAN COORDINATES (ANGSTROEM)
---------------------------------
  Tl     0.000000    0.000000    0.000000

----------------------------
CARTESIAN COORDINATES (A.U.)
----------------------------
  NO LB      ZA    FRAG     MASS         X           Y           Z
   0 Tl   21.0000*   0   204.370    0.000000    0.000000    0.000000
* core charge reduced due to ECP

--------------------------------
INTERNAL COORDINATES (ANGSTROEM)
--------------------------------
 Tl     0   0   0     0.000000000000     0.00000000     0.00000000

---------------------------
INTERNAL COORDINATES (A.U.)
---------------------------
 Tl     0   0   0     0.000000000000     0.00000000     0.00000000

---------------------
BASIS SET INFORMATION
---------------------
There are 1 groups of distinct atoms

 Group   1 Type Tl  : 11s9p contracted to 7s5p pattern {4211111/33111}

Atom   0Tl   basis set group =>   1
---------------------------------
AUXILIARY/J BASIS SET INFORMATION
---------------------------------
There are 1 groups of distinct atoms

 Group   1 Type Tl  : 18s contracted to 18s pattern {111111111111111111}

Atom   0Tl   basis set group =>   1
-------------------------
ECP PARAMETER INFORMATION
-------------------------

 Group 1, Type Tl ECP (replacing 60 core electrons, lmax=3)

Atom   0Tl   ECP group =>   1

------------------------------------------------------------------------------
                           ORCA GTO INTEGRAL CALCULATION
------------------------------------------------------------------------------

                         BASIS SET STATISTICS AND STARTUP INFO

 # of primitive gaussian shells          ...   20
 # of primitive gaussian functions       ...   38
 # of contracted shells                  ...   12
 # of contracted basis functions         ...   22
 Highest angular momentum                ...    1
 Maximum contraction depth               ...    4
 Integral package used                   ... LIBINT
 Integral threshhold            Thresh   ...  1.000e-10
 Primitive cut-off              TCut     ...  1.000e-11
 Storage cut-off                TCutStore... -1.000e+00
 Buffer length                           ... 1048576 integrals/buffer
 Generate file with integrals 4 distinct ...false


------------------------------ INTEGRAL EVALUATION ----------------------------


 * One electron integrals 

   ECP integrals                         ... done
 Pre-screening matrix                    ... done
 Shell pair data                         ... done (   0.000 sec)
 Statistics run                          ... done
 Maximum amount of storage needed        ...     0 MB
 Maximum amount of storage dedicated     ... 500000 MB
 Beginning two electron integral evaluation:
 Starting repulsion integrals
  <ss|ss>  ...          406 b.         0 skpd (  0.0%)     0.000 s. (  0.000 ms/b)
  <ss|sp>  ...          980 b.         0 skpd (  0.0%)     0.001 s. (  0.001 ms/b)
  <ss|pp>  ...          420 b.         0 skpd (  0.0%)     0.001 s. (  0.002 ms/b)
  <sp|sp>  ...          630 b.         0 skpd (  0.0%)     0.001 s. (  0.002 ms/b)
  <sp|pp>  ...          525 b.         0 skpd (  0.0%)     0.002 s. (  0.005 ms/b)
  <pp|pp>  ...          120 b.         0 skpd (  0.0%)     0.002 s. (  0.013 ms/b)


                                      INTEGRAL STATISTICS

Integral type statistics:
 Number of integrals retained            ...      32131 
 One   Center Integrals retained         ...      32131 (100.0%)
 Two   Center Integrals retained         ...          0 (  0.0%)
 Three Center Integrals retained         ...          0 (  0.0%)
 Four  Center Integrals retained         ...          0 (  0.0%)

Storage statistics:
 Number of char integrals                ...          0 (  0.0%)
 Number of short int integrals           ...          0 (  0.0%)
 Number of double/float integrals        ...      32131 (100.0%)
 Amount of memory used                   ...          0 MB
 Amount of memory estimated              ...          0 MB ( 96.0%)

Prescreening statistics:
 Total number of shell quadruples        ...       3081 
 Number of skipped shell quadruples      ...          0 (  0.0%)
 # of negligible batches done            ...          0 (  0.0%)

Timings:
 Total evaluation time               ...     0.162 sec (   0.003 min)
 One electron matrix time            ...     0.012 sec (   0.000 min) =  7.6%
 Schwartz matrix evaluation time     ...     0.070 sec (   0.001 min) = 43.4%
 Statistics run                      ...     0.001 sec (   0.000 min) =  0.6%
 Repulsion integral time             ...     0.007 sec (   0.000 min) =  4.4%

-------------------------------------------------------------------------------
                                 ORCA SCF
-------------------------------------------------------------------------------

------------
SCF SETTINGS
------------
Hamiltonian:
 Ab initio Hamiltonian  Method          .... Hartree-Fock(GTOs)


General Settings:
 Integral files         IntName         .... 81_Tl_atom81
 Hartree-Fock type      HFTyp           .... ROHF
 Total Charge           Charge          ....    0
 Multiplicity           Mult            ....    2
 Number of Electrons    NEL             ....   21
 Basis Dimension        Dim             ....   22
 Nuclear Repulsion      ENuc            ....      0.0000000000 Eh

Convergence Acceleration:
 DIIS                   CNVDIIS         .... on
   Start iteration      DIISMaxIt       ....    12
   Startup error        DIISStart       ....  0.200000
   # of expansion vecs  DIISMaxEq       ....     5
   Bias factor          DIISBfac        ....   1.050
   Max. coefficient     DIISMaxC        ....  10.000
 Newton-Raphson         CNVNR           .... off
 SOSCF                  CNVSOSCF        .... off
 Level Shifting         CNVShift        .... on
   Level shift para.    LevelShift      ....    1.0000
   Turn off err/grad.   ShiftErr        ....    0.0010
 Zerner damping         CNVZerner       .... off
 Static damping         CNVDamp         .... on
   Fraction old density DampFac         ....    0.7000
   Max. Damping (<1)    DampMax         ....    0.9800
   Min. Damping (>=0)   DampMin         ....    0.0000
   Turn off err/grad.   DampErr         ....    0.1000
 Fernandez-Rico         CNVRico         .... off

SCF Procedure:
 Maximum # iterations   MaxIter         ....  1000
 SCF integral mode      SCFMode         .... Conventional
 Integral Threshold     Thresh          ....  1.000e-10 Eh
 Primitive CutOff       TCut            ....  1.000e-11 Eh
 Integral Buffer length BufferLength    .... 1048576
 Integral index format  IndFormat       ....     0
 Integral value format  ValFormat       ....     0
 Integral Storage       Thresh          ....  1.000e-10 Eh

Convergence Tolerance:
 Convergence Check Mode ConvCheckMode   .... Total+1el-Energy
 Convergence forced     ConvForced      .... 0
 Energy Change          TolE            ....  1.000e-06 Eh
 1-El. energy change                    ....  1.000e-03 Eh
 DIIS Error             TolErr          ....  1.000e-06


Diagonalization of the overlap matrix:
Smallest eigenvalue                        ... 9.859e-03
Time for diagonalization                   ...    0.000 sec
Threshold for overlap eigenvalues          ... 1.000e-08
Number of eigenvalues below threshold      ... 0
Time for construction of square roots      ...    0.002 sec
Total time needed                          ...    0.002 sec

--------------------
INITIAL GUESS: HCORE
--------------------
AVERAGE-CONFIGURATION (SAHF) CASE FOUND

-------------------
FINAL ROHF SETTINGS
-------------------
Number of operators             ... 2
  operator   0:  10 orbitals  20 electrons n(mue)= 2.000
  operator   1:   3 orbitals   1 electrons n(mue)= 0.333
Vector coupling coefficients a and b (Zerner convention):
   1.000    1.000           1.000    1.000 
   1.000    0.000           1.000    0.000 

                      -----------------
                      INTIAL GUESS DONE 
                      -----------------

 InCore treatment chosen:
   Memory dedicated               ...    1024 MB
   Memory needed                  ...      0 MB
   Number of tiny    integrals    ...       0
   Number of small   integrals    ...       0
   Number of regular integrals    ...   32131

--------------
SCF ITERATIONS
--------------
ITER       Energy         Delta-E        Max-DP      RMS-DP      [F,P]     Damp
  0   -154.2381541057   0.000000000000 4.02493901  0.31419627  1.0757243 0.7000
  1   -155.1889524329  -0.950798327175 4.36215459  0.28942406  0.3967888 0.7000
  2   -155.6329290025  -0.443976569620 3.62576596  0.23121111  0.2179234 0.7000
                            ****Activating DIIS****
  3   -155.9049113531  -0.271982350551 2.93706470  0.19716974  0.1184643 0.7000
  4   -156.1232515496  -0.218340196497 6.89381091  0.52256555  0.0822545 0.0000
  5   -156.5499474025  -0.426695852925 1.44683823  0.08926088  0.0745280 0.0000
  6   -156.5900542913  -0.040106888806 1.45929868  0.09108030  0.0668478 0.0000
  7   -156.6305415535  -0.040487262217 2.06849733  0.13134241  0.0582750 0.0000
  8   -156.6815021035  -0.050960549975 1.10758906  0.07383974  0.0441014 0.0000
  9   -156.7021234563  -0.020621352850 0.54017670  0.03561043  0.0341401 0.0000
 10   -156.7098245540  -0.007701097623 0.65976650  0.04685737  0.0290528 0.0000
 11   -156.7186104819  -0.008785927995 0.62212617  0.05087847  0.0219640 0.0000
 12   -156.7262339674  -0.007623485503 0.26910333  0.02641493  0.0138710 0.0000
 13   -156.7294750707  -0.003241103283 0.15372922  0.01487380  0.0096498 0.0000
 14   -156.7313254906  -0.001850419828 0.13028865  0.01324975  0.0080561 0.0000
 15   -156.7330332634  -0.001707772849 0.17828016  0.01625139  0.0074308 0.0000
 16   -156.7350518327  -0.002018569309 0.20421238  0.01830782  0.0063655 0.0000
 17   -156.7369176534  -0.001865820721 0.14416221  0.01254800  0.0049936 0.0000
 18   -156.7379785087  -0.001060855278 0.12134599  0.01007192  0.0039535 0.0000
 19   -156.7387165576  -0.000738048835 0.12804143  0.00999727  0.0037554 0.0000
 20   -156.7393212791  -0.000604721548 0.10232749  0.00722893  0.0032100 0.0000
 21   -156.7396696808  -0.000348401681 0.04425517  0.00412270  0.0028456 0.0000
 22   -156.7398072673  -0.000137586495 0.05856087  0.00464856  0.0023471 0.0000
 23   -156.7398503775  -0.000043110198 0.04573268  0.00320668  0.0015621 0.0000
 24   -156.7398612005  -0.000010823001 0.03028135  0.00202390  0.0010256 0.0000
 25   -156.7398729134  -0.000011712876 0.02148436  0.00143784  0.0008666 0.0000
 26   -156.7398850013  -0.000012087938 0.01604786  0.00109338  0.0006209 0.0000
 27   -156.7398968165  -0.000011815204 0.01320962  0.00101743  0.0007681 0.0000
 28   -156.7399121841  -0.000015367575 0.01504069  0.00135806  0.0007120 0.0000
 29   -156.7399329587  -0.000020774603 0.02301922  0.00174794  0.0005930 0.0000
 30   -156.7399559926  -0.000023033894 0.02116388  0.00141118  0.0003937 0.0000
 31   -156.7399687265  -0.000012733971 0.00984610  0.00078062  0.0002272 0.0000
 32   -156.7399722784  -0.000003551903 0.00712654  0.00046913  0.0001630 0.0000
 33   -156.7399730605  -0.000000782053 0.00322223  0.00022639  0.0001280 0.0000
 34   -156.7399733559  -0.000000295453 0.00233299  0.00019712  0.0001140 0.0000
 35   -156.7399736115  -0.000000255511 0.00236297  0.00023870  0.0000937 0.0000
 36   -156.7399738372  -0.000000225738 0.00182343  0.00016252  0.0000594 0.0000
                 **** Energy Check signals convergence ****

               *****************************************************
               *                     SUCCESS                       *
               *           SCF CONVERGED AFTER  37 CYCLES          *
               *****************************************************


----------------
TOTAL SCF ENERGY
----------------

Total Energy       :         -156.73997393 Eh           -4265.11152 eV

Components:
Nuclear Repulsion  :            0.00000000 Eh               0.00000 eV
Electronic Energy  :         -156.73997393 Eh           -4265.11152 eV
One Electron Energy:         -244.84455550 Eh           -6662.55907 eV
Two Electron Energy:           88.10458157 Eh            2397.44755 eV

Virial components:
Potential Energy   :         -196.38913152 Eh           -5344.01995 eV
Kinetic Energy     :           39.64915759 Eh            1078.90843 eV
Virial Ratio       :            4.95317287


---------------
SCF CONVERGENCE
---------------

  Last Energy change         ...   -9.2972e-08  Tolerance :   1.0000e-06
  Last MAX-Density change    ...    8.3861e-04  Tolerance :   1.0000e-05
  Last RMS-Density change    ...    6.0711e-05  Tolerance :   1.0000e-06
  Last DIIS Error            ...    3.4143e-05  Tolerance :   1.0000e-06

             **** THE GBW FILE WAS UPDATED (81_Tl_atom81.gbw) ****
             **** DENSITY FILE WAS UPDATED (81_Tl_atom81.scfp) ****
             **** ENERGY FILE WAS UPDATED (81_Tl_atom81.en.tmp) ****
             **** THE GBW FILE WAS UPDATED (81_Tl_atom81.gbw) ****
             **** DENSITY FILE WAS UPDATED (81_Tl_atom81.scfp) ****
----------------
ORBITAL ENERGIES
----------------

  NO   OCC          E(Eh)            E(eV) 
   0   2.0000      -8.817419      -239.9342 
   1   2.0000      -6.318687      -171.9402 
   2   2.0000      -6.318687      -171.9402 
   3   2.0000      -6.312011      -171.7585 
   4   2.0000      -2.159262       -58.7565 
   5   2.0000      -1.267307       -34.4852 
   6   2.0000      -1.267307       -34.4852 
   7   2.0000      -1.247684       -33.9512 
   8   2.0000      -0.372979       -10.1493 
   9   2.0000      -0.162637        -4.4256 
  10   0.3333      -0.184480        -5.0200 
  11   0.3333      -0.184480        -5.0200 
  12   0.3333      -0.072777        -1.9804 
  13   0.0000       0.035037         0.9534 
  14   0.0000       0.035037         0.9534 
  15   0.0000       0.054968         1.4958 
  16   0.0000       0.863894        23.5078 
  17   0.0000      31.616140       860.3189 
  18   0.0000      32.482207       883.8858 
  19   0.0000      32.482207       883.8858 
  20   0.0000      32.484808       883.9566 
  21   0.0000     125.739608      3421.5487 
CleanUpVectors: The p-vectors have cracked symmetry
CleanUpVectors: The p-vectors have cracked symmetry
CleanUpVectors: The p-vectors have cracked symmetry
CleanUpVectors: The p-vectors have cracked symmetry
CleanUpVectors: The p-vectors have cracked symmetry
CleanUpVectors: The p-vectors have cracked symmetry
CleanUpVectors: The p-vectors have cracked symmetry
CleanUpVectors: The p-vectors have cracked symmetry
CleanUpVectors: The p-vectors have cracked symmetry
CleanUpVectors: The p-vectors have cracked symmetry
CleanUpVectors: The p-vectors have cracked symmetry
CleanUpVectors: The p-vectors have cracked symmetry
CleanUpVectors: The p-vectors have cracked symmetry
CleanUpVectors: The p-vectors have cracked symmetry
--------------------------
ATOM BASIS FOR ELEMENT Tl
--------------------------
 NewGTO Tl
 S 11
    1        729.650381450000        -0.000181164470
    2         46.665548707000        -0.008008732332
    3         20.970448726000         0.265291606710
    4         14.149588677000        -0.540620656446
    5         20.730134285000        -0.077396495627
    6          6.152763130900         1.056107370380
    7          1.575732448000        -1.227880838102
    8          0.749801694600        -0.230792693967
    9          0.195368161900         0.004638055197
   10          0.070878767300        -0.001873736085
   11          0.021250403100         0.000448238731
 P 20
    1         15.383852616000        -0.346265808064
    2         14.814929544000         0.408773497322
    3          6.726125365800        -0.226876695980
    4         15.383852616000        -0.401751602810
    5         14.814929544000         0.474275553378
    6          6.726125365800        -0.263231523666
    7         15.383852616000        -0.130863728225
    8         14.814929544000         0.154487167411
    9          6.726125365800        -0.085743176461
   10          1.962618214900         0.356879164979
   11          1.033185785100         0.324403903955
   12          0.538374460000         0.115829994403
   13          1.962618214900         0.414065648993
   14          1.033185785100         0.376386536980
   15          0.538374460000         0.134390646784
   16          1.962618214900         0.134874818614
   17          1.033185785100         0.122601490917
   18          0.538374460000         0.043775459646
   19          0.244466116800        -0.095432067711
   20          0.244466116800        -0.110724146796
 S 11
    1        729.650381450000        -0.000121135381
    2         46.665548707000        -0.005355028195
    3         20.970448726000         0.177386879107
    4         14.149588677000        -0.361485281111
    5         20.730134285000        -0.059367903352
    6          6.152763130900         0.810099731087
    7          1.575732448000        -1.836334967535
    8          0.749801694600         0.820241051796
    9          0.195368161900         1.129990644849
   10          0.070878767300        -0.286705818434
   11          0.021250403100         0.070970995093
 P 20
    1         15.383852616000         0.028072826272
    2         14.814929544000        -0.033140515487
    3          6.726125365800         0.018393586438
    4         15.383852616000         0.033384500043
    5         14.814929544000        -0.039411049319
    6          6.726125365800         0.021873846306
    7         15.383852616000        -0.232125239541
    8         14.814929544000         0.274028344048
    9          6.726125365800        -0.152090694993
   10          1.962618214900        -0.038176289261
   11          1.033185785100        -0.034702326418
   12          0.538374460000        -0.012390634717
   13          1.962618214900        -0.045399644416
   14          1.033185785100        -0.041268371292
   15          0.538374460000        -0.014735073029
   16          1.962618214900         0.315667549961
   17          1.033185785100         0.286942460104
   18          0.538374460000         0.102454203364
   19          0.244466116800         0.164059398719
   20          0.244466116800         0.195101161195
 S 11
    1        729.650381450000         0.000177284176
    2         46.665548707000         0.007837196312
    3         20.970448726000        -0.259609425763
    4         14.149588677000         0.529041306344
    5         20.730134285000         0.090841665214
    6          6.152763130900        -1.239572300959
    7          1.575732448000         4.240126736740
    8          0.749801694600        -5.203600175921
    9          0.195368161900         3.754021217451
   10          0.070878767300        -2.479803725439
   11          0.021250403100         0.733772849281
 S 11
    1        729.650381450000         0.001626514161
    2         46.665548707000         0.071903263165
    3         20.970448726000        -2.381816674965
    4         14.149588677000         4.853750596654
    5         20.730134285000         0.349645321668
    6          6.152763130900        -4.771055824199
    7          1.575732448000         3.191517653776
    8          0.749801694600        -2.162277068773
    9          0.195368161900         0.773153646184
   10          0.070878767300        -0.395568398052
   11          0.021250403100         0.106926880868
 S 11
    1        729.650381450000         0.001529288660
    2         46.665548707000         0.067605218305
    3         20.970448726000        -2.239442678776
    4         14.149588677000         4.563615811634
    5         20.730134285000         0.165595496249
    6          6.152763130900        -2.259619413955
    7          1.575732448000         1.046553218208
    8          0.749801694600        -0.667998420116
    9          0.195368161900         0.231980717555
   10          0.070878767300        -0.118444601842
   11          0.021250403100         0.032042244417
 P 20
    1         15.383852616000        -0.151523501742
    2         14.814929544000         0.178876430450
    3          6.726125365800        -0.099279659261
    4         15.383852616000        -0.175849429418
    5         14.814929544000         0.207593659528
    6          6.726125365800        -0.115218241614
    7         15.383852616000        -0.043615843949
    8         14.814929544000         0.051489349091
    9          6.726125365800        -0.028577521479
   10          1.962618214900         0.206057095087
   11          1.033185785100         0.187306328426
   12          0.538374460000         0.066878637121
   13          1.962618214900         0.239137969900
   14          1.033185785100         0.217376912502
   15          0.538374460000         0.077615485669
   16          1.962618214900         0.059313268243
   17          1.033185785100         0.053915884317
   18          0.538374460000         0.019250929174
   19          0.244466116800        -0.885513070438
   20          0.244466116800        -1.027675353254
 P 20
    1         15.383852616000         0.024319558137
    2         14.814929544000        -0.028709709712
    3          6.726125365800         0.015934408969
    4         15.383852616000         0.028499196337
    5         14.814929544000        -0.033643853613
    6          6.726125365800         0.018672948216
    7         15.383852616000        -0.075173954576
    8         14.814929544000         0.088744310307
    9          6.726125365800        -0.049254699831
   10          1.962618214900        -0.035157485603
   11          1.033185785100        -0.031958227608
   12          0.538374460000        -0.011410840868
   13          1.962618214900        -0.041199765198
   14          1.033185785100        -0.037450672339
   15          0.538374460000        -0.013371945018
   16          1.962618214900         0.108674968965
   17          1.033185785100         0.098785773040
   18          0.538374460000         0.035271941548
   19          0.244466116800         0.252942457556
   20          0.244466116800         0.296413969343
 P 20
    1         15.383852616000         0.019056157100
    2         14.814929544000        -0.022496162779
    3          6.726125365800         0.012485777862
    4         15.383852616000         0.022442220206
    5         14.814929544000        -0.026493475901
    6          6.726125365800         0.014704359057
    7         15.383852616000        -0.092037183824
    8         14.814929544000         0.108651679257
    9          6.726125365800        -0.060303650222
   10          1.962618214900        -0.027984769594
   11          1.033185785100        -0.025438213823
   12          0.538374460000        -0.009082838180
   13          1.962618214900        -0.032957345931
   14          1.033185785100        -0.029958296066
   15          0.538374460000        -0.010696755567
   16          1.962618214900         0.135160482251
   17          1.033185785100         0.122861159757
   18          0.538374460000         0.043868175671
   19          0.244466116800         0.255350689979
   20          0.244466116800         0.300723613074
 P 20
    1         15.383852616000         0.594567372016
    2         14.814929544000        -0.701898305847
    3          6.726125365800         0.389566274691
    4         15.383852616000         0.698203619148
    5         14.814929544000        -0.824242904138
    6          6.726125365800         0.457469743025
    7         15.383852616000        -2.271226570051
    8         14.814929544000         2.681226984098
    9          6.726125365800        -1.488129546824
   10          1.962618214900        -0.069225460724
   11          1.033185785100        -0.062926087919
   12          0.538374460000        -0.022468066268
   13          1.962618214900        -0.081291825771
   14          1.033185785100        -0.073894438867
   15          0.538374460000        -0.026384369411
   16          1.962618214900         0.264438839266
   17          1.033185785100         0.240375455429
   18          0.538374460000         0.085827227470
   19          0.244466116800         0.090278535891
   20          0.244466116800         0.106014563625
 end
  // -----------------------------------------------
  // The basis set
  // -----------------------------------------------
  BAS[ATNO] = new BFNGauss[NSH];
  // Basis function   1 L = s
  InitBFNGauss(BAS[ATNO][  0]);
  BAS[ATNO][  0].l  = 0;
  BAS[ATNO][  0].ng = 11;
  BAS[ATNO][  0].a[  0] =       729.650381450000;     BAS[ATNO][  0].d[  0] =         0.000181164470;
  BAS[ATNO][  0].a[  1] =        46.665548707000;     BAS[ATNO][  0].d[  1] =         0.008008732332;
  BAS[ATNO][  0].a[  2] =        20.970448726000;     BAS[ATNO][  0].d[  2] =        -0.265291606710;
  BAS[ATNO][  0].a[  3] =        14.149588677000;     BAS[ATNO][  0].d[  3] =         0.540620656446;
  BAS[ATNO][  0].a[  4] =        20.730134285000;     BAS[ATNO][  0].d[  4] =         0.077396495627;
  BAS[ATNO][  0].a[  5] =         6.152763130900;     BAS[ATNO][  0].d[  5] =        -1.056107370380;
  BAS[ATNO][  0].a[  6] =         1.575732448000;     BAS[ATNO][  0].d[  6] =         1.227880838102;
  BAS[ATNO][  0].a[  7] =         0.749801694600;     BAS[ATNO][  0].d[  7] =         0.230792693967;
  BAS[ATNO][  0].a[  8] =         0.195368161900;     BAS[ATNO][  0].d[  8] =        -0.004638055197;
  BAS[ATNO][  0].a[  9] =         0.070878767300;     BAS[ATNO][  0].d[  9] =         0.001873736085;
  BAS[ATNO][  0].a[ 10] =         0.021250403100;     BAS[ATNO][  0].d[ 10] =        -0.000448238731;

  // Basis function   2 L = p
  InitBFNGauss(BAS[ATNO][  1]);
  BAS[ATNO][  1].l  = 1;
  BAS[ATNO][  1].ng = 20;
  BAS[ATNO][  1].a[  0] =        15.383852616000;     BAS[ATNO][  1].d[  0] =        -0.346265808064;
  BAS[ATNO][  1].a[  1] =        14.814929544000;     BAS[ATNO][  1].d[  1] =         0.408773497322;
  BAS[ATNO][  1].a[  2] =         6.726125365800;     BAS[ATNO][  1].d[  2] =        -0.226876695980;
  BAS[ATNO][  1].a[  3] =        15.383852616000;     BAS[ATNO][  1].d[  3] =        -0.401751602810;
  BAS[ATNO][  1].a[  4] =        14.814929544000;     BAS[ATNO][  1].d[  4] =         0.474275553378;
  BAS[ATNO][  1].a[  5] =         6.726125365800;     BAS[ATNO][  1].d[  5] =        -0.263231523666;
  BAS[ATNO][  1].a[  6] =        15.383852616000;     BAS[ATNO][  1].d[  6] =        -0.130863728225;
  BAS[ATNO][  1].a[  7] =        14.814929544000;     BAS[ATNO][  1].d[  7] =         0.154487167411;
  BAS[ATNO][  1].a[  8] =         6.726125365800;     BAS[ATNO][  1].d[  8] =        -0.085743176461;
  BAS[ATNO][  1].a[  9] =         1.962618214900;     BAS[ATNO][  1].d[  9] =         0.356879164979;
  BAS[ATNO][  1].a[ 10] =         1.033185785100;     BAS[ATNO][  1].d[ 10] =         0.324403903955;
  BAS[ATNO][  1].a[ 11] =         0.538374460000;     BAS[ATNO][  1].d[ 11] =         0.115829994403;
  BAS[ATNO][  1].a[ 12] =         1.962618214900;     BAS[ATNO][  1].d[ 12] =         0.414065648993;
  BAS[ATNO][  1].a[ 13] =         1.033185785100;     BAS[ATNO][  1].d[ 13] =         0.376386536980;
  BAS[ATNO][  1].a[ 14] =         0.538374460000;     BAS[ATNO][  1].d[ 14] =         0.134390646784;
  BAS[ATNO][  1].a[ 15] =         1.962618214900;     BAS[ATNO][  1].d[ 15] =         0.134874818614;
  BAS[ATNO][  1].a[ 16] =         1.033185785100;     BAS[ATNO][  1].d[ 16] =         0.122601490917;
  BAS[ATNO][  1].a[ 17] =         0.538374460000;     BAS[ATNO][  1].d[ 17] =         0.043775459646;
  BAS[ATNO][  1].a[ 18] =         0.244466116800;     BAS[ATNO][  1].d[ 18] =        -0.095432067711;
  BAS[ATNO][  1].a[ 19] =         0.244466116800;     BAS[ATNO][  1].d[ 19] =        -0.110724146796;

  // Basis function   3 L = s
  InitBFNGauss(BAS[ATNO][  2]);
  BAS[ATNO][  2].l  = 0;
  BAS[ATNO][  2].ng = 11;
  BAS[ATNO][  2].a[  0] =       729.650381450000;     BAS[ATNO][  2].d[  0] =         0.000121135381;
  BAS[ATNO][  2].a[  1] =        46.665548707000;     BAS[ATNO][  2].d[  1] =         0.005355028195;
  BAS[ATNO][  2].a[  2] =        20.970448726000;     BAS[ATNO][  2].d[  2] =        -0.177386879107;
  BAS[ATNO][  2].a[  3] =        14.149588677000;     BAS[ATNO][  2].d[  3] =         0.361485281111;
  BAS[ATNO][  2].a[  4] =        20.730134285000;     BAS[ATNO][  2].d[  4] =         0.059367903352;
  BAS[ATNO][  2].a[  5] =         6.152763130900;     BAS[ATNO][  2].d[  5] =        -0.810099731087;
  BAS[ATNO][  2].a[  6] =         1.575732448000;     BAS[ATNO][  2].d[  6] =         1.836334967535;
  BAS[ATNO][  2].a[  7] =         0.749801694600;     BAS[ATNO][  2].d[  7] =        -0.820241051796;
  BAS[ATNO][  2].a[  8] =         0.195368161900;     BAS[ATNO][  2].d[  8] =        -1.129990644849;
  BAS[ATNO][  2].a[  9] =         0.070878767300;     BAS[ATNO][  2].d[  9] =         0.286705818434;
  BAS[ATNO][  2].a[ 10] =         0.021250403100;     BAS[ATNO][  2].d[ 10] =        -0.070970995093;

  // Basis function   4 L = p
  InitBFNGauss(BAS[ATNO][  3]);
  BAS[ATNO][  3].l  = 1;
  BAS[ATNO][  3].ng = 20;
  BAS[ATNO][  3].a[  0] =        15.383852616000;     BAS[ATNO][  3].d[  0] =         0.028072826272;
  BAS[ATNO][  3].a[  1] =        14.814929544000;     BAS[ATNO][  3].d[  1] =        -0.033140515487;
  BAS[ATNO][  3].a[  2] =         6.726125365800;     BAS[ATNO][  3].d[  2] =         0.018393586438;
  BAS[ATNO][  3].a[  3] =        15.383852616000;     BAS[ATNO][  3].d[  3] =         0.033384500043;
  BAS[ATNO][  3].a[  4] =        14.814929544000;     BAS[ATNO][  3].d[  4] =        -0.039411049319;
  BAS[ATNO][  3].a[  5] =         6.726125365800;     BAS[ATNO][  3].d[  5] =         0.021873846306;
  BAS[ATNO][  3].a[  6] =        15.383852616000;     BAS[ATNO][  3].d[  6] =        -0.232125239541;
  BAS[ATNO][  3].a[  7] =        14.814929544000;     BAS[ATNO][  3].d[  7] =         0.274028344048;
  BAS[ATNO][  3].a[  8] =         6.726125365800;     BAS[ATNO][  3].d[  8] =        -0.152090694993;
  BAS[ATNO][  3].a[  9] =         1.962618214900;     BAS[ATNO][  3].d[  9] =        -0.038176289261;
  BAS[ATNO][  3].a[ 10] =         1.033185785100;     BAS[ATNO][  3].d[ 10] =        -0.034702326418;
  BAS[ATNO][  3].a[ 11] =         0.538374460000;     BAS[ATNO][  3].d[ 11] =        -0.012390634717;
  BAS[ATNO][  3].a[ 12] =         1.962618214900;     BAS[ATNO][  3].d[ 12] =        -0.045399644416;
  BAS[ATNO][  3].a[ 13] =         1.033185785100;     BAS[ATNO][  3].d[ 13] =        -0.041268371292;
  BAS[ATNO][  3].a[ 14] =         0.538374460000;     BAS[ATNO][  3].d[ 14] =        -0.014735073029;
  BAS[ATNO][  3].a[ 15] =         1.962618214900;     BAS[ATNO][  3].d[ 15] =         0.315667549961;
  BAS[ATNO][  3].a[ 16] =         1.033185785100;     BAS[ATNO][  3].d[ 16] =         0.286942460104;
  BAS[ATNO][  3].a[ 17] =         0.538374460000;     BAS[ATNO][  3].d[ 17] =         0.102454203364;
  BAS[ATNO][  3].a[ 18] =         0.244466116800;     BAS[ATNO][  3].d[ 18] =         0.164059398719;
  BAS[ATNO][  3].a[ 19] =         0.244466116800;     BAS[ATNO][  3].d[ 19] =         0.195101161195;

  // Basis function   5 L = s
  InitBFNGauss(BAS[ATNO][  4]);
  BAS[ATNO][  4].l  = 0;
  BAS[ATNO][  4].ng = 11;
  BAS[ATNO][  4].a[  0] =       729.650381450000;     BAS[ATNO][  4].d[  0] =        -0.000177284176;
  BAS[ATNO][  4].a[  1] =        46.665548707000;     BAS[ATNO][  4].d[  1] =        -0.007837196312;
  BAS[ATNO][  4].a[  2] =        20.970448726000;     BAS[ATNO][  4].d[  2] =         0.259609425763;
  BAS[ATNO][  4].a[  3] =        14.149588677000;     BAS[ATNO][  4].d[  3] =        -0.529041306344;
  BAS[ATNO][  4].a[  4] =        20.730134285000;     BAS[ATNO][  4].d[  4] =        -0.090841665214;
  BAS[ATNO][  4].a[  5] =         6.152763130900;     BAS[ATNO][  4].d[  5] =         1.239572300959;
  BAS[ATNO][  4].a[  6] =         1.575732448000;     BAS[ATNO][  4].d[  6] =        -4.240126736740;
  BAS[ATNO][  4].a[  7] =         0.749801694600;     BAS[ATNO][  4].d[  7] =         5.203600175921;
  BAS[ATNO][  4].a[  8] =         0.195368161900;     BAS[ATNO][  4].d[  8] =        -3.754021217451;
  BAS[ATNO][  4].a[  9] =         0.070878767300;     BAS[ATNO][  4].d[  9] =         2.479803725439;
  BAS[ATNO][  4].a[ 10] =         0.021250403100;     BAS[ATNO][  4].d[ 10] =        -0.733772849281;

  // Basis function   6 L = s
  InitBFNGauss(BAS[ATNO][  5]);
  BAS[ATNO][  5].l  = 0;
  BAS[ATNO][  5].ng = 11;
  BAS[ATNO][  5].a[  0] =       729.650381450000;     BAS[ATNO][  5].d[  0] =         0.001626514161;
  BAS[ATNO][  5].a[  1] =        46.665548707000;     BAS[ATNO][  5].d[  1] =         0.071903263165;
  BAS[ATNO][  5].a[  2] =        20.970448726000;     BAS[ATNO][  5].d[  2] =        -2.381816674965;
  BAS[ATNO][  5].a[  3] =        14.149588677000;     BAS[ATNO][  5].d[  3] =         4.853750596654;
  BAS[ATNO][  5].a[  4] =        20.730134285000;     BAS[ATNO][  5].d[  4] =         0.349645321668;
  BAS[ATNO][  5].a[  5] =         6.152763130900;     BAS[ATNO][  5].d[  5] =        -4.771055824199;
  BAS[ATNO][  5].a[  6] =         1.575732448000;     BAS[ATNO][  5].d[  6] =         3.191517653776;
  BAS[ATNO][  5].a[  7] =         0.749801694600;     BAS[ATNO][  5].d[  7] =        -2.162277068773;
  BAS[ATNO][  5].a[  8] =         0.195368161900;     BAS[ATNO][  5].d[  8] =         0.773153646184;
  BAS[ATNO][  5].a[  9] =         0.070878767300;     BAS[ATNO][  5].d[  9] =        -0.395568398052;
  BAS[ATNO][  5].a[ 10] =         0.021250403100;     BAS[ATNO][  5].d[ 10] =         0.106926880868;

  // Basis function   7 L = s
  InitBFNGauss(BAS[ATNO][  6]);
  BAS[ATNO][  6].l  = 0;
  BAS[ATNO][  6].ng = 11;
  BAS[ATNO][  6].a[  0] =       729.650381450000;     BAS[ATNO][  6].d[  0] =         0.001529288660;
  BAS[ATNO][  6].a[  1] =        46.665548707000;     BAS[ATNO][  6].d[  1] =         0.067605218305;
  BAS[ATNO][  6].a[  2] =        20.970448726000;     BAS[ATNO][  6].d[  2] =        -2.239442678776;
  BAS[ATNO][  6].a[  3] =        14.149588677000;     BAS[ATNO][  6].d[  3] =         4.563615811634;
  BAS[ATNO][  6].a[  4] =        20.730134285000;     BAS[ATNO][  6].d[  4] =         0.165595496249;
  BAS[ATNO][  6].a[  5] =         6.152763130900;     BAS[ATNO][  6].d[  5] =        -2.259619413955;
  BAS[ATNO][  6].a[  6] =         1.575732448000;     BAS[ATNO][  6].d[  6] =         1.046553218208;
  BAS[ATNO][  6].a[  7] =         0.749801694600;     BAS[ATNO][  6].d[  7] =        -0.667998420116;
  BAS[ATNO][  6].a[  8] =         0.195368161900;     BAS[ATNO][  6].d[  8] =         0.231980717555;
  BAS[ATNO][  6].a[  9] =         0.070878767300;     BAS[ATNO][  6].d[  9] =        -0.118444601842;
  BAS[ATNO][  6].a[ 10] =         0.021250403100;     BAS[ATNO][  6].d[ 10] =         0.032042244417;

  // Basis function   8 L = p
  InitBFNGauss(BAS[ATNO][  7]);
  BAS[ATNO][  7].l  = 1;
  BAS[ATNO][  7].ng = 20;
  BAS[ATNO][  7].a[  0] =        15.383852616000;     BAS[ATNO][  7].d[  0] =         0.151523501742;
  BAS[ATNO][  7].a[  1] =        14.814929544000;     BAS[ATNO][  7].d[  1] =        -0.178876430450;
  BAS[ATNO][  7].a[  2] =         6.726125365800;     BAS[ATNO][  7].d[  2] =         0.099279659261;
  BAS[ATNO][  7].a[  3] =        15.383852616000;     BAS[ATNO][  7].d[  3] =         0.175849429418;
  BAS[ATNO][  7].a[  4] =        14.814929544000;     BAS[ATNO][  7].d[  4] =        -0.207593659528;
  BAS[ATNO][  7].a[  5] =         6.726125365800;     BAS[ATNO][  7].d[  5] =         0.115218241614;
  BAS[ATNO][  7].a[  6] =        15.383852616000;     BAS[ATNO][  7].d[  6] =         0.043615843949;
  BAS[ATNO][  7].a[  7] =        14.814929544000;     BAS[ATNO][  7].d[  7] =        -0.051489349091;
  BAS[ATNO][  7].a[  8] =         6.726125365800;     BAS[ATNO][  7].d[  8] =         0.028577521479;
  BAS[ATNO][  7].a[  9] =         1.962618214900;     BAS[ATNO][  7].d[  9] =        -0.206057095087;
  BAS[ATNO][  7].a[ 10] =         1.033185785100;     BAS[ATNO][  7].d[ 10] =        -0.187306328426;
  BAS[ATNO][  7].a[ 11] =         0.538374460000;     BAS[ATNO][  7].d[ 11] =        -0.066878637121;
  BAS[ATNO][  7].a[ 12] =         1.962618214900;     BAS[ATNO][  7].d[ 12] =        -0.239137969900;
  BAS[ATNO][  7].a[ 13] =         1.033185785100;     BAS[ATNO][  7].d[ 13] =        -0.217376912502;
  BAS[ATNO][  7].a[ 14] =         0.538374460000;     BAS[ATNO][  7].d[ 14] =        -0.077615485669;
  BAS[ATNO][  7].a[ 15] =         1.962618214900;     BAS[ATNO][  7].d[ 15] =        -0.059313268243;
  BAS[ATNO][  7].a[ 16] =         1.033185785100;     BAS[ATNO][  7].d[ 16] =        -0.053915884317;
  BAS[ATNO][  7].a[ 17] =         0.538374460000;     BAS[ATNO][  7].d[ 17] =        -0.019250929174;
  BAS[ATNO][  7].a[ 18] =         0.244466116800;     BAS[ATNO][  7].d[ 18] =         0.885513070438;
  BAS[ATNO][  7].a[ 19] =         0.244466116800;     BAS[ATNO][  7].d[ 19] =         1.027675353254;

  // Basis function   9 L = p
  InitBFNGauss(BAS[ATNO][  8]);
  BAS[ATNO][  8].l  = 1;
  BAS[ATNO][  8].ng = 20;
  BAS[ATNO][  8].a[  0] =        15.383852616000;     BAS[ATNO][  8].d[  0] =         0.024319558137;
  BAS[ATNO][  8].a[  1] =        14.814929544000;     BAS[ATNO][  8].d[  1] =        -0.028709709712;
  BAS[ATNO][  8].a[  2] =         6.726125365800;     BAS[ATNO][  8].d[  2] =         0.015934408969;
  BAS[ATNO][  8].a[  3] =        15.383852616000;     BAS[ATNO][  8].d[  3] =         0.028499196337;
  BAS[ATNO][  8].a[  4] =        14.814929544000;     BAS[ATNO][  8].d[  4] =        -0.033643853613;
  BAS[ATNO][  8].a[  5] =         6.726125365800;     BAS[ATNO][  8].d[  5] =         0.018672948216;
  BAS[ATNO][  8].a[  6] =        15.383852616000;     BAS[ATNO][  8].d[  6] =        -0.075173954576;
  BAS[ATNO][  8].a[  7] =        14.814929544000;     BAS[ATNO][  8].d[  7] =         0.088744310307;
  BAS[ATNO][  8].a[  8] =         6.726125365800;     BAS[ATNO][  8].d[  8] =        -0.049254699831;
  BAS[ATNO][  8].a[  9] =         1.962618214900;     BAS[ATNO][  8].d[  9] =        -0.035157485603;
  BAS[ATNO][  8].a[ 10] =         1.033185785100;     BAS[ATNO][  8].d[ 10] =        -0.031958227608;
  BAS[ATNO][  8].a[ 11] =         0.538374460000;     BAS[ATNO][  8].d[ 11] =        -0.011410840868;
  BAS[ATNO][  8].a[ 12] =         1.962618214900;     BAS[ATNO][  8].d[ 12] =        -0.041199765198;
  BAS[ATNO][  8].a[ 13] =         1.033185785100;     BAS[ATNO][  8].d[ 13] =        -0.037450672339;
  BAS[ATNO][  8].a[ 14] =         0.538374460000;     BAS[ATNO][  8].d[ 14] =        -0.013371945018;
  BAS[ATNO][  8].a[ 15] =         1.962618214900;     BAS[ATNO][  8].d[ 15] =         0.108674968965;
  BAS[ATNO][  8].a[ 16] =         1.033185785100;     BAS[ATNO][  8].d[ 16] =         0.098785773040;
  BAS[ATNO][  8].a[ 17] =         0.538374460000;     BAS[ATNO][  8].d[ 17] =         0.035271941548;
  BAS[ATNO][  8].a[ 18] =         0.244466116800;     BAS[ATNO][  8].d[ 18] =         0.252942457556;
  BAS[ATNO][  8].a[ 19] =         0.244466116800;     BAS[ATNO][  8].d[ 19] =         0.296413969343;

  // Basis function  10 L = p
  InitBFNGauss(BAS[ATNO][  9]);
  BAS[ATNO][  9].l  = 1;
  BAS[ATNO][  9].ng = 20;
  BAS[ATNO][  9].a[  0] =        15.383852616000;     BAS[ATNO][  9].d[  0] =         0.019056157100;
  BAS[ATNO][  9].a[  1] =        14.814929544000;     BAS[ATNO][  9].d[  1] =        -0.022496162779;
  BAS[ATNO][  9].a[  2] =         6.726125365800;     BAS[ATNO][  9].d[  2] =         0.012485777862;
  BAS[ATNO][  9].a[  3] =        15.383852616000;     BAS[ATNO][  9].d[  3] =         0.022442220206;
  BAS[ATNO][  9].a[  4] =        14.814929544000;     BAS[ATNO][  9].d[  4] =        -0.026493475901;
  BAS[ATNO][  9].a[  5] =         6.726125365800;     BAS[ATNO][  9].d[  5] =         0.014704359057;
  BAS[ATNO][  9].a[  6] =        15.383852616000;     BAS[ATNO][  9].d[  6] =        -0.092037183824;
  BAS[ATNO][  9].a[  7] =        14.814929544000;     BAS[ATNO][  9].d[  7] =         0.108651679257;
  BAS[ATNO][  9].a[  8] =         6.726125365800;     BAS[ATNO][  9].d[  8] =        -0.060303650222;
  BAS[ATNO][  9].a[  9] =         1.962618214900;     BAS[ATNO][  9].d[  9] =        -0.027984769594;
  BAS[ATNO][  9].a[ 10] =         1.033185785100;     BAS[ATNO][  9].d[ 10] =        -0.025438213823;
  BAS[ATNO][  9].a[ 11] =         0.538374460000;     BAS[ATNO][  9].d[ 11] =        -0.009082838180;
  BAS[ATNO][  9].a[ 12] =         1.962618214900;     BAS[ATNO][  9].d[ 12] =        -0.032957345931;
  BAS[ATNO][  9].a[ 13] =         1.033185785100;     BAS[ATNO][  9].d[ 13] =        -0.029958296066;
  BAS[ATNO][  9].a[ 14] =         0.538374460000;     BAS[ATNO][  9].d[ 14] =        -0.010696755567;
  BAS[ATNO][  9].a[ 15] =         1.962618214900;     BAS[ATNO][  9].d[ 15] =         0.135160482251;
  BAS[ATNO][  9].a[ 16] =         1.033185785100;     BAS[ATNO][  9].d[ 16] =         0.122861159757;
  BAS[ATNO][  9].a[ 17] =         0.538374460000;     BAS[ATNO][  9].d[ 17] =         0.043868175671;
  BAS[ATNO][  9].a[ 18] =         0.244466116800;     BAS[ATNO][  9].d[ 18] =         0.255350689979;
  BAS[ATNO][  9].a[ 19] =         0.244466116800;     BAS[ATNO][  9].d[ 19] =         0.300723613074;

  // Basis function  11 L = p
  InitBFNGauss(BAS[ATNO][ 10]);
  BAS[ATNO][ 10].l  = 1;
  BAS[ATNO][ 10].ng = 20;
  BAS[ATNO][ 10].a[  0] =        15.383852616000;     BAS[ATNO][ 10].d[  0] =         0.594567372016;
  BAS[ATNO][ 10].a[  1] =        14.814929544000;     BAS[ATNO][ 10].d[  1] =        -0.701898305847;
  BAS[ATNO][ 10].a[  2] =         6.726125365800;     BAS[ATNO][ 10].d[  2] =         0.389566274691;
  BAS[ATNO][ 10].a[  3] =        15.383852616000;     BAS[ATNO][ 10].d[  3] =         0.698203619148;
  BAS[ATNO][ 10].a[  4] =        14.814929544000;     BAS[ATNO][ 10].d[  4] =        -0.824242904138;
  BAS[ATNO][ 10].a[  5] =         6.726125365800;     BAS[ATNO][ 10].d[  5] =         0.457469743025;
  BAS[ATNO][ 10].a[  6] =        15.383852616000;     BAS[ATNO][ 10].d[  6] =        -2.271226570051;
  BAS[ATNO][ 10].a[  7] =        14.814929544000;     BAS[ATNO][ 10].d[  7] =         2.681226984098;
  BAS[ATNO][ 10].a[  8] =         6.726125365800;     BAS[ATNO][ 10].d[  8] =        -1.488129546824;
  BAS[ATNO][ 10].a[  9] =         1.962618214900;     BAS[ATNO][ 10].d[  9] =        -0.069225460724;
  BAS[ATNO][ 10].a[ 10] =         1.033185785100;     BAS[ATNO][ 10].d[ 10] =        -0.062926087919;
  BAS[ATNO][ 10].a[ 11] =         0.538374460000;     BAS[ATNO][ 10].d[ 11] =        -0.022468066268;
  BAS[ATNO][ 10].a[ 12] =         1.962618214900;     BAS[ATNO][ 10].d[ 12] =        -0.081291825771;
  BAS[ATNO][ 10].a[ 13] =         1.033185785100;     BAS[ATNO][ 10].d[ 13] =        -0.073894438867;
  BAS[ATNO][ 10].a[ 14] =         0.538374460000;     BAS[ATNO][ 10].d[ 14] =        -0.026384369411;
  BAS[ATNO][ 10].a[ 15] =         1.962618214900;     BAS[ATNO][ 10].d[ 15] =         0.264438839266;
  BAS[ATNO][ 10].a[ 16] =         1.033185785100;     BAS[ATNO][ 10].d[ 16] =         0.240375455429;
  BAS[ATNO][ 10].a[ 17] =         0.538374460000;     BAS[ATNO][ 10].d[ 17] =         0.085827227470;
  BAS[ATNO][ 10].a[ 18] =         0.244466116800;     BAS[ATNO][ 10].d[ 18] =         0.090278535891;
  BAS[ATNO][ 10].a[ 19] =         0.244466116800;     BAS[ATNO][ 10].d[ 19] =         0.106014563625;

-------------------------------------------
RADIAL EXPECTATION VALUES <R**-3> TO <R**3>
-------------------------------------------
   0 :     0.000000     1.642783     1.233502     0.873289     0.820384     0.828093
   1 :     1.696810     1.299581     1.091749     0.996177     1.084385     1.348343
   2 :     1.696810     1.299581     1.091749     0.996177     1.084385     1.348343
   3 :     1.697417     1.299881     1.091878     0.996054     1.084185     1.348673
   4 :     0.000000     0.558301     0.659505     1.791612     3.620239     8.302096
   5 :     0.265907     0.305640     0.496448     2.276044     5.662122    15.643896
   6 :     0.000000     0.146186     0.306090     3.981832    17.558161    83.369677
   7 :     0.000000     0.049862     0.164827     7.507765    61.851535   541.204122
   8 :     0.000000     0.554586     0.585454     2.881287    13.314160    87.573525
   9 :     0.000000     5.636065     2.118443     0.612174     0.705479     2.344176
  10 :     0.000000    49.812067     5.682333     0.239925     0.107650     0.223161
  11 :     0.265907     0.305640     0.496448     2.276044     5.662122    15.643896
  12 :     0.267378     0.306821     0.497425     2.271932     5.646893    15.639614
  13 :     0.033237     0.062705     0.218783     5.187296    29.429558   181.063215
  14 :     0.034924     0.064466     0.221093     5.144338    28.952407   176.684847
  15 :     0.034924     0.064466     0.221093     5.144338    28.952407   176.684847
  16 :     0.038362     0.060100     0.196174     6.431546    47.294665   378.148110
  17 :     0.038362     0.060100     0.196174     6.431546    47.294665   378.148110
  18 :     0.038458     0.060559     0.197440     6.392746    46.832605   373.771822
  19 :    25.365740     7.098780     2.449169     0.516984     0.489193     1.453804
  20 :    25.365740     7.098780     2.449169     0.516984     0.489193     1.453804
  21 :    25.365254     7.098601     2.449106     0.517059     0.489530     1.455678
Making the total density                ... o.k.
o.k.
Initializing the integrals              ... done
Making exponents                        ... done
Making rho(0)                           ... done (         0.005795425)
Integral calculation                    ... Two index integrals                     ... done
Solving the equation system             ... done
atomic density will be written to file 81_Tl_atom81.adf

-------
TIMINGS
-------

Total SCF time: 0 days 0 hours 0 min 0 sec 

Total time                  ....       0.864 sec
Sum of individual times     ....       0.417 sec  ( 48.3%)

Fock matrix formation       ....       0.279 sec  ( 32.3%)
Diagonalization             ....       0.074 sec  (  8.6%)
Density matrix formation    ....       0.000 sec  (  0.1%)
Population analysis         ....       0.000 sec  (  0.0%)
Initial guess               ....       0.000 sec  (  0.0%)
Orbital Transformation      ....       0.000 sec  (  0.0%)
Orbital Orthonormalization  ....       0.000 sec  (  0.0%)
DIIS solution               ....       0.063 sec  (  7.3%)

-------------------------   --------------------
FINAL SINGLE POINT ENERGY      -156.739973930167
-------------------------   --------------------


                            ***************************************
                            *     ORCA property calculations      *
                            ***************************************

                                    ---------------------
                                    Active property flags
                                    ---------------------
   (+) Dipole Moment


------------------------------------------------------------------------------
                       ORCA ELECTRIC PROPERTIES CALCULATION
------------------------------------------------------------------------------

Dipole Moment Calculation                       ... on
Quadrupole Moment Calculation                   ... off
Polarizability Calculation                      ... off
GBWName                                         ... 81_Tl_atom81.gbw
Electron density file                           ... 81_Tl_atom81.scfp
The origin for moment calculation is the CENTER OF MASS  = ( 0.000000,  0.000000  0.000000)

-------------
DIPOLE MOMENT
-------------
                                X             Y             Z
Electronic contribution:      0.00000      -0.00000       0.00000
Nuclear contribution   :      0.00000       0.00000       0.00000
                        -----------------------------------------
Total Dipole Moment    :      0.00000      -0.00000       0.00000
                        -----------------------------------------
Magnitude (a.u.)       :      0.00000
Magnitude (Debye)      :      0.00000



--------------------
Rotational spectrum 
--------------------
 
Rotational constants in cm-1:     0.000000     0.000000     0.000000 
Rotational constants in MHz :     0.000000     0.000000     0.000000 

 Dipole components along the rotational axes: 
x,y,z [a.u.] :     0.000000    -0.000000     0.000000 
x,y,z [Debye]:     0.000000    -0.000000     0.000000 

 

Timings for individual modules:

Sum of individual times         ...        1.125 sec (=   0.019 min)
GTO integral calculation        ...        0.230 sec (=   0.004 min)  20.5 %
SCF iterations                  ...        0.894 sec (=   0.015 min)  79.5 %
                             ****ORCA TERMINATED NORMALLY****
TOTAL RUN TIME: 0 days 0 hours 0 minutes 1 seconds 334 msec
