
                                 *****************
                                 * O   R   C   A *
                                 *****************

           --- An Ab Initio, DFT and Semiempirical electronic structure package ---

                  #######################################################
                  #                        -***-                        #
                  #          Department of theory and spectroscopy      #
                  #               Directorship: Frank Neese             #
                  #        Max Planck Institute fuer Kohlenforschung    #
                  #                Kaiser Wilhelm Platz 1               #
                  #                 D-45470 Muelheim/Ruhr               #
                  #                      Germany                        #
                  #                                                     #
                  #                  All rights reserved                #
                  #                        -***-                        #
                  #######################################################


                         Program Version 4.2.0 -  RELEASE  -


 With contributions from (in alphabetic order):
   Daniel Aravena         : Magnetic Suceptibility
   Michael Atanasov       : Ab Initio Ligand Field Theory (pilot matlab implementation)
   Alexander A. Auer      : GIAO ZORA, VPT2
   Ute Becker             : Parallelization
   Giovanni Bistoni       : ED, misc. LED, open-shell LED, HFLED
   Martin Brehm           : Molecular dynamics
   Dmytro Bykov           : SCF Hessian
   Vijay G. Chilkuri      : MRCI spin determinant printing, contributions to CSF-ICE
   Dipayan Datta          : RHF DLPNO-CCSD density
   Achintya Kumar Dutta   : EOM-CC, STEOM-CC
   Dmitry Ganyushin       : Spin-Orbit,Spin-Spin,Magnetic field MRCI
   Miquel Garcia          : C-PCM Hessian, Gaussian charge scheme
   Yang Guo               : DLPNO-NEVPT2, CIM, IAO-localization
   Andreas Hansen         : Spin unrestricted coupled pair/coupled cluster methods
   Benjamin Helmich-Paris : CASSCF linear response (MC-RPA)
   Lee Huntington         : MR-EOM, pCC
   Robert Izsak           : Overlap fitted RIJCOSX, COSX-SCS-MP3, EOM
   Christian Kollmar      : KDIIS, OOCD, Brueckner-CCSD(T), CCSD density
   Simone Kossmann        : Meta GGA functionals, TD-DFT gradient, OOMP2, MP2 Hessian
   Martin Krupicka        : AUTO-CI
   Lucas Lang             : DCDCAS
   Dagmar Lenk            : GEPOL surface, SMD
   Dimitrios Liakos       : Extrapolation schemes; Compound Job, initial MDCI parallelization
   Dimitrios Manganas     : Further ROCIS development; embedding schemes
   Dimitrios Pantazis     : SARC Basis sets
   Taras Petrenko         : DFT Hessian,TD-DFT gradient, ASA, ECA, R-Raman, ABS, FL, XAS/XES, NRVS
   Peter Pinski           : DLPNO-MP2, DLPNO-MP2 Gradient
   Christoph Reimann      : Effective Core Potentials
   Marius Retegan         : Local ZFS, SOC
   Christoph Riplinger    : Optimizer, TS searches, QM/MM, DLPNO-CCSD(T), (RO)-DLPNO pert. Triples
   Tobias Risthaus        : Range-separated hybrids, TD-DFT gradient, RPA, STAB
   Michael Roemelt        : Original ROCIS implementation
   Masaaki Saitow         : Open-shell DLPNO-CCSD energy and density
   Barbara Sandhoefer     : DKH picture change effects
   Avijit Sen             : IP-ROCIS
   Kantharuban Sivalingam : CASSCF convergence, NEVPT2, FIC-MRCI
   Bernardo de Souza      : ESD, SOC TD-DFT
   Georgi Stoychev        : AutoAux, RI-MP2 NMR
   Willem Van den Heuvel  : Paramagnetic NMR
   Boris Wezisla          : Elementary symmetry handling
   Frank Wennmohs         : Technical directorship


 We gratefully acknowledge several colleagues who have allowed us to
 interface, adapt or use parts of their codes:
   Stefan Grimme, W. Hujo, H. Kruse,             : VdW corrections, initial TS optimization,
                  C. Bannwarth                     DFT functionals, gCP, sTDA/sTD-DF
   Ed Valeev, F. Pavosevic, A. Kumar             : LibInt (2-el integral package), F12 methods
   Garnet Chan, S. Sharma, J. Yang, R. Olivares  : DMRG
   Ulf Ekstrom                                   : XCFun DFT Library
   Mihaly Kallay                                 : mrcc  (arbitrary order and MRCC methods)
   Andreas Klamt, Michael Diedenhofen            : otool_cosmo (COSMO solvation model)
   Jiri Pittner, Ondrej Demel                    : Mk-CCSD
   Frank Weinhold                                : gennbo (NPA and NBO analysis)
   Christopher J. Cramer and Donald G. Truhlar   : smd solvation model
   Lars Goerigk                                  : TD-DFT with DH, B97 family of functionals
   V. Asgeirsson, H. Jonsson                     : NEB implementation
   FAccTs GmbH                                   : IRC, NEB, NEB-TS, Multilevel, MM, QM/MM, CI optimization
   S Lehtola, MJT Oliveira, MAL Marques          : LibXC Library


 Your calculation uses the libint2 library for the computation of 2-el integrals
 For citations please refer to: http://libint.valeyev.net

 Your ORCA version has been built with support for libXC version: 4.2.3
 For citations please refer to: https://tddft.org/programs/libxc/

 This ORCA versions uses:
   CBLAS   interface :  Fast vector & matrix operations
   LAPACKE interface :  Fast linear algebra routines
   SCALAPACK package :  Parallel linear algebra routines


----- Orbital basis set information -----
Your calculation utilizes the basis: def2-SVP
   F. Weigend and R. Ahlrichs, Phys. Chem. Chem. Phys. 7, 3297 (2005).

----- AuxJ basis set information -----
Your calculation utilizes the auxiliary basis: def2/J
   F. Weigend, Phys. Chem. Chem. Phys. 8, 1057 (2006).

================================================================================
                                        WARNINGS
                       Please study these warnings very carefully!
================================================================================


INFO   : the flag for use of LIBINT has been found!

================================================================================
                                       INPUT FILE
================================================================================
NAME = 83_Bi_atom83.inp
|  1> # input to generate an atomic fitting density for Bi
|  2> # this file is use internally by ORCA
|  3> #
|  4> # atomic ground state (S=4): 1s2 2s2 2p6 3s2 3p6 4s2 3d10 4p6 5s2 4d10 5p6 6s2 4f14 5d10 6p3 
|  5> #
|  6> ! RHF AllowRHF def2-SVP def2/J  NoMulliken NoLoewdin NoMayer NoPrintMOs 
|  7> 
|  8> %output print[p_atomdensfit] 2 end
|  9> 
| 10> %scf
| 11>   guess hcore
| 12>   maxiter 1000
| 13>   maxdisk 500000
| 14>   SCFMode Conventional
| 15>   lshift 1.000000
| 16>   hftyp rohf
| 17>   rohf_case sahf
| 18>   rohf_numop   2
| 19>   rohf_norb[1] 3
| 20>   rohf_nel[1]  3
| 21> end
| 22> 
| 23> %basis
| 24>   NewECP 83
| 25>     N_core 60
| 26>     lmax f
| 27>     s 4
| 28>       1      13.0430900000    283.2642270000  2
| 29>       2       8.2216820000     62.4719590000  2
| 30>       3       4.2145460000    -13.7133830000  2
| 31>       4       4.1334000000    -18.1943080000  2
| 32>     p 6
| 33>       1      10.4677770000     72.0014990000  2
| 34>       2       9.1189010000    144.0022770000  2
| 35>       3       6.7547910000      5.0079450000  2
| 36>       4       6.2525920000      9.9915500000  2
| 37>       5       4.2145460000    -13.7133830000  2
| 38>       6       4.1334000000    -18.1943080000  2
| 39>     d 6
| 40>       1       8.0814740000     36.3962590000  2
| 41>       2       7.8905950000     54.5976640000  2
| 42>       3       4.9555560000      9.9842940000  2
| 43>       4       4.7045590000     14.9814850000  2
| 44>       5       4.2145460000    -13.7133830000  2
| 45>       6       4.1334000000    -18.1943080000  2
| 46>     f 2
| 47>       1       4.2145460000     13.7133830000  2
| 48>       2       4.1334000000     18.1943080000  2
| 49>   end
| 50>   NewGTO 83
| 51>     s 4 
| 52>      1     716.4143531000      0.0016093804
| 53>      2      83.8060590470      0.0090755346
| 54>      3      21.1169628530     -1.1282637962
| 55>      4      15.4914481870      2.0808980196
| 56>     s 2 
| 57>      1      23.2398550290     -0.0735378540
| 58>      2       6.6474255000      1.0546329000
| 59>     s 1 
| 60>      1       1.7617744005      1.0000000000
| 61>     s 1 
| 62>      1       0.8725286600      1.0000000000
| 63>     s 1 
| 64>      1       0.2561889600      1.0000000000
| 65>     s 1 
| 66>      1       0.0970739130      1.0000000000
| 67>     p 3 
| 68>      1      15.2496446690      2.4477011965
| 69>      2      14.8461760530     -2.8094143356
| 70>      3       7.0636826784      1.3180348276
| 71>     p 3 
| 72>      1       2.5881255616      0.2841971176
| 73>      2       1.5020208499      0.5115554398
| 74>      3       0.7673272439      0.2585305412
| 75>     p 1 
| 76>      1       0.3279764898      1.0000000000
| 77>     p 1 
| 78>      1       0.1382033599      1.0000000000
| 79>     p 1 
| 80>      1       0.0551373310      1.0000000000
| 81>     s 1 
| 82>      1       0.0358089062      1.0000000000
| 83>   end
| 84>   NewAuxGTO 83
| 85>     S 1
| 86>      1 1310.72 1.0
| 87>     S 1
| 88>      1  655.36 1.0
| 89>     S 1
| 90>      1  327.68 1.0
| 91>     S 1
| 92>      1  163.84 1.0
| 93>     S 1
| 94>      1   81.82 1.0
| 95>     S 1
| 96>      1   40.96 1.0
| 97>     S 1
| 98>      1   20.48 1.0
| 99>     S 1
|100>      1   10.24 1.0
|101>     S 1
|102>      1    5.12 1.0
|103>     S 1
|104>      1    2.56 1.0
|105>     S 1
|106>      1    1.28 1.0
|107>     S 1
|108>      1    0.64 1.0
|109>     S 1
|110>      1    0.32 1.0
|111>     S 1
|112>      1    0.16 1.0
|113>     S 1
|114>      1    0.08 1.0
|115>     S 1
|116>      1    0.04 1.0
|117>     S 1
|118>      1    0.02 1.0
|119>     S 1
|120>      1    0.01 1.0
|121>   end
|122> end
|123> 
|124> * xyz 0 4
|125> 83  0.0 0.0 0.0
|126> *
|127> 
|128> 
|129>                          ****END OF INPUT****
================================================================================

                       ****************************
                       * Single Point Calculation *
                       ****************************

---------------------------------
CARTESIAN COORDINATES (ANGSTROEM)
---------------------------------
  Bi     0.000000    0.000000    0.000000

----------------------------
CARTESIAN COORDINATES (A.U.)
----------------------------
  NO LB      ZA    FRAG     MASS         X           Y           Z
   0 Bi   23.0000*   0   208.980    0.000000    0.000000    0.000000
* core charge reduced due to ECP

--------------------------------
INTERNAL COORDINATES (ANGSTROEM)
--------------------------------
 Bi     0   0   0     0.000000000000     0.00000000     0.00000000

---------------------------
INTERNAL COORDINATES (A.U.)
---------------------------
 Bi     0   0   0     0.000000000000     0.00000000     0.00000000

---------------------
BASIS SET INFORMATION
---------------------
There are 1 groups of distinct atoms

 Group   1 Type Bi  : 11s9p contracted to 7s5p pattern {4211111/33111}

Atom   0Bi   basis set group =>   1
---------------------------------
AUXILIARY/J BASIS SET INFORMATION
---------------------------------
There are 1 groups of distinct atoms

 Group   1 Type Bi  : 18s contracted to 18s pattern {111111111111111111}

Atom   0Bi   basis set group =>   1
-------------------------
ECP PARAMETER INFORMATION
-------------------------

 Group 1, Type Bi ECP (replacing 60 core electrons, lmax=3)

Atom   0Bi   ECP group =>   1

------------------------------------------------------------------------------
                           ORCA GTO INTEGRAL CALCULATION
------------------------------------------------------------------------------

                         BASIS SET STATISTICS AND STARTUP INFO

 # of primitive gaussian shells          ...   20
 # of primitive gaussian functions       ...   38
 # of contracted shells                  ...   12
 # of contracted basis functions         ...   22
 Highest angular momentum                ...    1
 Maximum contraction depth               ...    4
 Integral package used                   ... LIBINT
 Integral threshhold            Thresh   ...  1.000e-10
 Primitive cut-off              TCut     ...  1.000e-11
 Storage cut-off                TCutStore... -1.000e+00
 Buffer length                           ... 1048576 integrals/buffer
 Generate file with integrals 4 distinct ...false


------------------------------ INTEGRAL EVALUATION ----------------------------


 * One electron integrals 

   ECP integrals                         ... done
 Pre-screening matrix                    ... done
 Shell pair data                         ... done (   0.000 sec)
 Statistics run                          ... done
 Maximum amount of storage needed        ...     0 MB
 Maximum amount of storage dedicated     ... 500000 MB
 Beginning two electron integral evaluation:
 Starting repulsion integrals
  <ss|ss>  ...          406 b.         0 skpd (  0.0%)     0.000 s. (  0.000 ms/b)
  <ss|sp>  ...          980 b.         0 skpd (  0.0%)     0.000 s. (  0.000 ms/b)
  <ss|pp>  ...          420 b.         0 skpd (  0.0%)     0.000 s. (  0.001 ms/b)
  <sp|sp>  ...          630 b.         0 skpd (  0.0%)     0.000 s. (  0.001 ms/b)
  <sp|pp>  ...          525 b.         0 skpd (  0.0%)     0.001 s. (  0.002 ms/b)
  <pp|pp>  ...          120 b.         0 skpd (  0.0%)     0.001 s. (  0.004 ms/b)


                                      INTEGRAL STATISTICS

Integral type statistics:
 Number of integrals retained            ...      32131 
 One   Center Integrals retained         ...      32131 (100.0%)
 Two   Center Integrals retained         ...          0 (  0.0%)
 Three Center Integrals retained         ...          0 (  0.0%)
 Four  Center Integrals retained         ...          0 (  0.0%)

Storage statistics:
 Number of char integrals                ...          0 (  0.0%)
 Number of short int integrals           ...          0 (  0.0%)
 Number of double/float integrals        ...      32131 (100.0%)
 Amount of memory used                   ...          0 MB
 Amount of memory estimated              ...          0 MB ( 96.0%)

Prescreening statistics:
 Total number of shell quadruples        ...       3081 
 Number of skipped shell quadruples      ...          0 (  0.0%)
 # of negligible batches done            ...          0 (  0.0%)

Timings:
 Total evaluation time               ...     0.155 sec (   0.003 min)
 One electron matrix time            ...     0.013 sec (   0.000 min) =  8.2%
 Schwartz matrix evaluation time     ...     0.070 sec (   0.001 min) = 44.9%
 Statistics run                      ...     0.000 sec (   0.000 min) =  0.2%
 Repulsion integral time             ...     0.002 sec (   0.000 min) =  1.6%

-------------------------------------------------------------------------------
                                 ORCA SCF
-------------------------------------------------------------------------------

------------
SCF SETTINGS
------------
Hamiltonian:
 Ab initio Hamiltonian  Method          .... Hartree-Fock(GTOs)


General Settings:
 Integral files         IntName         .... 83_Bi_atom83
 Hartree-Fock type      HFTyp           .... ROHF
 Total Charge           Charge          ....    0
 Multiplicity           Mult            ....    4
 Number of Electrons    NEL             ....   23
 Basis Dimension        Dim             ....   22
 Nuclear Repulsion      ENuc            ....      0.0000000000 Eh

Convergence Acceleration:
 DIIS                   CNVDIIS         .... on
   Start iteration      DIISMaxIt       ....    12
   Startup error        DIISStart       ....  0.200000
   # of expansion vecs  DIISMaxEq       ....     5
   Bias factor          DIISBfac        ....   1.050
   Max. coefficient     DIISMaxC        ....  10.000
 Newton-Raphson         CNVNR           .... off
 SOSCF                  CNVSOSCF        .... off
 Level Shifting         CNVShift        .... on
   Level shift para.    LevelShift      ....    1.0000
   Turn off err/grad.   ShiftErr        ....    0.0010
 Zerner damping         CNVZerner       .... off
 Static damping         CNVDamp         .... on
   Fraction old density DampFac         ....    0.7000
   Max. Damping (<1)    DampMax         ....    0.9800
   Min. Damping (>=0)   DampMin         ....    0.0000
   Turn off err/grad.   DampErr         ....    0.1000
 Fernandez-Rico         CNVRico         .... off

SCF Procedure:
 Maximum # iterations   MaxIter         ....  1000
 SCF integral mode      SCFMode         .... Conventional
 Integral Threshold     Thresh          ....  1.000e-10 Eh
 Primitive CutOff       TCut            ....  1.000e-11 Eh
 Integral Buffer length BufferLength    .... 1048576
 Integral index format  IndFormat       ....     0
 Integral value format  ValFormat       ....     0
 Integral Storage       Thresh          ....  1.000e-10 Eh

Convergence Tolerance:
 Convergence Check Mode ConvCheckMode   .... Total+1el-Energy
 Convergence forced     ConvForced      .... 0
 Energy Change          TolE            ....  1.000e-06 Eh
 1-El. energy change                    ....  1.000e-03 Eh
 DIIS Error             TolErr          ....  1.000e-06


Diagonalization of the overlap matrix:
Smallest eigenvalue                        ... 6.990e-03
Time for diagonalization                   ...    0.000 sec
Threshold for overlap eigenvalues          ... 1.000e-08
Number of eigenvalues below threshold      ... 0
Time for construction of square roots      ...    0.002 sec
Total time needed                          ...    0.002 sec

--------------------
INITIAL GUESS: HCORE
--------------------
AVERAGE-CONFIGURATION (SAHF) CASE FOUND

-------------------
FINAL ROHF SETTINGS
-------------------
Number of operators             ... 2
  operator   0:  10 orbitals  20 electrons n(mue)= 2.000
  operator   1:   3 orbitals   3 electrons n(mue)= 1.000
Vector coupling coefficients a and b (Zerner convention):
   1.000    1.000           1.000    1.000 
   1.000    1.000           1.000    2.000 

                      -----------------
                      INTIAL GUESS DONE 
                      -----------------

 InCore treatment chosen:
   Memory dedicated               ...    1024 MB
   Memory needed                  ...      0 MB
   Number of tiny    integrals    ...       0
   Number of small   integrals    ...       0
   Number of regular integrals    ...   32131

--------------
SCF ITERATIONS
--------------
ITER       Energy         Delta-E        Max-DP      RMS-DP      [F,P]     Damp
  0   -188.3981378900   0.000000000000 5.56542452  0.38932059  1.2270559 0.7000
  1   -189.4249616947  -1.026823804754 5.49382938  0.36686989  0.2669843 0.7000
  2   -190.1486887232  -0.723727028518 4.69958366  0.32785636  0.2876054 0.7000
  3   -190.6413669846  -0.492678261381 3.65802252  0.26503391  0.2381084 0.7000
                            ****Activating DIIS****
  4   -190.9822919334  -0.340924948771 2.86887409  0.21968202  0.1809962 0.7000
  5   -191.2880384555  -0.305746522130 6.72037686  0.53941841  0.0830001 0.0000
  6   -191.8095765393  -0.521538083827 1.38889706  0.08468827  0.0575599 0.0000
  7   -191.8383542032  -0.028777663864 1.00296270  0.06655019  0.0356395 0.0000
  8   -191.8544298219  -0.016075618742 0.28385990  0.02180955  0.0265193 0.0000
  9   -191.8585628234  -0.004133001504 0.33697541  0.02475162  0.0193334 0.0000
 10   -191.8618383520  -0.003275528552 0.25021893  0.02076974  0.0106496 0.0000
 11   -191.8637867554  -0.001948403420 0.18282546  0.01367560  0.0060918 0.0000
 12   -191.8642186396  -0.000431884184 0.03664680  0.00271561  0.0018005 0.0000
 13   -191.8642571908  -0.000038551205 0.02721484  0.00211063  0.0013884 0.0000
 14   -191.8642822202  -0.000025029387 0.02463359  0.00200345  0.0009487 0.0000
 15   -191.8642978164  -0.000015596161 0.01593191  0.00113769  0.0004776 0.0000
 16   -191.8643018726  -0.000004056273 0.00826233  0.00048085  0.0004057 0.0000
                 **** Energy Check signals convergence ****

               *****************************************************
               *                     SUCCESS                       *
               *           SCF CONVERGED AFTER  17 CYCLES          *
               *****************************************************


----------------
TOTAL SCF ENERGY
----------------

Total Energy       :         -191.86430254 Eh           -5220.89310 eV

Components:
Nuclear Repulsion  :            0.00000000 Eh               0.00000 eV
Electronic Energy  :         -191.86430254 Eh           -5220.89310 eV
One Electron Energy:         -300.13322513 Eh           -8167.04026 eV
Two Electron Energy:          108.26892258 Eh            2946.14716 eV

Virial components:
Potential Energy   :         -240.90613156 Eh           -6555.38911 eV
Kinetic Energy     :           49.04182901 Eh            1334.49601 eV
Virial Ratio       :            4.91225830


---------------
SCF CONVERGENCE
---------------

  Last Energy change         ...   -6.7161e-07  Tolerance :   1.0000e-06
  Last MAX-Density change    ...    3.7816e-03  Tolerance :   1.0000e-05
  Last RMS-Density change    ...    3.0250e-04  Tolerance :   1.0000e-06
  Last DIIS Error            ...    2.4518e-04  Tolerance :   1.0000e-06

             **** THE GBW FILE WAS UPDATED (83_Bi_atom83.gbw) ****
             **** DENSITY FILE WAS UPDATED (83_Bi_atom83.scfp) ****
             **** ENERGY FILE WAS UPDATED (83_Bi_atom83.en.tmp) ****
             **** THE GBW FILE WAS UPDATED (83_Bi_atom83.gbw) ****
             **** DENSITY FILE WAS UPDATED (83_Bi_atom83.scfp) ****
----------------
ORBITAL ENERGIES
----------------

  NO   OCC          E(Eh)            E(eV) 
   0   2.0000     -10.321245      -280.8554 
   1   2.0000      -7.539129      -205.1501 
   2   2.0000      -7.539129      -205.1501 
   3   2.0000      -7.533152      -204.9875 
   4   2.0000      -2.720428       -74.0266 
   5   2.0000      -1.686344       -45.8878 
   6   2.0000      -1.686344       -45.8878 
   7   2.0000      -1.671496       -45.4837 
   8   2.0000      -0.527389       -14.3510 
   9   2.0000      -0.244362        -6.6494 
  10   1.0000      -0.294573        -8.0158 
  11   1.0000      -0.294573        -8.0158 
  12   1.0000      -0.067788        -1.8446 
  13   0.0000       0.239883         6.5276 
  14   0.0000       0.239883         6.5276 
  15   0.0000       0.262360         7.1392 
  16   0.0000       1.273235        34.6465 
  17   0.0000      31.664499       861.6348 
  18   0.0000      31.664499       861.6348 
  19   0.0000      31.667785       861.7243 
  20   0.0000      32.134185       874.4156 
  21   0.0000     116.332050      3165.5560 
CleanUpVectors: The p-vectors have cracked symmetry
CleanUpVectors: The p-vectors have cracked symmetry
CleanUpVectors: The p-vectors have cracked symmetry
CleanUpVectors: The p-vectors have cracked symmetry
CleanUpVectors: The p-vectors have cracked symmetry
CleanUpVectors: The p-vectors have cracked symmetry
CleanUpVectors: The p-vectors have cracked symmetry
CleanUpVectors: The p-vectors have cracked symmetry
CleanUpVectors: The p-vectors have cracked symmetry
CleanUpVectors: The p-vectors have cracked symmetry
CleanUpVectors: The p-vectors have cracked symmetry
CleanUpVectors: The p-vectors have cracked symmetry
CleanUpVectors: The p-vectors have cracked symmetry
CleanUpVectors: The p-vectors have cracked symmetry
CleanUpVectors: The p-vectors have cracked symmetry
--------------------------
ATOM BASIS FOR ELEMENT Bi
--------------------------
 NewGTO Bi
 S 11
    1        716.414353100000         0.000474772773
    2         83.806059047000         0.002677314031
    3         21.116962853000        -0.332841714009
    4         15.491448187000         0.613872097868
    5         23.239855029000         0.074931661689
    6          6.647425500000        -1.074621999022
    7          1.761774400500         1.261205846793
    8          0.872528660000         0.214882474954
    9          0.256188960000         0.001654289364
   10          0.097073913000        -0.001224079584
   11          0.035808906200         0.000449979546
 P 20
    1         15.249644669000        -0.143183672258
    2         14.846176053000         0.164342878960
    3          7.063682678400        -0.077101350054
    4         15.249644669000        -0.700651746779
    5         14.846176053000         0.804191730787
    6          7.063682678400        -0.377286004351
    7         15.249644669000        -0.232071643140
    8         14.846176053000         0.266366418440
    9          7.063682678400        -0.124965624315
   10          2.588125561600         0.066263347305
   11          1.502020849900         0.119274171602
   12          0.767327243900         0.060278933106
   13          2.588125561600         0.324251566570
   14          1.502020849900         0.583653536473
   15          0.767327243900         0.294967569334
   16          2.588125561600         0.107399423737
   17          1.502020849900         0.193319200097
   18          0.767327243900         0.097699904129
   19          0.327976489800        -0.031391269634
   20          0.327976489800        -0.153609329581
 S 11
    1        716.414353100000        -0.000325488506
    2         83.806059047000        -0.001835477928
    3         21.116962853000         0.228185268000
    4         15.491448187000        -0.420850402079
    5         23.239855029000        -0.060061492229
    6          6.647425500000         0.861363532963
    7          1.761774400500        -2.000389607065
    8          0.872528660000         0.868927945490
    9          0.256188960000         1.166379804077
   10          0.097073913000        -0.287553764908
   11          0.035808906200         0.079079963328
 P 20
    1         15.249644669000        -0.132568789371
    2         14.846176053000         0.152159363996
    3          7.063682678400        -0.071385462283
    4         15.249644669000        -0.247325404939
    5         14.846176053000         0.283874330407
    6          7.063682678400        -0.133179449324
    7         15.249644669000        -0.259260532801
    8         14.846176053000         0.297573191755
    9          7.063682678400        -0.139606260822
   10          2.588125561600         0.081513456815
   11          1.502020849900         0.146724402425
   12          0.767327243900         0.074151765801
   13          2.588125561600         0.152074623374
   14          1.502020849900         0.273734658183
   15          0.767327243900         0.138340370992
   16          2.588125561600         0.159413255146
   17          1.502020849900         0.286944211590
   18          0.767327243900         0.145016231956
   19          0.327976489800        -0.514528231534
   20          0.327976489800        -0.959923552296
 S 11
    1        716.414353100000         0.000476056631
    2         83.806059047000         0.002684553899
    3         21.116962853000        -0.333741769089
    4         15.491448187000         0.615532102239
    5         23.239855029000         0.092476402510
    6          6.647425500000        -1.326237458072
    7          1.761774400500         4.906529204441
    8          0.872528660000        -6.309197707876
    9          0.256188960000         4.746261073416
   10          0.097073913000        -3.290709817975
   11          0.035808906200         1.084313562037
 S 11
    1        716.414353100000         0.004437939721
    2         83.806059047000         0.025026199830
    3         21.116962853000        -3.111238783095
    4         15.491448187000         5.738171023524
    5         23.239855029000         0.353452159982
    6          6.647425500000        -5.068984967835
    7          1.761774400500         3.821152735315
    8          0.872528660000        -2.796546440529
    9          0.256188960000         1.095997101939
   10          0.097073913000        -0.587815466437
   11          0.035808906200         0.177024911192
 S 11
    1        716.414353100000         0.004159225587
    2         83.806059047000         0.023454489520
    3         21.116962853000        -2.915844911590
    4         15.491448187000         5.377798988521
    5         23.239855029000         0.169437519407
    6          6.647425500000        -2.429964606546
    7          1.761774400500         1.246839301583
    8          0.872528660000        -0.853197412216
    9          0.256188960000         0.322396934411
   10          0.097073913000        -0.172194864214
   11          0.035808906200         0.051881298624
 P 20
    1         15.249644669000         0.091691296112
    2         14.846176053000        -0.105241130787
    3          7.063682678400         0.049373805037
    4         15.249644669000        -0.290648454583
    5         14.846176053000         0.333599516188
    6          7.063682678400        -0.156507986463
    7         15.249644669000         0.230383475487
    8         14.846176053000        -0.264428778988
    9          7.063682678400         0.124056582082
   10          2.588125561600        -0.056378839555
   11          1.502020849900        -0.101482035806
   12          0.767327243900        -0.051287120804
   13          2.588125561600         0.178712956220
   14          1.502020849900         0.321683716180
   15          0.767327243900         0.162572927133
   16          2.588125561600        -0.141657426074
   17          1.502020849900        -0.254983680018
   18          0.767327243900        -0.128863977711
   19          0.327976489800         0.355873812076
   20          0.327976489800        -1.128069706634
 P 20
    1         15.249644669000         0.028586936986
    2         14.846176053000        -0.032811419423
    3          7.063682678400         0.015393455139
    4         15.249644669000        -0.129629403976
    5         14.846176053000         0.148785606007
    6          7.063682678400        -0.069802666014
    7         15.249644669000         0.076142376711
    8         14.846176053000        -0.087394443808
    9          7.063682678400         0.041001043961
   10          2.588125561600        -0.018868912039
   11          1.502020849900        -0.033964083373
   12          0.767327243900        -0.017164811813
   13          2.588125561600         0.085562360965
   14          1.502020849900         0.154012438842
   15          0.767327243900         0.077835002949
   16          2.588125561600        -0.050258053505
   17          1.502020849900        -0.090464607387
   18          0.767327243900        -0.045719118765
   19          0.327976489800         0.200381197535
   20          0.327976489800        -0.908642126189
 P 20
    1         15.249644669000         0.051399859240
    2         14.846176053000        -0.058995559426
    3          7.063682678400         0.027677726639
    4         15.249644669000        -0.128070990423
    5         14.846176053000         0.146996895284
    6          7.063682678400        -0.068963493593
    7         15.249644669000         0.125291769017
    8         14.846176053000        -0.143806969786
    9          7.063682678400         0.067466942212
   10          2.588125561600        -0.034698387123
   11          1.502020849900        -0.062457173510
   12          0.767327243900        -0.031564686079
   13          2.588125561600         0.086456594837
   14          1.502020849900         0.155622061788
   15          0.767327243900         0.078648476248
   16          2.588125561600        -0.084580432106
   17          1.502020849900        -0.152244964727
   18          0.767327243900        -0.076941754625
   19          0.327976489800         0.496522392857
   20          0.327976489800        -1.237165151056
 P 20
    1         15.249644669000         0.180888881583
    2         14.846176053000        -0.207620038670
    3          7.063682678400         0.097404800142
    4         15.249644669000        -3.060607272453
    5         14.846176053000         3.512893632264
    6          7.063682678400        -1.648071661879
    7         15.249644669000         0.729589842383
    8         14.846176053000        -0.837406201880
    9          7.063682678400         0.392868550907
   10          2.588125561600        -0.012224991263
   11          1.502020849900        -0.022005011293
   12          0.767327243900        -0.011120920698
   13          2.588125561600         0.206844648708
   14          1.502020849900         0.372320824833
   15          0.767327243900         0.188163973746
   16          2.588125561600        -0.049307781500
   17          1.502020849900        -0.088754115678
   18          0.767327243900        -0.044854668282
   19          0.327976489800         0.031657907378
   20          0.327976489800        -0.535646086729
 end
  // -----------------------------------------------
  // The basis set
  // -----------------------------------------------
  BAS[ATNO] = new BFNGauss[NSH];
  // Basis function   1 L = s
  InitBFNGauss(BAS[ATNO][  0]);
  BAS[ATNO][  0].l  = 0;
  BAS[ATNO][  0].ng = 11;
  BAS[ATNO][  0].a[  0] =       716.414353100000;     BAS[ATNO][  0].d[  0] =         0.000474772773;
  BAS[ATNO][  0].a[  1] =        83.806059047000;     BAS[ATNO][  0].d[  1] =         0.002677314031;
  BAS[ATNO][  0].a[  2] =        21.116962853000;     BAS[ATNO][  0].d[  2] =        -0.332841714009;
  BAS[ATNO][  0].a[  3] =        15.491448187000;     BAS[ATNO][  0].d[  3] =         0.613872097868;
  BAS[ATNO][  0].a[  4] =        23.239855029000;     BAS[ATNO][  0].d[  4] =         0.074931661689;
  BAS[ATNO][  0].a[  5] =         6.647425500000;     BAS[ATNO][  0].d[  5] =        -1.074621999022;
  BAS[ATNO][  0].a[  6] =         1.761774400500;     BAS[ATNO][  0].d[  6] =         1.261205846793;
  BAS[ATNO][  0].a[  7] =         0.872528660000;     BAS[ATNO][  0].d[  7] =         0.214882474954;
  BAS[ATNO][  0].a[  8] =         0.256188960000;     BAS[ATNO][  0].d[  8] =         0.001654289364;
  BAS[ATNO][  0].a[  9] =         0.097073913000;     BAS[ATNO][  0].d[  9] =        -0.001224079584;
  BAS[ATNO][  0].a[ 10] =         0.035808906200;     BAS[ATNO][  0].d[ 10] =         0.000449979546;

  // Basis function   2 L = p
  InitBFNGauss(BAS[ATNO][  1]);
  BAS[ATNO][  1].l  = 1;
  BAS[ATNO][  1].ng = 20;
  BAS[ATNO][  1].a[  0] =        15.249644669000;     BAS[ATNO][  1].d[  0] =        -0.143183672258;
  BAS[ATNO][  1].a[  1] =        14.846176053000;     BAS[ATNO][  1].d[  1] =         0.164342878960;
  BAS[ATNO][  1].a[  2] =         7.063682678400;     BAS[ATNO][  1].d[  2] =        -0.077101350054;
  BAS[ATNO][  1].a[  3] =        15.249644669000;     BAS[ATNO][  1].d[  3] =        -0.700651746779;
  BAS[ATNO][  1].a[  4] =        14.846176053000;     BAS[ATNO][  1].d[  4] =         0.804191730787;
  BAS[ATNO][  1].a[  5] =         7.063682678400;     BAS[ATNO][  1].d[  5] =        -0.377286004351;
  BAS[ATNO][  1].a[  6] =        15.249644669000;     BAS[ATNO][  1].d[  6] =        -0.232071643140;
  BAS[ATNO][  1].a[  7] =        14.846176053000;     BAS[ATNO][  1].d[  7] =         0.266366418440;
  BAS[ATNO][  1].a[  8] =         7.063682678400;     BAS[ATNO][  1].d[  8] =        -0.124965624315;
  BAS[ATNO][  1].a[  9] =         2.588125561600;     BAS[ATNO][  1].d[  9] =         0.066263347305;
  BAS[ATNO][  1].a[ 10] =         1.502020849900;     BAS[ATNO][  1].d[ 10] =         0.119274171602;
  BAS[ATNO][  1].a[ 11] =         0.767327243900;     BAS[ATNO][  1].d[ 11] =         0.060278933106;
  BAS[ATNO][  1].a[ 12] =         2.588125561600;     BAS[ATNO][  1].d[ 12] =         0.324251566570;
  BAS[ATNO][  1].a[ 13] =         1.502020849900;     BAS[ATNO][  1].d[ 13] =         0.583653536473;
  BAS[ATNO][  1].a[ 14] =         0.767327243900;     BAS[ATNO][  1].d[ 14] =         0.294967569334;
  BAS[ATNO][  1].a[ 15] =         2.588125561600;     BAS[ATNO][  1].d[ 15] =         0.107399423737;
  BAS[ATNO][  1].a[ 16] =         1.502020849900;     BAS[ATNO][  1].d[ 16] =         0.193319200097;
  BAS[ATNO][  1].a[ 17] =         0.767327243900;     BAS[ATNO][  1].d[ 17] =         0.097699904129;
  BAS[ATNO][  1].a[ 18] =         0.327976489800;     BAS[ATNO][  1].d[ 18] =        -0.031391269634;
  BAS[ATNO][  1].a[ 19] =         0.327976489800;     BAS[ATNO][  1].d[ 19] =        -0.153609329581;

  // Basis function   3 L = s
  InitBFNGauss(BAS[ATNO][  2]);
  BAS[ATNO][  2].l  = 0;
  BAS[ATNO][  2].ng = 11;
  BAS[ATNO][  2].a[  0] =       716.414353100000;     BAS[ATNO][  2].d[  0] =         0.000325488506;
  BAS[ATNO][  2].a[  1] =        83.806059047000;     BAS[ATNO][  2].d[  1] =         0.001835477928;
  BAS[ATNO][  2].a[  2] =        21.116962853000;     BAS[ATNO][  2].d[  2] =        -0.228185268000;
  BAS[ATNO][  2].a[  3] =        15.491448187000;     BAS[ATNO][  2].d[  3] =         0.420850402079;
  BAS[ATNO][  2].a[  4] =        23.239855029000;     BAS[ATNO][  2].d[  4] =         0.060061492229;
  BAS[ATNO][  2].a[  5] =         6.647425500000;     BAS[ATNO][  2].d[  5] =        -0.861363532963;
  BAS[ATNO][  2].a[  6] =         1.761774400500;     BAS[ATNO][  2].d[  6] =         2.000389607065;
  BAS[ATNO][  2].a[  7] =         0.872528660000;     BAS[ATNO][  2].d[  7] =        -0.868927945490;
  BAS[ATNO][  2].a[  8] =         0.256188960000;     BAS[ATNO][  2].d[  8] =        -1.166379804077;
  BAS[ATNO][  2].a[  9] =         0.097073913000;     BAS[ATNO][  2].d[  9] =         0.287553764908;
  BAS[ATNO][  2].a[ 10] =         0.035808906200;     BAS[ATNO][  2].d[ 10] =        -0.079079963328;

  // Basis function   4 L = p
  InitBFNGauss(BAS[ATNO][  3]);
  BAS[ATNO][  3].l  = 1;
  BAS[ATNO][  3].ng = 20;
  BAS[ATNO][  3].a[  0] =        15.249644669000;     BAS[ATNO][  3].d[  0] =         0.132568789371;
  BAS[ATNO][  3].a[  1] =        14.846176053000;     BAS[ATNO][  3].d[  1] =        -0.152159363996;
  BAS[ATNO][  3].a[  2] =         7.063682678400;     BAS[ATNO][  3].d[  2] =         0.071385462283;
  BAS[ATNO][  3].a[  3] =        15.249644669000;     BAS[ATNO][  3].d[  3] =         0.247325404939;
  BAS[ATNO][  3].a[  4] =        14.846176053000;     BAS[ATNO][  3].d[  4] =        -0.283874330407;
  BAS[ATNO][  3].a[  5] =         7.063682678400;     BAS[ATNO][  3].d[  5] =         0.133179449324;
  BAS[ATNO][  3].a[  6] =        15.249644669000;     BAS[ATNO][  3].d[  6] =         0.259260532801;
  BAS[ATNO][  3].a[  7] =        14.846176053000;     BAS[ATNO][  3].d[  7] =        -0.297573191755;
  BAS[ATNO][  3].a[  8] =         7.063682678400;     BAS[ATNO][  3].d[  8] =         0.139606260822;
  BAS[ATNO][  3].a[  9] =         2.588125561600;     BAS[ATNO][  3].d[  9] =        -0.081513456815;
  BAS[ATNO][  3].a[ 10] =         1.502020849900;     BAS[ATNO][  3].d[ 10] =        -0.146724402425;
  BAS[ATNO][  3].a[ 11] =         0.767327243900;     BAS[ATNO][  3].d[ 11] =        -0.074151765801;
  BAS[ATNO][  3].a[ 12] =         2.588125561600;     BAS[ATNO][  3].d[ 12] =        -0.152074623374;
  BAS[ATNO][  3].a[ 13] =         1.502020849900;     BAS[ATNO][  3].d[ 13] =        -0.273734658183;
  BAS[ATNO][  3].a[ 14] =         0.767327243900;     BAS[ATNO][  3].d[ 14] =        -0.138340370992;
  BAS[ATNO][  3].a[ 15] =         2.588125561600;     BAS[ATNO][  3].d[ 15] =        -0.159413255146;
  BAS[ATNO][  3].a[ 16] =         1.502020849900;     BAS[ATNO][  3].d[ 16] =        -0.286944211590;
  BAS[ATNO][  3].a[ 17] =         0.767327243900;     BAS[ATNO][  3].d[ 17] =        -0.145016231956;
  BAS[ATNO][  3].a[ 18] =         0.327976489800;     BAS[ATNO][  3].d[ 18] =         0.514528231534;
  BAS[ATNO][  3].a[ 19] =         0.327976489800;     BAS[ATNO][  3].d[ 19] =         0.959923552296;

  // Basis function   5 L = s
  InitBFNGauss(BAS[ATNO][  4]);
  BAS[ATNO][  4].l  = 0;
  BAS[ATNO][  4].ng = 11;
  BAS[ATNO][  4].a[  0] =       716.414353100000;     BAS[ATNO][  4].d[  0] =        -0.000476056631;
  BAS[ATNO][  4].a[  1] =        83.806059047000;     BAS[ATNO][  4].d[  1] =        -0.002684553899;
  BAS[ATNO][  4].a[  2] =        21.116962853000;     BAS[ATNO][  4].d[  2] =         0.333741769089;
  BAS[ATNO][  4].a[  3] =        15.491448187000;     BAS[ATNO][  4].d[  3] =        -0.615532102239;
  BAS[ATNO][  4].a[  4] =        23.239855029000;     BAS[ATNO][  4].d[  4] =        -0.092476402510;
  BAS[ATNO][  4].a[  5] =         6.647425500000;     BAS[ATNO][  4].d[  5] =         1.326237458072;
  BAS[ATNO][  4].a[  6] =         1.761774400500;     BAS[ATNO][  4].d[  6] =        -4.906529204441;
  BAS[ATNO][  4].a[  7] =         0.872528660000;     BAS[ATNO][  4].d[  7] =         6.309197707876;
  BAS[ATNO][  4].a[  8] =         0.256188960000;     BAS[ATNO][  4].d[  8] =        -4.746261073416;
  BAS[ATNO][  4].a[  9] =         0.097073913000;     BAS[ATNO][  4].d[  9] =         3.290709817975;
  BAS[ATNO][  4].a[ 10] =         0.035808906200;     BAS[ATNO][  4].d[ 10] =        -1.084313562037;

  // Basis function   6 L = s
  InitBFNGauss(BAS[ATNO][  5]);
  BAS[ATNO][  5].l  = 0;
  BAS[ATNO][  5].ng = 11;
  BAS[ATNO][  5].a[  0] =       716.414353100000;     BAS[ATNO][  5].d[  0] =         0.004437939721;
  BAS[ATNO][  5].a[  1] =        83.806059047000;     BAS[ATNO][  5].d[  1] =         0.025026199830;
  BAS[ATNO][  5].a[  2] =        21.116962853000;     BAS[ATNO][  5].d[  2] =        -3.111238783095;
  BAS[ATNO][  5].a[  3] =        15.491448187000;     BAS[ATNO][  5].d[  3] =         5.738171023524;
  BAS[ATNO][  5].a[  4] =        23.239855029000;     BAS[ATNO][  5].d[  4] =         0.353452159982;
  BAS[ATNO][  5].a[  5] =         6.647425500000;     BAS[ATNO][  5].d[  5] =        -5.068984967835;
  BAS[ATNO][  5].a[  6] =         1.761774400500;     BAS[ATNO][  5].d[  6] =         3.821152735315;
  BAS[ATNO][  5].a[  7] =         0.872528660000;     BAS[ATNO][  5].d[  7] =        -2.796546440529;
  BAS[ATNO][  5].a[  8] =         0.256188960000;     BAS[ATNO][  5].d[  8] =         1.095997101939;
  BAS[ATNO][  5].a[  9] =         0.097073913000;     BAS[ATNO][  5].d[  9] =        -0.587815466437;
  BAS[ATNO][  5].a[ 10] =         0.035808906200;     BAS[ATNO][  5].d[ 10] =         0.177024911192;

  // Basis function   7 L = s
  InitBFNGauss(BAS[ATNO][  6]);
  BAS[ATNO][  6].l  = 0;
  BAS[ATNO][  6].ng = 11;
  BAS[ATNO][  6].a[  0] =       716.414353100000;     BAS[ATNO][  6].d[  0] =         0.004159225587;
  BAS[ATNO][  6].a[  1] =        83.806059047000;     BAS[ATNO][  6].d[  1] =         0.023454489520;
  BAS[ATNO][  6].a[  2] =        21.116962853000;     BAS[ATNO][  6].d[  2] =        -2.915844911590;
  BAS[ATNO][  6].a[  3] =        15.491448187000;     BAS[ATNO][  6].d[  3] =         5.377798988521;
  BAS[ATNO][  6].a[  4] =        23.239855029000;     BAS[ATNO][  6].d[  4] =         0.169437519407;
  BAS[ATNO][  6].a[  5] =         6.647425500000;     BAS[ATNO][  6].d[  5] =        -2.429964606546;
  BAS[ATNO][  6].a[  6] =         1.761774400500;     BAS[ATNO][  6].d[  6] =         1.246839301583;
  BAS[ATNO][  6].a[  7] =         0.872528660000;     BAS[ATNO][  6].d[  7] =        -0.853197412216;
  BAS[ATNO][  6].a[  8] =         0.256188960000;     BAS[ATNO][  6].d[  8] =         0.322396934411;
  BAS[ATNO][  6].a[  9] =         0.097073913000;     BAS[ATNO][  6].d[  9] =        -0.172194864214;
  BAS[ATNO][  6].a[ 10] =         0.035808906200;     BAS[ATNO][  6].d[ 10] =         0.051881298624;

  // Basis function   8 L = p
  InitBFNGauss(BAS[ATNO][  7]);
  BAS[ATNO][  7].l  = 1;
  BAS[ATNO][  7].ng = 20;
  BAS[ATNO][  7].a[  0] =        15.249644669000;     BAS[ATNO][  7].d[  0] =        -0.091691296112;
  BAS[ATNO][  7].a[  1] =        14.846176053000;     BAS[ATNO][  7].d[  1] =         0.105241130787;
  BAS[ATNO][  7].a[  2] =         7.063682678400;     BAS[ATNO][  7].d[  2] =        -0.049373805037;
  BAS[ATNO][  7].a[  3] =        15.249644669000;     BAS[ATNO][  7].d[  3] =         0.290648454583;
  BAS[ATNO][  7].a[  4] =        14.846176053000;     BAS[ATNO][  7].d[  4] =        -0.333599516188;
  BAS[ATNO][  7].a[  5] =         7.063682678400;     BAS[ATNO][  7].d[  5] =         0.156507986463;
  BAS[ATNO][  7].a[  6] =        15.249644669000;     BAS[ATNO][  7].d[  6] =        -0.230383475487;
  BAS[ATNO][  7].a[  7] =        14.846176053000;     BAS[ATNO][  7].d[  7] =         0.264428778988;
  BAS[ATNO][  7].a[  8] =         7.063682678400;     BAS[ATNO][  7].d[  8] =        -0.124056582082;
  BAS[ATNO][  7].a[  9] =         2.588125561600;     BAS[ATNO][  7].d[  9] =         0.056378839555;
  BAS[ATNO][  7].a[ 10] =         1.502020849900;     BAS[ATNO][  7].d[ 10] =         0.101482035806;
  BAS[ATNO][  7].a[ 11] =         0.767327243900;     BAS[ATNO][  7].d[ 11] =         0.051287120804;
  BAS[ATNO][  7].a[ 12] =         2.588125561600;     BAS[ATNO][  7].d[ 12] =        -0.178712956220;
  BAS[ATNO][  7].a[ 13] =         1.502020849900;     BAS[ATNO][  7].d[ 13] =        -0.321683716180;
  BAS[ATNO][  7].a[ 14] =         0.767327243900;     BAS[ATNO][  7].d[ 14] =        -0.162572927133;
  BAS[ATNO][  7].a[ 15] =         2.588125561600;     BAS[ATNO][  7].d[ 15] =         0.141657426074;
  BAS[ATNO][  7].a[ 16] =         1.502020849900;     BAS[ATNO][  7].d[ 16] =         0.254983680018;
  BAS[ATNO][  7].a[ 17] =         0.767327243900;     BAS[ATNO][  7].d[ 17] =         0.128863977711;
  BAS[ATNO][  7].a[ 18] =         0.327976489800;     BAS[ATNO][  7].d[ 18] =        -0.355873812076;
  BAS[ATNO][  7].a[ 19] =         0.327976489800;     BAS[ATNO][  7].d[ 19] =         1.128069706634;

  // Basis function   9 L = p
  InitBFNGauss(BAS[ATNO][  8]);
  BAS[ATNO][  8].l  = 1;
  BAS[ATNO][  8].ng = 20;
  BAS[ATNO][  8].a[  0] =        15.249644669000;     BAS[ATNO][  8].d[  0] =        -0.028586936986;
  BAS[ATNO][  8].a[  1] =        14.846176053000;     BAS[ATNO][  8].d[  1] =         0.032811419423;
  BAS[ATNO][  8].a[  2] =         7.063682678400;     BAS[ATNO][  8].d[  2] =        -0.015393455139;
  BAS[ATNO][  8].a[  3] =        15.249644669000;     BAS[ATNO][  8].d[  3] =         0.129629403976;
  BAS[ATNO][  8].a[  4] =        14.846176053000;     BAS[ATNO][  8].d[  4] =        -0.148785606007;
  BAS[ATNO][  8].a[  5] =         7.063682678400;     BAS[ATNO][  8].d[  5] =         0.069802666014;
  BAS[ATNO][  8].a[  6] =        15.249644669000;     BAS[ATNO][  8].d[  6] =        -0.076142376711;
  BAS[ATNO][  8].a[  7] =        14.846176053000;     BAS[ATNO][  8].d[  7] =         0.087394443808;
  BAS[ATNO][  8].a[  8] =         7.063682678400;     BAS[ATNO][  8].d[  8] =        -0.041001043961;
  BAS[ATNO][  8].a[  9] =         2.588125561600;     BAS[ATNO][  8].d[  9] =         0.018868912039;
  BAS[ATNO][  8].a[ 10] =         1.502020849900;     BAS[ATNO][  8].d[ 10] =         0.033964083373;
  BAS[ATNO][  8].a[ 11] =         0.767327243900;     BAS[ATNO][  8].d[ 11] =         0.017164811813;
  BAS[ATNO][  8].a[ 12] =         2.588125561600;     BAS[ATNO][  8].d[ 12] =        -0.085562360965;
  BAS[ATNO][  8].a[ 13] =         1.502020849900;     BAS[ATNO][  8].d[ 13] =        -0.154012438842;
  BAS[ATNO][  8].a[ 14] =         0.767327243900;     BAS[ATNO][  8].d[ 14] =        -0.077835002949;
  BAS[ATNO][  8].a[ 15] =         2.588125561600;     BAS[ATNO][  8].d[ 15] =         0.050258053505;
  BAS[ATNO][  8].a[ 16] =         1.502020849900;     BAS[ATNO][  8].d[ 16] =         0.090464607387;
  BAS[ATNO][  8].a[ 17] =         0.767327243900;     BAS[ATNO][  8].d[ 17] =         0.045719118765;
  BAS[ATNO][  8].a[ 18] =         0.327976489800;     BAS[ATNO][  8].d[ 18] =        -0.200381197535;
  BAS[ATNO][  8].a[ 19] =         0.327976489800;     BAS[ATNO][  8].d[ 19] =         0.908642126189;

  // Basis function  10 L = p
  InitBFNGauss(BAS[ATNO][  9]);
  BAS[ATNO][  9].l  = 1;
  BAS[ATNO][  9].ng = 20;
  BAS[ATNO][  9].a[  0] =        15.249644669000;     BAS[ATNO][  9].d[  0] =        -0.051399859240;
  BAS[ATNO][  9].a[  1] =        14.846176053000;     BAS[ATNO][  9].d[  1] =         0.058995559426;
  BAS[ATNO][  9].a[  2] =         7.063682678400;     BAS[ATNO][  9].d[  2] =        -0.027677726639;
  BAS[ATNO][  9].a[  3] =        15.249644669000;     BAS[ATNO][  9].d[  3] =         0.128070990423;
  BAS[ATNO][  9].a[  4] =        14.846176053000;     BAS[ATNO][  9].d[  4] =        -0.146996895284;
  BAS[ATNO][  9].a[  5] =         7.063682678400;     BAS[ATNO][  9].d[  5] =         0.068963493593;
  BAS[ATNO][  9].a[  6] =        15.249644669000;     BAS[ATNO][  9].d[  6] =        -0.125291769017;
  BAS[ATNO][  9].a[  7] =        14.846176053000;     BAS[ATNO][  9].d[  7] =         0.143806969786;
  BAS[ATNO][  9].a[  8] =         7.063682678400;     BAS[ATNO][  9].d[  8] =        -0.067466942212;
  BAS[ATNO][  9].a[  9] =         2.588125561600;     BAS[ATNO][  9].d[  9] =         0.034698387123;
  BAS[ATNO][  9].a[ 10] =         1.502020849900;     BAS[ATNO][  9].d[ 10] =         0.062457173510;
  BAS[ATNO][  9].a[ 11] =         0.767327243900;     BAS[ATNO][  9].d[ 11] =         0.031564686079;
  BAS[ATNO][  9].a[ 12] =         2.588125561600;     BAS[ATNO][  9].d[ 12] =        -0.086456594837;
  BAS[ATNO][  9].a[ 13] =         1.502020849900;     BAS[ATNO][  9].d[ 13] =        -0.155622061788;
  BAS[ATNO][  9].a[ 14] =         0.767327243900;     BAS[ATNO][  9].d[ 14] =        -0.078648476248;
  BAS[ATNO][  9].a[ 15] =         2.588125561600;     BAS[ATNO][  9].d[ 15] =         0.084580432106;
  BAS[ATNO][  9].a[ 16] =         1.502020849900;     BAS[ATNO][  9].d[ 16] =         0.152244964727;
  BAS[ATNO][  9].a[ 17] =         0.767327243900;     BAS[ATNO][  9].d[ 17] =         0.076941754625;
  BAS[ATNO][  9].a[ 18] =         0.327976489800;     BAS[ATNO][  9].d[ 18] =        -0.496522392857;
  BAS[ATNO][  9].a[ 19] =         0.327976489800;     BAS[ATNO][  9].d[ 19] =         1.237165151056;

  // Basis function  11 L = p
  InitBFNGauss(BAS[ATNO][ 10]);
  BAS[ATNO][ 10].l  = 1;
  BAS[ATNO][ 10].ng = 20;
  BAS[ATNO][ 10].a[  0] =        15.249644669000;     BAS[ATNO][ 10].d[  0] =         0.180888881583;
  BAS[ATNO][ 10].a[  1] =        14.846176053000;     BAS[ATNO][ 10].d[  1] =        -0.207620038670;
  BAS[ATNO][ 10].a[  2] =         7.063682678400;     BAS[ATNO][ 10].d[  2] =         0.097404800142;
  BAS[ATNO][ 10].a[  3] =        15.249644669000;     BAS[ATNO][ 10].d[  3] =        -3.060607272453;
  BAS[ATNO][ 10].a[  4] =        14.846176053000;     BAS[ATNO][ 10].d[  4] =         3.512893632264;
  BAS[ATNO][ 10].a[  5] =         7.063682678400;     BAS[ATNO][ 10].d[  5] =        -1.648071661879;
  BAS[ATNO][ 10].a[  6] =        15.249644669000;     BAS[ATNO][ 10].d[  6] =         0.729589842383;
  BAS[ATNO][ 10].a[  7] =        14.846176053000;     BAS[ATNO][ 10].d[  7] =        -0.837406201880;
  BAS[ATNO][ 10].a[  8] =         7.063682678400;     BAS[ATNO][ 10].d[  8] =         0.392868550907;
  BAS[ATNO][ 10].a[  9] =         2.588125561600;     BAS[ATNO][ 10].d[  9] =        -0.012224991263;
  BAS[ATNO][ 10].a[ 10] =         1.502020849900;     BAS[ATNO][ 10].d[ 10] =        -0.022005011293;
  BAS[ATNO][ 10].a[ 11] =         0.767327243900;     BAS[ATNO][ 10].d[ 11] =        -0.011120920698;
  BAS[ATNO][ 10].a[ 12] =         2.588125561600;     BAS[ATNO][ 10].d[ 12] =         0.206844648708;
  BAS[ATNO][ 10].a[ 13] =         1.502020849900;     BAS[ATNO][ 10].d[ 13] =         0.372320824833;
  BAS[ATNO][ 10].a[ 14] =         0.767327243900;     BAS[ATNO][ 10].d[ 14] =         0.188163973746;
  BAS[ATNO][ 10].a[ 15] =         2.588125561600;     BAS[ATNO][ 10].d[ 15] =        -0.049307781500;
  BAS[ATNO][ 10].a[ 16] =         1.502020849900;     BAS[ATNO][ 10].d[ 16] =        -0.088754115678;
  BAS[ATNO][ 10].a[ 17] =         0.767327243900;     BAS[ATNO][ 10].d[ 17] =        -0.044854668282;
  BAS[ATNO][ 10].a[ 18] =         0.327976489800;     BAS[ATNO][ 10].d[ 18] =         0.031657907378;
  BAS[ATNO][ 10].a[ 19] =         0.327976489800;     BAS[ATNO][ 10].d[ 19] =        -0.535646086729;

-------------------------------------------
RADIAL EXPECTATION VALUES <R**-3> TO <R**3>
-------------------------------------------
   0 :     0.000000     1.837696     1.303446     0.826048     0.733220     0.698252
   1 :     2.030004     1.465525     1.160616     0.933644     0.945649     1.064044
   2 :     2.030004     1.465525     1.160616     0.933644     0.945649     1.064044
   3 :     2.030730     1.465863     1.160752     0.933525     0.945433     1.063977
   4 :     0.000000     0.664253     0.720669     1.628767     2.958941     5.930146
   5 :     0.396100     0.400213     0.567166     1.998138     4.349540    10.343566
   6 :     0.000000     0.194247     0.355874     3.408402    12.809454    51.499209
   7 :     0.000000     0.069941     0.199489     6.130106    41.005318   289.859944
   8 :     0.000000     0.629351     0.620009     2.663935    10.880004    60.437764
   9 :     0.000000     6.460306     2.205090     0.598893     0.675868     2.006899
  10 :     0.000000    56.006939     5.963639     0.231039     0.100321     0.184510
  11 :     0.396100     0.400213     0.567166     1.998138     4.349540    10.343566
  12 :     0.397785     0.401399     0.568032     1.995075     4.337324    10.313253
  13 :     0.062120     0.094834     0.266699     4.267037    19.786845    98.514851
  14 :     0.063093     0.095586     0.267287     4.264030    19.768228    98.409519
  15 :     0.063093     0.095586     0.267287     4.264030    19.768228    98.409519
  16 :     0.075265     0.095973     0.246720     5.135062    30.115073   191.773341
  17 :     0.075265     0.095973     0.246720     5.135062    30.115073   191.773341
  18 :     0.074471     0.095422     0.246377     5.135163    30.108607   191.697168
  19 :    28.340669     7.611462     2.526465     0.512118     0.489792     1.320420
  20 :    28.340669     7.611462     2.526465     0.512118     0.489792     1.320420
  21 :    28.340026     7.611241     2.526393     0.512192     0.490073     1.321641
Making the total density                ... o.k.
o.k.
Initializing the integrals              ... done
Making exponents                        ... done
Making rho(0)                           ... done (         0.029687459)
Integral calculation                    ... Two index integrals                     ... done
Solving the equation system             ... done
atomic density will be written to file 83_Bi_atom83.adf

-------
TIMINGS
-------

Total SCF time: 0 days 0 hours 0 min 0 sec 

Total time                  ....       0.514 sec
Sum of individual times     ....       0.168 sec  ( 32.6%)

Fock matrix formation       ....       0.115 sec  ( 22.3%)
Diagonalization             ....       0.023 sec  (  4.4%)
Density matrix formation    ....       0.000 sec  (  0.0%)
Population analysis         ....       0.000 sec  (  0.0%)
Initial guess               ....       0.000 sec  (  0.1%)
Orbital Transformation      ....       0.000 sec  (  0.0%)
Orbital Orthonormalization  ....       0.000 sec  (  0.0%)
DIIS solution               ....       0.030 sec  (  5.8%)

-------------------------   --------------------
FINAL SINGLE POINT ENERGY      -191.864302544235
-------------------------   --------------------


                            ***************************************
                            *     ORCA property calculations      *
                            ***************************************

                                    ---------------------
                                    Active property flags
                                    ---------------------
   (+) Dipole Moment


------------------------------------------------------------------------------
                       ORCA ELECTRIC PROPERTIES CALCULATION
------------------------------------------------------------------------------

Dipole Moment Calculation                       ... on
Quadrupole Moment Calculation                   ... off
Polarizability Calculation                      ... off
GBWName                                         ... 83_Bi_atom83.gbw
Electron density file                           ... 83_Bi_atom83.scfp
The origin for moment calculation is the CENTER OF MASS  = ( 0.000000,  0.000000  0.000000)

-------------
DIPOLE MOMENT
-------------
                                X             Y             Z
Electronic contribution:      0.00000       0.00000       0.00000
Nuclear contribution   :      0.00000       0.00000       0.00000
                        -----------------------------------------
Total Dipole Moment    :      0.00000       0.00000       0.00000
                        -----------------------------------------
Magnitude (a.u.)       :      0.00000
Magnitude (Debye)      :      0.00000



--------------------
Rotational spectrum 
--------------------
 
Rotational constants in cm-1:     0.000000     0.000000     0.000000 
Rotational constants in MHz :     0.000000     0.000000     0.000000 

 Dipole components along the rotational axes: 
x,y,z [a.u.] :     0.000000     0.000000     0.000000 
x,y,z [Debye]:     0.000000     0.000000     0.000000 

 

Timings for individual modules:

Sum of individual times         ...        0.755 sec (=   0.013 min)
GTO integral calculation        ...        0.215 sec (=   0.004 min)  28.5 %
SCF iterations                  ...        0.540 sec (=   0.009 min)  71.5 %
                             ****ORCA TERMINATED NORMALLY****
TOTAL RUN TIME: 0 days 0 hours 0 minutes 0 seconds 965 msec
