
                                 *****************
                                 * O   R   C   A *
                                 *****************

           --- An Ab Initio, DFT and Semiempirical electronic structure package ---

                  #######################################################
                  #                        -***-                        #
                  #          Department of theory and spectroscopy      #
                  #               Directorship: Frank Neese             #
                  #        Max Planck Institute fuer Kohlenforschung    #
                  #                Kaiser Wilhelm Platz 1               #
                  #                 D-45470 Muelheim/Ruhr               #
                  #                      Germany                        #
                  #                                                     #
                  #                  All rights reserved                #
                  #                        -***-                        #
                  #######################################################


                         Program Version 4.2.0 -  RELEASE  -


 With contributions from (in alphabetic order):
   Daniel Aravena         : Magnetic Suceptibility
   Michael Atanasov       : Ab Initio Ligand Field Theory (pilot matlab implementation)
   Alexander A. Auer      : GIAO ZORA, VPT2
   Ute Becker             : Parallelization
   Giovanni Bistoni       : ED, misc. LED, open-shell LED, HFLED
   Martin Brehm           : Molecular dynamics
   Dmytro Bykov           : SCF Hessian
   Vijay G. Chilkuri      : MRCI spin determinant printing, contributions to CSF-ICE
   Dipayan Datta          : RHF DLPNO-CCSD density
   Achintya Kumar Dutta   : EOM-CC, STEOM-CC
   Dmitry Ganyushin       : Spin-Orbit,Spin-Spin,Magnetic field MRCI
   Miquel Garcia          : C-PCM Hessian, Gaussian charge scheme
   Yang Guo               : DLPNO-NEVPT2, CIM, IAO-localization
   Andreas Hansen         : Spin unrestricted coupled pair/coupled cluster methods
   Benjamin Helmich-Paris : CASSCF linear response (MC-RPA)
   Lee Huntington         : MR-EOM, pCC
   Robert Izsak           : Overlap fitted RIJCOSX, COSX-SCS-MP3, EOM
   Christian Kollmar      : KDIIS, OOCD, Brueckner-CCSD(T), CCSD density
   Simone Kossmann        : Meta GGA functionals, TD-DFT gradient, OOMP2, MP2 Hessian
   Martin Krupicka        : AUTO-CI
   Lucas Lang             : DCDCAS
   Dagmar Lenk            : GEPOL surface, SMD
   Dimitrios Liakos       : Extrapolation schemes; Compound Job, initial MDCI parallelization
   Dimitrios Manganas     : Further ROCIS development; embedding schemes
   Dimitrios Pantazis     : SARC Basis sets
   Taras Petrenko         : DFT Hessian,TD-DFT gradient, ASA, ECA, R-Raman, ABS, FL, XAS/XES, NRVS
   Peter Pinski           : DLPNO-MP2, DLPNO-MP2 Gradient
   Christoph Reimann      : Effective Core Potentials
   Marius Retegan         : Local ZFS, SOC
   Christoph Riplinger    : Optimizer, TS searches, QM/MM, DLPNO-CCSD(T), (RO)-DLPNO pert. Triples
   Tobias Risthaus        : Range-separated hybrids, TD-DFT gradient, RPA, STAB
   Michael Roemelt        : Original ROCIS implementation
   Masaaki Saitow         : Open-shell DLPNO-CCSD energy and density
   Barbara Sandhoefer     : DKH picture change effects
   Avijit Sen             : IP-ROCIS
   Kantharuban Sivalingam : CASSCF convergence, NEVPT2, FIC-MRCI
   Bernardo de Souza      : ESD, SOC TD-DFT
   Georgi Stoychev        : AutoAux, RI-MP2 NMR
   Willem Van den Heuvel  : Paramagnetic NMR
   Boris Wezisla          : Elementary symmetry handling
   Frank Wennmohs         : Technical directorship


 We gratefully acknowledge several colleagues who have allowed us to
 interface, adapt or use parts of their codes:
   Stefan Grimme, W. Hujo, H. Kruse,             : VdW corrections, initial TS optimization,
                  C. Bannwarth                     DFT functionals, gCP, sTDA/sTD-DF
   Ed Valeev, F. Pavosevic, A. Kumar             : LibInt (2-el integral package), F12 methods
   Garnet Chan, S. Sharma, J. Yang, R. Olivares  : DMRG
   Ulf Ekstrom                                   : XCFun DFT Library
   Mihaly Kallay                                 : mrcc  (arbitrary order and MRCC methods)
   Andreas Klamt, Michael Diedenhofen            : otool_cosmo (COSMO solvation model)
   Jiri Pittner, Ondrej Demel                    : Mk-CCSD
   Frank Weinhold                                : gennbo (NPA and NBO analysis)
   Christopher J. Cramer and Donald G. Truhlar   : smd solvation model
   Lars Goerigk                                  : TD-DFT with DH, B97 family of functionals
   V. Asgeirsson, H. Jonsson                     : NEB implementation
   FAccTs GmbH                                   : IRC, NEB, NEB-TS, Multilevel, MM, QM/MM, CI optimization
   S Lehtola, MJT Oliveira, MAL Marques          : LibXC Library


 Your calculation uses the libint2 library for the computation of 2-el integrals
 For citations please refer to: http://libint.valeyev.net

 Your ORCA version has been built with support for libXC version: 4.2.3
 For citations please refer to: https://tddft.org/programs/libxc/

 This ORCA versions uses:
   CBLAS   interface :  Fast vector & matrix operations
   LAPACKE interface :  Fast linear algebra routines
   SCALAPACK package :  Parallel linear algebra routines


----- Orbital basis set information -----
Your calculation utilizes the basis: def2-SVP
   F. Weigend and R. Ahlrichs, Phys. Chem. Chem. Phys. 7, 3297 (2005).

----- AuxJ basis set information -----
Your calculation utilizes the auxiliary basis: def2/J
   F. Weigend, Phys. Chem. Chem. Phys. 8, 1057 (2006).

================================================================================
                                        WARNINGS
                       Please study these warnings very carefully!
================================================================================


INFO   : the flag for use of LIBINT has been found!

================================================================================
                                       INPUT FILE
================================================================================
NAME = 86_Rn_atom86.inp
|  1> # input to generate an atomic fitting density for Rn
|  2> # this file is use internally by ORCA
|  3> #
|  4> # atomic ground state (S=1): 1s2 2s2 2p6 3s2 3p6 4s2 3d10 4p6 5s2 4d10 5p6 6s2 4f14 5d10 6p6 
|  5> #
|  6> ! RHF AllowRHF def2-SVP def2/J  NoMulliken NoLoewdin NoMayer NoPrintMOs 
|  7> 
|  8> %output print[p_atomdensfit] 2 end
|  9> 
| 10> %scf
| 11>   guess hcore
| 12>   maxiter 1000
| 13>   maxdisk 500000
| 14>   SCFMode Conventional
| 15>   lshift 1.000000
| 16>   hftyp rohf
| 17>   rohf_case sahf
| 18>   rohf_numop   2
| 19>   rohf_norb[1] 3
| 20>   rohf_nel[1]  6
| 21> end
| 22> 
| 23> %basis
| 24>   NewECP 86
| 25>     N_core 60
| 26>     lmax f
| 27>     s 7
| 28>       1      30.1512420000     49.9655510000  2
| 29>       2      14.5212410000    283.0700000000  2
| 30>       3       8.0520380000     62.0028700000  2
| 31>       4       6.3485710000    -21.7972900000  2
| 32>       5       6.2959490000    -28.9468050000  2
| 33>       6       2.8821180000     -1.4473650000  2
| 34>       7       2.9080480000     -2.1779640000  2
| 35>     p 8
| 36>       1      11.0099420000     71.9691190000  2
| 37>       2       9.6176250000    143.8605590000  2
| 38>       3       7.3360080000      4.7147610000  2
| 39>       4       6.4062530000      9.0130650000  2
| 40>       5       6.3485710000    -21.7972900000  2
| 41>       6       6.2959490000    -28.9468050000  2
| 42>       7       2.8821180000     -1.4473650000  2
| 43>       8       2.9080480000     -2.1779640000  2
| 44>     d 8
| 45>       1       8.3692200000     36.3683650000  2
| 46>       2       8.1169750000     54.5517610000  2
| 47>       3       5.3536560000      9.6344870000  2
| 48>       4       5.0972120000     14.3879020000  2
| 49>       5       6.3485710000    -21.7972900000  2
| 50>       6       6.2959490000    -28.9468050000  2
| 51>       7       2.8821180000     -1.4473650000  2
| 52>       8       2.9080480000     -2.1779640000  2
| 53>     f 4
| 54>       1       6.3485710000     21.7972900000  2
| 55>       2       6.2959490000     28.9468050000  2
| 56>       3       2.8821180000      1.4473650000  2
| 57>       4       2.9080480000      2.1779640000  2
| 58>   end
| 59>   NewGTO 86
| 60>     s 5 
| 61>      1    5187.7442468000      0.0006597856
| 62>      2     768.1449120700      0.0043071109
| 63>      3     159.3518206500      0.0112206544
| 64>      4      21.8634327240     -2.2562235295
| 65>      5      18.3886899780      3.2102392906
| 66>     s 2 
| 67>      1      24.8162264480     -0.0801828033
| 68>      2       7.2923301677      1.0601788376
| 69>     s 1 
| 70>      1       2.0850437166      1.0000000000
| 71>     s 1 
| 72>      1       1.0915245945      1.0000000000
| 73>     s 1 
| 74>      1       0.3491570843      1.0000000000
| 75>     s 1 
| 76>      1       0.1364842295      1.0000000000
| 77>     p 3 
| 78>      1     194.6891872300      0.0009489126
| 79>      2      11.2100135250      0.7208226436
| 80>      3       7.5298316489     -1.6616559490
| 81>     p 4 
| 82>      1       9.0845000304     -0.1595946907
| 83>      2       6.2631489717      0.2746830724
| 84>      3       2.2545193734      0.5737709752
| 85>      4       1.1180666918      0.3556720969
| 86>     p 1 
| 87>      1       0.4744449259      1.0000000000
| 88>     p 1 
| 89>      1       0.2017235462      1.0000000000
| 90>     p 1 
| 91>      1       0.0795031444      1.0000000000
| 92>     s 1 
| 93>      1       0.0468375817      1.0000000000
| 94>     p 1 
| 95>      1       0.0222645193      1.0000000000
| 96>   end
| 97>   NewAuxGTO 86
| 98>     S 1
| 99>      1 1310.72 1.0
|100>     S 1
|101>      1  655.36 1.0
|102>     S 1
|103>      1  327.68 1.0
|104>     S 1
|105>      1  163.84 1.0
|106>     S 1
|107>      1   81.82 1.0
|108>     S 1
|109>      1   40.96 1.0
|110>     S 1
|111>      1   20.48 1.0
|112>     S 1
|113>      1   10.24 1.0
|114>     S 1
|115>      1    5.12 1.0
|116>     S 1
|117>      1    2.56 1.0
|118>     S 1
|119>      1    1.28 1.0
|120>     S 1
|121>      1    0.64 1.0
|122>     S 1
|123>      1    0.32 1.0
|124>     S 1
|125>      1    0.16 1.0
|126>     S 1
|127>      1    0.08 1.0
|128>     S 1
|129>      1    0.04 1.0
|130>     S 1
|131>      1    0.02 1.0
|132>     S 1
|133>      1    0.01 1.0
|134>   end
|135> end
|136> 
|137> * xyz 0 1
|138> 86  0.0 0.0 0.0
|139> *
|140> 
|141> 
|142>                          ****END OF INPUT****
================================================================================

                       ****************************
                       * Single Point Calculation *
                       ****************************

---------------------------------
CARTESIAN COORDINATES (ANGSTROEM)
---------------------------------
  Rn     0.000000    0.000000    0.000000

----------------------------
CARTESIAN COORDINATES (A.U.)
----------------------------
  NO LB      ZA    FRAG     MASS         X           Y           Z
   0 Rn   26.0000*   0   222.000    0.000000    0.000000    0.000000
* core charge reduced due to ECP

--------------------------------
INTERNAL COORDINATES (ANGSTROEM)
--------------------------------
 Rn     0   0   0     0.000000000000     0.00000000     0.00000000

---------------------------
INTERNAL COORDINATES (A.U.)
---------------------------
 Rn     0   0   0     0.000000000000     0.00000000     0.00000000

---------------------
BASIS SET INFORMATION
---------------------
There are 1 groups of distinct atoms

 Group   1 Type Rn  : 12s11p contracted to 7s6p pattern {5211111/341111}

Atom   0Rn   basis set group =>   1
---------------------------------
AUXILIARY/J BASIS SET INFORMATION
---------------------------------
There are 1 groups of distinct atoms

 Group   1 Type Rn  : 18s contracted to 18s pattern {111111111111111111}

Atom   0Rn   basis set group =>   1
-------------------------
ECP PARAMETER INFORMATION
-------------------------

 Group 1, Type Rn ECP (replacing 60 core electrons, lmax=3)

Atom   0Rn   ECP group =>   1

------------------------------------------------------------------------------
                           ORCA GTO INTEGRAL CALCULATION
------------------------------------------------------------------------------

                         BASIS SET STATISTICS AND STARTUP INFO

 # of primitive gaussian shells          ...   23
 # of primitive gaussian functions       ...   45
 # of contracted shells                  ...   13
 # of contracted basis functions         ...   25
 Highest angular momentum                ...    1
 Maximum contraction depth               ...    5
 Integral package used                   ... LIBINT
 Integral threshhold            Thresh   ...  1.000e-10
 Primitive cut-off              TCut     ...  1.000e-11
 Storage cut-off                TCutStore... -1.000e+00
 Buffer length                           ... 1048576 integrals/buffer
 Generate file with integrals 4 distinct ...false


------------------------------ INTEGRAL EVALUATION ----------------------------


 * One electron integrals 

   ECP integrals                         ... done
 Pre-screening matrix                    ... done
 Shell pair data                         ... done (   0.000 sec)
 Statistics run                          ... done
 Maximum amount of storage needed        ...     0 MB
 Maximum amount of storage dedicated     ... 500000 MB
 Beginning two electron integral evaluation:
 Starting repulsion integrals
  <ss|ss>  ...          406 b.         0 skpd (  0.0%)     0.000 s. (  0.000 ms/b)
  <ss|sp>  ...         1176 b.         0 skpd (  0.0%)     0.000 s. (  0.000 ms/b)
  <ss|pp>  ...          588 b.         0 skpd (  0.0%)     0.001 s. (  0.001 ms/b)
  <sp|sp>  ...          903 b.         0 skpd (  0.0%)     0.001 s. (  0.001 ms/b)
  <sp|pp>  ...          882 b.         0 skpd (  0.0%)     0.002 s. (  0.002 ms/b)
  <pp|pp>  ...          231 b.         0 skpd (  0.0%)     0.001 s. (  0.005 ms/b)


                                      INTEGRAL STATISTICS

Integral type statistics:
 Number of integrals retained            ...      52975 
 One   Center Integrals retained         ...      52975 (100.0%)
 Two   Center Integrals retained         ...          0 (  0.0%)
 Three Center Integrals retained         ...          0 (  0.0%)
 Four  Center Integrals retained         ...          0 (  0.0%)

Storage statistics:
 Number of char integrals                ...          0 (  0.0%)
 Number of short int integrals           ...          0 (  0.0%)
 Number of double/float integrals        ...      52975 (100.0%)
 Amount of memory used                   ...          0 MB
 Amount of memory estimated              ...          0 MB ( 96.1%)

Prescreening statistics:
 Total number of shell quadruples        ...       4186 
 Number of skipped shell quadruples      ...          0 (  0.0%)
 # of negligible batches done            ...          0 (  0.0%)

Timings:
 Total evaluation time               ...     0.158 sec (   0.003 min)
 One electron matrix time            ...     0.013 sec (   0.000 min) =  8.4%
 Schwartz matrix evaluation time     ...     0.069 sec (   0.001 min) = 44.0%
 Statistics run                      ...     0.000 sec (   0.000 min) =  0.3%
 Repulsion integral time             ...     0.004 sec (   0.000 min) =  2.8%

-------------------------------------------------------------------------------
                                 ORCA SCF
-------------------------------------------------------------------------------

------------
SCF SETTINGS
------------
Hamiltonian:
 Ab initio Hamiltonian  Method          .... Hartree-Fock(GTOs)


General Settings:
 Integral files         IntName         .... 86_Rn_atom86
 Hartree-Fock type      HFTyp           .... ROHF
 Total Charge           Charge          ....    0
 Multiplicity           Mult            ....    1
 Number of Electrons    NEL             ....   26
 Basis Dimension        Dim             ....   25
 Nuclear Repulsion      ENuc            ....      0.0000000000 Eh

Convergence Acceleration:
 DIIS                   CNVDIIS         .... on
   Start iteration      DIISMaxIt       ....    12
   Startup error        DIISStart       ....  0.200000
   # of expansion vecs  DIISMaxEq       ....     5
   Bias factor          DIISBfac        ....   1.050
   Max. coefficient     DIISMaxC        ....  10.000
 Newton-Raphson         CNVNR           .... off
 SOSCF                  CNVSOSCF        .... off
 Level Shifting         CNVShift        .... on
   Level shift para.    LevelShift      ....    1.0000
   Turn off err/grad.   ShiftErr        ....    0.0010
 Zerner damping         CNVZerner       .... off
 Static damping         CNVDamp         .... on
   Fraction old density DampFac         ....    0.7000
   Max. Damping (<1)    DampMax         ....    0.9800
   Min. Damping (>=0)   DampMin         ....    0.0000
   Turn off err/grad.   DampErr         ....    0.1000
 Fernandez-Rico         CNVRico         .... off

SCF Procedure:
 Maximum # iterations   MaxIter         ....  1000
 SCF integral mode      SCFMode         .... Conventional
 Integral Threshold     Thresh          ....  1.000e-10 Eh
 Primitive CutOff       TCut            ....  1.000e-11 Eh
 Integral Buffer length BufferLength    .... 1048576
 Integral index format  IndFormat       ....     0
 Integral value format  ValFormat       ....     0
 Integral Storage       Thresh          ....  1.000e-10 Eh

Convergence Tolerance:
 Convergence Check Mode ConvCheckMode   .... Total+1el-Energy
 Convergence forced     ConvForced      .... 0
 Energy Change          TolE            ....  1.000e-06 Eh
 1-El. energy change                    ....  1.000e-03 Eh
 DIIS Error             TolErr          ....  1.000e-06


Diagonalization of the overlap matrix:
Smallest eigenvalue                        ... 5.001e-03
Time for diagonalization                   ...    0.000 sec
Threshold for overlap eigenvalues          ... 1.000e-08
Number of eigenvalues below threshold      ... 0
Time for construction of square roots      ...    0.002 sec
Total time needed                          ...    0.002 sec

--------------------
INITIAL GUESS: HCORE
--------------------
AVERAGE-CONFIGURATION (SAHF) CASE FOUND

-------------------
FINAL ROHF SETTINGS
-------------------
Number of operators             ... 2
  operator   0:  10 orbitals  20 electrons n(mue)= 2.000
  operator   1:   3 orbitals   6 electrons n(mue)= 2.000
Vector coupling coefficients a and b (Zerner convention):
   1.000    1.000           1.000    1.000 
   1.000    1.000           1.000    1.000 

                      -----------------
                      INTIAL GUESS DONE 
                      -----------------

 InCore treatment chosen:
   Memory dedicated               ...    1024 MB
   Memory needed                  ...      0 MB
   Number of tiny    integrals    ...       0
   Number of small   integrals    ...       0
   Number of regular integrals    ...   52975

--------------
SCF ITERATIONS
--------------
ITER       Energy         Delta-E        Max-DP      RMS-DP      [F,P]     Damp
  0   -247.1811903710   0.000000000000 4.44956121  0.30102882  1.6866706 0.7000
  1   -248.8406730415  -1.65948267048712.25371860  0.64122301  0.7664516 0.7000
  2   -250.3239868788  -1.483313837321 8.81982600  0.45728192  0.6982872 0.7000
  3   -251.3238461021  -0.999859223243 6.27264234  0.33006883  0.3087444 0.7000
                            ****Activating DIIS****
  4   -251.8334324460  -0.509586343896 4.18436685  0.23274784  0.1880882 0.7000
  5   -252.1743171270  -0.340884681058 9.78927260  0.54150266  0.0787373 0.0000
  6   -252.8299029444  -0.655585817386 0.69286030  0.04833114  0.0985910 0.0000
  7   -252.8423690282  -0.012466083801 1.01772255  0.07402041  0.0508597 0.0000
  8   -252.8502457689  -0.007876740672 0.22832420  0.01830592  0.0214715 0.0000
  9   -252.8506789652  -0.000433196286 0.26699605  0.02014450  0.0370300 0.0000
 10   -252.8523720161  -0.001693050919 0.17888386  0.01317037  0.0167167 0.0000
 11   -252.8528435533  -0.000471537156 0.03845509  0.00288318  0.0036227 0.0000
 12   -252.8529227983  -0.000079245000 0.02806144  0.00230884  0.0023191 0.0000
 13   -252.8529681937  -0.000045395432 0.00504593  0.00045446  0.0009601 0.0000
 14   -252.8529789123  -0.000010718616 0.00526662  0.00045711  0.0004741 0.0000
 15   -252.8529832398  -0.000004327535 0.00214675  0.00018316  0.0003937 0.0000
                 **** Energy Check signals convergence ****

               *****************************************************
               *                     SUCCESS                       *
               *           SCF CONVERGED AFTER  16 CYCLES          *
               *****************************************************


----------------
TOTAL SCF ENERGY
----------------

Total Energy       :         -252.85298420 Eh           -6880.47950 eV

Components:
Nuclear Repulsion  :            0.00000000 Eh               0.00000 eV
Electronic Energy  :         -252.85298420 Eh           -6880.47950 eV
One Electron Energy:         -396.60270769 Eh          -10792.10834 eV
Two Electron Energy:          143.74972349 Eh            3911.62884 eV

Virial components:
Potential Energy   :         -318.34155128 Eh           -8662.51400 eV
Kinetic Energy     :           65.48856708 Eh            1782.03451 eV
Virial Ratio       :            4.86102484


---------------
SCF CONVERGENCE
---------------

  Last Energy change         ...   -9.6258e-07  Tolerance :   1.0000e-06
  Last MAX-Density change    ...    1.3460e-03  Tolerance :   1.0000e-05
  Last RMS-Density change    ...    1.0920e-04  Tolerance :   1.0000e-06
  Last DIIS Error            ...    1.4480e-04  Tolerance :   1.0000e-06

             **** THE GBW FILE WAS UPDATED (86_Rn_atom86.gbw) ****
             **** DENSITY FILE WAS UPDATED (86_Rn_atom86.scfp) ****
             **** ENERGY FILE WAS UPDATED (86_Rn_atom86.en.tmp) ****
             **** THE GBW FILE WAS UPDATED (86_Rn_atom86.gbw) ****
             **** DENSITY FILE WAS UPDATED (86_Rn_atom86.scfp) ****
----------------
ORBITAL ENERGIES
----------------

  NO   OCC          E(Eh)            E(eV) 
   0   2.0000     -12.752423      -347.0111 
   1   2.0000      -9.568167      -260.3631 
   2   2.0000      -9.566776      -260.3252 
   3   2.0000      -9.566776      -260.3252 
   4   2.0000      -3.676122      -100.0324 
   5   2.0000      -2.422555       -65.9211 
   6   2.0000      -2.286415       -62.2165 
   7   2.0000      -2.286415       -62.2165 
   8   2.0000      -0.610491       -16.6123 
   9   2.0000      -0.417738       -11.3672 
  10   2.0000      -0.555268       -15.1096 
  11   2.0000      -0.555268       -15.1096 
  12   2.0000      -0.287653        -7.8274 
  13   0.0000       0.053771         1.4632 
  14   0.0000       0.053779         1.4634 
  15   0.0000       0.053779         1.4634 
  16   0.0000       0.424549        11.5526 
  17   0.0000       0.424558        11.5528 
  18   0.0000       0.424558        11.5528 
  19   0.0000       1.534417        41.7536 
  20   0.0000      25.651836       698.0219 
  21   0.0000      25.651836       698.0219 
  22   0.0000      25.651838       698.0220 
  23   0.0000      33.077156       900.0752 
  24   0.0000     114.782010      3123.3773 
CleanUpVectors: The p-vectors have cracked symmetry
CleanUpVectors: The p-vectors have cracked symmetry
CleanUpVectors: The p-vectors have cracked symmetry
CleanUpVectors: The p-vectors have cracked symmetry
CleanUpVectors: The p-vectors have cracked symmetry
CleanUpVectors: The p-vectors have cracked symmetry
CleanUpVectors: The p-vectors have cracked symmetry
CleanUpVectors: The p-vectors have cracked symmetry
CleanUpVectors: The p-vectors have cracked symmetry
CleanUpVectors: The p-vectors have cracked symmetry
CleanUpVectors: The p-vectors have cracked symmetry
CleanUpVectors: The p-vectors have cracked symmetry
CleanUpVectors: The p-vectors have cracked symmetry
CleanUpVectors: The p-vectors have cracked symmetry
CleanUpVectors: The p-vectors have cracked symmetry
--------------------------
ATOM BASIS FOR ELEMENT Rn
--------------------------
 NewGTO Rn
 S 12
    1       5187.744246800000         0.000156574324
    2        768.144912070000         0.001022124424
    3        159.351820650000         0.002662783750
    4         21.863432724000        -0.535426467711
    5         18.388689978000         0.761824819837
    6         24.816226448000         0.079537788651
    7          7.292330167700        -1.051650439332
    8          2.085043716600         1.277008491467
    9          1.091524594500         0.224997394956
   10          0.349157084300         0.014844274492
   11          0.136484229500        -0.015746232813
   12          0.046837581700         0.007234066089
 P 23
    1        194.689187230000         0.000000004034
    2         11.210013525000         0.000003064429
    3          7.529831648900        -0.000007064188
    4        194.689187230000         0.000000000674
    5         11.210013525000         0.000000511998
    6          7.529831648900        -0.000001180269
    7        194.689187230000        -0.000391793598
    8         11.210013525000        -0.297618238924
    9          7.529831648900         0.686076001676
   10          9.084500030400        -0.000002168425
   11          6.263148971700         0.000003732139
   12          2.254519373400         0.000007795869
   13          1.118066691800         0.000004832543
   14          9.084500030400        -0.000000362296
   15          6.263148971700         0.000000623558
   16          2.254519373400         0.000001302516
   17          1.118066691800         0.000000807411
   18          9.084500030400         0.210598050150
   19          6.263148971700        -0.362466440475
   20          2.254519373400        -0.757137020536
   21          1.118066691800        -0.469337982181
   22          0.474444925900        -0.000001532204
   23          0.474444925900        -0.000000255997
 S 12
    1       5187.744246800000         0.000107008375
    2        768.144912070000         0.000698555621
    3        159.351820650000         0.001819839652
    4         21.863432724000        -0.365929195923
    5         18.388689978000         0.520657757076
    6         24.816226448000         0.067925145093
    7          7.292330167700        -0.898107803733
    8          2.085043716600         2.228135501202
    9          1.091524594500        -0.968352746199
   10          0.349157084300        -1.120019934918
   11          0.136484229500         0.143876271386
   12          0.046837581700        -0.009344369177
 P 23
    1        194.689187230000         0.000000002420
    2         11.210013525000         0.000001838578
    3          7.529831648900        -0.000004238330
    4        194.689187230000         0.000000000404
    5         11.210013525000         0.000000307185
    6          7.529831648900        -0.000000708130
    7        194.689187230000        -0.000235066067
    8         11.210013525000        -0.178563277680
    9          7.529831648900         0.411627929927
   10          9.084500030400        -0.000001726807
   11          6.263148971700         0.000002972059
   12          2.254519373400         0.000006208176
   13          1.118066691800         0.000003848356
   14          9.084500030400        -0.000000288511
   15          6.263148971700         0.000000496564
   16          2.254519373400         0.000001037247
   17          1.118066691800         0.000000642974
   18          9.084500030400         0.167708064012
   19          6.263148971700        -0.288647235613
   20          2.254519373400        -0.602939978862
   21          1.118066691800        -0.373753528595
   22          0.474444925900        -0.000015735241
   23          0.474444925900        -0.000002629006
 S 12
    1       5187.744246800000         0.000155323692
    2        768.144912070000         0.001013960243
    3        159.351820650000         0.002641514865
    4         21.863432724000        -0.531149768900
    5         18.388689978000         0.755739772687
    6         24.816226448000         0.106302925833
    7          7.292330167700        -1.405539688126
    8          2.085043716600         5.848469749584
    9          1.091524594500        -7.618831576276
   10          0.349157084300         5.512857407379
   11          0.136484229500        -3.528300458321
   12          0.046837581700         1.058043059309
 S 12
    1       5187.744246800000         0.001746148662
    2        768.144912070000         0.011398939194
    3        159.351820650000         0.029695905259
    4         21.863432724000        -5.971184726471
    5         18.388689978000         8.496025136568
    6         24.816226448000         0.403846430452
    7          7.292330167700        -5.339666631559
    8          2.085043716600         4.880754883455
    9          1.091524594500        -3.757910573756
   10          0.349157084300         1.446961312184
   11          0.136484229500        -0.703512836106
   12          0.046837581700         0.187745628388
 S 12
    1       5187.744246800000         0.001669231802
    2        768.144912070000         0.010896822375
    3        159.351820650000         0.028387817441
    4         21.863432724000        -5.708157419241
    5         18.388689978000         8.121780038451
    6         24.816226448000         0.189175499371
    7          7.292330167700        -2.501282728602
    8          2.085043716600         1.526463742293
    9          1.091524594500        -1.085412140290
   10          0.349157084300         0.397254903262
   11          0.136484229500        -0.191492306470
   12          0.046837581700         0.051074339813
 P 23
    1        194.689187230000        -0.000028381568
    2         11.210013525000        -0.021559495628
    3          7.529831648900         0.049699415642
    4        194.689187230000        -0.000253327648
    5         11.210013525000        -0.192435325538
    6          7.529831648900         0.443606074694
    7        194.689187230000        -0.000000000728
    8         11.210013525000        -0.000000553037
    9          7.529831648900         0.000001274873
   10          9.084500030400         0.020432048283
   11          6.263148971700        -0.035166193645
   12          2.254519373400        -0.073456806222
   13          1.118066691800        -0.045534782047
   14          9.084500030400         0.182371978018
   15          6.263148971700        -0.313885725283
   16          2.254519373400        -0.655659328125
   17          1.118066691800        -0.406433469391
   18          9.084500030400         0.000000524116
   19          6.263148971700        -0.000000902072
   20          2.254519373400        -0.000001884290
   21          1.118066691800        -0.000001168043
   22          0.474444925900         0.201614312976
   23          0.474444925900         1.799565102061
 P 23
    1        194.689187230000        -0.000035775036
    2         11.210013525000        -0.027175796828
    3          7.529831648900         0.062646234644
    4        194.689187230000         0.000005710900
    5         11.210013525000         0.004338171927
    6          7.529831648900        -0.010000447758
    7        194.689187230000        -0.000000000359
    8         11.210013525000        -0.000000272353
    9          7.529831648900         0.000000627834
   10          9.084500030400         0.032613414170
   11          6.263148971700        -0.056131897410
   12          2.254519373400        -0.117250958479
   13          1.118066691800        -0.072682125915
   14          9.084500030400        -0.005206198688
   15          6.263148971700         0.008960540259
   16          2.254519373400         0.018717199708
   17          1.118066691800         0.011602513818
   18          9.084500030400         0.000000326848
   19          6.263148971700        -0.000000562548
   20          2.254519373400        -0.000001175076
   21          1.118066691800        -0.000000728412
   22          0.474444925900         0.831779265581
   23          0.474444925900        -0.132779968958
 P 23
    1        194.689187230000        -0.000029769762
    2         11.210013525000        -0.022614009141
    3          7.529831648900         0.052130302999
    4        194.689187230000        -0.000015463996
    5         11.210013525000        -0.011746917818
    6          7.529831648900         0.027079249033
    7        194.689187230000        -0.000000000333
    8         11.210013525000        -0.000000253050
    9          7.529831648900         0.000000583336
   10          9.084500030400         0.023384116453
   11          6.263148971700        -0.040247084188
   12          2.254519373400        -0.084070010364
   13          1.118066691800        -0.052113749501
   14          9.084500030400         0.012146952471
   15          6.263148971700        -0.020906473833
   16          2.254519373400        -0.043670429978
   17          1.118066691800        -0.027070650267
   18          9.084500030400         0.000000261667
   19          6.263148971700        -0.000000450363
   20          2.254519373400        -0.000000940740
   21          1.118066691800        -0.000000583151
   22          0.474444925900         0.376951968966
   23          0.474444925900         0.195808879937
 P 23
    1        194.689187230000         0.000031173721
    2         11.210013525000         0.023680499245
    3          7.529831648900        -0.054588799055
    4        194.689187230000        -0.000116106679
    5         11.210013525000        -0.088198136527
    6          7.529831648900         0.203316251997
    7        194.689187230000         0.000000000121
    8         11.210013525000         0.000000092094
    9          7.529831648900        -0.000000212297
   10          9.084500030400        -0.024760874900
   11          6.263148971700         0.042616663268
   12          2.254519373400         0.089019699063
   13          1.118066691800         0.055181987935
   14          9.084500030400         0.092222000997
   15          6.263148971700        -0.158725973060
   16          2.254519373400        -0.331554309323
   17          1.118066691800        -0.205525586916
   18          9.084500030400        -0.000000096295
   19          6.263148971700         0.000000165737
   20          2.254519373400         0.000000346199
   21          1.118066691800         0.000000214604
   22          0.474444925900        -0.528445736623
   23          0.474444925900         1.968198758981
 P 11
    1        194.689187230000        -0.001459647794
    2         11.210013525000        -1.108792507847
    3          7.529831648900         2.556012471625
    4          9.084500030400         0.189654763088
    5          6.263148971700        -0.326420338870
    6          2.254519373400        -0.681842221009
    7          1.118066691800        -0.422663855411
    8          0.474444925900         0.893267513366
    9          0.201723546200        -0.640364146311
   10          0.079503144400         0.268170700459
   11          0.022264519300        -0.064087015465
 end
  // -----------------------------------------------
  // The basis set
  // -----------------------------------------------
  BAS[ATNO] = new BFNGauss[NSH];
  // Basis function   1 L = s
  InitBFNGauss(BAS[ATNO][  0]);
  BAS[ATNO][  0].l  = 0;
  BAS[ATNO][  0].ng = 12;
  BAS[ATNO][  0].a[  0] =      5187.744246800000;     BAS[ATNO][  0].d[  0] =         0.000156574324;
  BAS[ATNO][  0].a[  1] =       768.144912070000;     BAS[ATNO][  0].d[  1] =         0.001022124424;
  BAS[ATNO][  0].a[  2] =       159.351820650000;     BAS[ATNO][  0].d[  2] =         0.002662783750;
  BAS[ATNO][  0].a[  3] =        21.863432724000;     BAS[ATNO][  0].d[  3] =        -0.535426467711;
  BAS[ATNO][  0].a[  4] =        18.388689978000;     BAS[ATNO][  0].d[  4] =         0.761824819837;
  BAS[ATNO][  0].a[  5] =        24.816226448000;     BAS[ATNO][  0].d[  5] =         0.079537788651;
  BAS[ATNO][  0].a[  6] =         7.292330167700;     BAS[ATNO][  0].d[  6] =        -1.051650439332;
  BAS[ATNO][  0].a[  7] =         2.085043716600;     BAS[ATNO][  0].d[  7] =         1.277008491467;
  BAS[ATNO][  0].a[  8] =         1.091524594500;     BAS[ATNO][  0].d[  8] =         0.224997394956;
  BAS[ATNO][  0].a[  9] =         0.349157084300;     BAS[ATNO][  0].d[  9] =         0.014844274492;
  BAS[ATNO][  0].a[ 10] =         0.136484229500;     BAS[ATNO][  0].d[ 10] =        -0.015746232813;
  BAS[ATNO][  0].a[ 11] =         0.046837581700;     BAS[ATNO][  0].d[ 11] =         0.007234066089;

  // Basis function   2 L = p
  InitBFNGauss(BAS[ATNO][  1]);
  BAS[ATNO][  1].l  = 1;
  BAS[ATNO][  1].ng = 23;
  BAS[ATNO][  1].a[  0] =       194.689187230000;     BAS[ATNO][  1].d[  0] =        -0.000000004034;
  BAS[ATNO][  1].a[  1] =        11.210013525000;     BAS[ATNO][  1].d[  1] =        -0.000003064429;
  BAS[ATNO][  1].a[  2] =         7.529831648900;     BAS[ATNO][  1].d[  2] =         0.000007064188;
  BAS[ATNO][  1].a[  3] =       194.689187230000;     BAS[ATNO][  1].d[  3] =        -0.000000000674;
  BAS[ATNO][  1].a[  4] =        11.210013525000;     BAS[ATNO][  1].d[  4] =        -0.000000511998;
  BAS[ATNO][  1].a[  5] =         7.529831648900;     BAS[ATNO][  1].d[  5] =         0.000001180269;
  BAS[ATNO][  1].a[  6] =       194.689187230000;     BAS[ATNO][  1].d[  6] =         0.000391793598;
  BAS[ATNO][  1].a[  7] =        11.210013525000;     BAS[ATNO][  1].d[  7] =         0.297618238924;
  BAS[ATNO][  1].a[  8] =         7.529831648900;     BAS[ATNO][  1].d[  8] =        -0.686076001676;
  BAS[ATNO][  1].a[  9] =         9.084500030400;     BAS[ATNO][  1].d[  9] =         0.000002168425;
  BAS[ATNO][  1].a[ 10] =         6.263148971700;     BAS[ATNO][  1].d[ 10] =        -0.000003732139;
  BAS[ATNO][  1].a[ 11] =         2.254519373400;     BAS[ATNO][  1].d[ 11] =        -0.000007795869;
  BAS[ATNO][  1].a[ 12] =         1.118066691800;     BAS[ATNO][  1].d[ 12] =        -0.000004832543;
  BAS[ATNO][  1].a[ 13] =         9.084500030400;     BAS[ATNO][  1].d[ 13] =         0.000000362296;
  BAS[ATNO][  1].a[ 14] =         6.263148971700;     BAS[ATNO][  1].d[ 14] =        -0.000000623558;
  BAS[ATNO][  1].a[ 15] =         2.254519373400;     BAS[ATNO][  1].d[ 15] =        -0.000001302516;
  BAS[ATNO][  1].a[ 16] =         1.118066691800;     BAS[ATNO][  1].d[ 16] =        -0.000000807411;
  BAS[ATNO][  1].a[ 17] =         9.084500030400;     BAS[ATNO][  1].d[ 17] =        -0.210598050150;
  BAS[ATNO][  1].a[ 18] =         6.263148971700;     BAS[ATNO][  1].d[ 18] =         0.362466440475;
  BAS[ATNO][  1].a[ 19] =         2.254519373400;     BAS[ATNO][  1].d[ 19] =         0.757137020536;
  BAS[ATNO][  1].a[ 20] =         1.118066691800;     BAS[ATNO][  1].d[ 20] =         0.469337982181;
  BAS[ATNO][  1].a[ 21] =         0.474444925900;     BAS[ATNO][  1].d[ 21] =         0.000001532204;
  BAS[ATNO][  1].a[ 22] =         0.474444925900;     BAS[ATNO][  1].d[ 22] =         0.000000255997;

  // Basis function   3 L = s
  InitBFNGauss(BAS[ATNO][  2]);
  BAS[ATNO][  2].l  = 0;
  BAS[ATNO][  2].ng = 12;
  BAS[ATNO][  2].a[  0] =      5187.744246800000;     BAS[ATNO][  2].d[  0] =         0.000107008375;
  BAS[ATNO][  2].a[  1] =       768.144912070000;     BAS[ATNO][  2].d[  1] =         0.000698555621;
  BAS[ATNO][  2].a[  2] =       159.351820650000;     BAS[ATNO][  2].d[  2] =         0.001819839652;
  BAS[ATNO][  2].a[  3] =        21.863432724000;     BAS[ATNO][  2].d[  3] =        -0.365929195923;
  BAS[ATNO][  2].a[  4] =        18.388689978000;     BAS[ATNO][  2].d[  4] =         0.520657757076;
  BAS[ATNO][  2].a[  5] =        24.816226448000;     BAS[ATNO][  2].d[  5] =         0.067925145093;
  BAS[ATNO][  2].a[  6] =         7.292330167700;     BAS[ATNO][  2].d[  6] =        -0.898107803733;
  BAS[ATNO][  2].a[  7] =         2.085043716600;     BAS[ATNO][  2].d[  7] =         2.228135501202;
  BAS[ATNO][  2].a[  8] =         1.091524594500;     BAS[ATNO][  2].d[  8] =        -0.968352746199;
  BAS[ATNO][  2].a[  9] =         0.349157084300;     BAS[ATNO][  2].d[  9] =        -1.120019934918;
  BAS[ATNO][  2].a[ 10] =         0.136484229500;     BAS[ATNO][  2].d[ 10] =         0.143876271386;
  BAS[ATNO][  2].a[ 11] =         0.046837581700;     BAS[ATNO][  2].d[ 11] =        -0.009344369177;

  // Basis function   4 L = p
  InitBFNGauss(BAS[ATNO][  3]);
  BAS[ATNO][  3].l  = 1;
  BAS[ATNO][  3].ng = 23;
  BAS[ATNO][  3].a[  0] =       194.689187230000;     BAS[ATNO][  3].d[  0] =        -0.000000002420;
  BAS[ATNO][  3].a[  1] =        11.210013525000;     BAS[ATNO][  3].d[  1] =        -0.000001838578;
  BAS[ATNO][  3].a[  2] =         7.529831648900;     BAS[ATNO][  3].d[  2] =         0.000004238330;
  BAS[ATNO][  3].a[  3] =       194.689187230000;     BAS[ATNO][  3].d[  3] =        -0.000000000404;
  BAS[ATNO][  3].a[  4] =        11.210013525000;     BAS[ATNO][  3].d[  4] =        -0.000000307185;
  BAS[ATNO][  3].a[  5] =         7.529831648900;     BAS[ATNO][  3].d[  5] =         0.000000708130;
  BAS[ATNO][  3].a[  6] =       194.689187230000;     BAS[ATNO][  3].d[  6] =         0.000235066067;
  BAS[ATNO][  3].a[  7] =        11.210013525000;     BAS[ATNO][  3].d[  7] =         0.178563277680;
  BAS[ATNO][  3].a[  8] =         7.529831648900;     BAS[ATNO][  3].d[  8] =        -0.411627929927;
  BAS[ATNO][  3].a[  9] =         9.084500030400;     BAS[ATNO][  3].d[  9] =         0.000001726807;
  BAS[ATNO][  3].a[ 10] =         6.263148971700;     BAS[ATNO][  3].d[ 10] =        -0.000002972059;
  BAS[ATNO][  3].a[ 11] =         2.254519373400;     BAS[ATNO][  3].d[ 11] =        -0.000006208176;
  BAS[ATNO][  3].a[ 12] =         1.118066691800;     BAS[ATNO][  3].d[ 12] =        -0.000003848356;
  BAS[ATNO][  3].a[ 13] =         9.084500030400;     BAS[ATNO][  3].d[ 13] =         0.000000288511;
  BAS[ATNO][  3].a[ 14] =         6.263148971700;     BAS[ATNO][  3].d[ 14] =        -0.000000496564;
  BAS[ATNO][  3].a[ 15] =         2.254519373400;     BAS[ATNO][  3].d[ 15] =        -0.000001037247;
  BAS[ATNO][  3].a[ 16] =         1.118066691800;     BAS[ATNO][  3].d[ 16] =        -0.000000642974;
  BAS[ATNO][  3].a[ 17] =         9.084500030400;     BAS[ATNO][  3].d[ 17] =        -0.167708064012;
  BAS[ATNO][  3].a[ 18] =         6.263148971700;     BAS[ATNO][  3].d[ 18] =         0.288647235613;
  BAS[ATNO][  3].a[ 19] =         2.254519373400;     BAS[ATNO][  3].d[ 19] =         0.602939978862;
  BAS[ATNO][  3].a[ 20] =         1.118066691800;     BAS[ATNO][  3].d[ 20] =         0.373753528595;
  BAS[ATNO][  3].a[ 21] =         0.474444925900;     BAS[ATNO][  3].d[ 21] =         0.000015735241;
  BAS[ATNO][  3].a[ 22] =         0.474444925900;     BAS[ATNO][  3].d[ 22] =         0.000002629006;

  // Basis function   5 L = s
  InitBFNGauss(BAS[ATNO][  4]);
  BAS[ATNO][  4].l  = 0;
  BAS[ATNO][  4].ng = 12;
  BAS[ATNO][  4].a[  0] =      5187.744246800000;     BAS[ATNO][  4].d[  0] =        -0.000155323692;
  BAS[ATNO][  4].a[  1] =       768.144912070000;     BAS[ATNO][  4].d[  1] =        -0.001013960243;
  BAS[ATNO][  4].a[  2] =       159.351820650000;     BAS[ATNO][  4].d[  2] =        -0.002641514865;
  BAS[ATNO][  4].a[  3] =        21.863432724000;     BAS[ATNO][  4].d[  3] =         0.531149768900;
  BAS[ATNO][  4].a[  4] =        18.388689978000;     BAS[ATNO][  4].d[  4] =        -0.755739772687;
  BAS[ATNO][  4].a[  5] =        24.816226448000;     BAS[ATNO][  4].d[  5] =        -0.106302925833;
  BAS[ATNO][  4].a[  6] =         7.292330167700;     BAS[ATNO][  4].d[  6] =         1.405539688126;
  BAS[ATNO][  4].a[  7] =         2.085043716600;     BAS[ATNO][  4].d[  7] =        -5.848469749584;
  BAS[ATNO][  4].a[  8] =         1.091524594500;     BAS[ATNO][  4].d[  8] =         7.618831576276;
  BAS[ATNO][  4].a[  9] =         0.349157084300;     BAS[ATNO][  4].d[  9] =        -5.512857407379;
  BAS[ATNO][  4].a[ 10] =         0.136484229500;     BAS[ATNO][  4].d[ 10] =         3.528300458321;
  BAS[ATNO][  4].a[ 11] =         0.046837581700;     BAS[ATNO][  4].d[ 11] =        -1.058043059309;

  // Basis function   6 L = s
  InitBFNGauss(BAS[ATNO][  5]);
  BAS[ATNO][  5].l  = 0;
  BAS[ATNO][  5].ng = 12;
  BAS[ATNO][  5].a[  0] =      5187.744246800000;     BAS[ATNO][  5].d[  0] =         0.001746148662;
  BAS[ATNO][  5].a[  1] =       768.144912070000;     BAS[ATNO][  5].d[  1] =         0.011398939194;
  BAS[ATNO][  5].a[  2] =       159.351820650000;     BAS[ATNO][  5].d[  2] =         0.029695905259;
  BAS[ATNO][  5].a[  3] =        21.863432724000;     BAS[ATNO][  5].d[  3] =        -5.971184726471;
  BAS[ATNO][  5].a[  4] =        18.388689978000;     BAS[ATNO][  5].d[  4] =         8.496025136568;
  BAS[ATNO][  5].a[  5] =        24.816226448000;     BAS[ATNO][  5].d[  5] =         0.403846430452;
  BAS[ATNO][  5].a[  6] =         7.292330167700;     BAS[ATNO][  5].d[  6] =        -5.339666631559;
  BAS[ATNO][  5].a[  7] =         2.085043716600;     BAS[ATNO][  5].d[  7] =         4.880754883455;
  BAS[ATNO][  5].a[  8] =         1.091524594500;     BAS[ATNO][  5].d[  8] =        -3.757910573756;
  BAS[ATNO][  5].a[  9] =         0.349157084300;     BAS[ATNO][  5].d[  9] =         1.446961312184;
  BAS[ATNO][  5].a[ 10] =         0.136484229500;     BAS[ATNO][  5].d[ 10] =        -0.703512836106;
  BAS[ATNO][  5].a[ 11] =         0.046837581700;     BAS[ATNO][  5].d[ 11] =         0.187745628388;

  // Basis function   7 L = s
  InitBFNGauss(BAS[ATNO][  6]);
  BAS[ATNO][  6].l  = 0;
  BAS[ATNO][  6].ng = 12;
  BAS[ATNO][  6].a[  0] =      5187.744246800000;     BAS[ATNO][  6].d[  0] =         0.001669231802;
  BAS[ATNO][  6].a[  1] =       768.144912070000;     BAS[ATNO][  6].d[  1] =         0.010896822375;
  BAS[ATNO][  6].a[  2] =       159.351820650000;     BAS[ATNO][  6].d[  2] =         0.028387817441;
  BAS[ATNO][  6].a[  3] =        21.863432724000;     BAS[ATNO][  6].d[  3] =        -5.708157419241;
  BAS[ATNO][  6].a[  4] =        18.388689978000;     BAS[ATNO][  6].d[  4] =         8.121780038451;
  BAS[ATNO][  6].a[  5] =        24.816226448000;     BAS[ATNO][  6].d[  5] =         0.189175499371;
  BAS[ATNO][  6].a[  6] =         7.292330167700;     BAS[ATNO][  6].d[  6] =        -2.501282728602;
  BAS[ATNO][  6].a[  7] =         2.085043716600;     BAS[ATNO][  6].d[  7] =         1.526463742293;
  BAS[ATNO][  6].a[  8] =         1.091524594500;     BAS[ATNO][  6].d[  8] =        -1.085412140290;
  BAS[ATNO][  6].a[  9] =         0.349157084300;     BAS[ATNO][  6].d[  9] =         0.397254903262;
  BAS[ATNO][  6].a[ 10] =         0.136484229500;     BAS[ATNO][  6].d[ 10] =        -0.191492306470;
  BAS[ATNO][  6].a[ 11] =         0.046837581700;     BAS[ATNO][  6].d[ 11] =         0.051074339813;

  // Basis function   8 L = p
  InitBFNGauss(BAS[ATNO][  7]);
  BAS[ATNO][  7].l  = 1;
  BAS[ATNO][  7].ng = 23;
  BAS[ATNO][  7].a[  0] =       194.689187230000;     BAS[ATNO][  7].d[  0] =        -0.000028381568;
  BAS[ATNO][  7].a[  1] =        11.210013525000;     BAS[ATNO][  7].d[  1] =        -0.021559495628;
  BAS[ATNO][  7].a[  2] =         7.529831648900;     BAS[ATNO][  7].d[  2] =         0.049699415642;
  BAS[ATNO][  7].a[  3] =       194.689187230000;     BAS[ATNO][  7].d[  3] =        -0.000253327648;
  BAS[ATNO][  7].a[  4] =        11.210013525000;     BAS[ATNO][  7].d[  4] =        -0.192435325538;
  BAS[ATNO][  7].a[  5] =         7.529831648900;     BAS[ATNO][  7].d[  5] =         0.443606074694;
  BAS[ATNO][  7].a[  6] =       194.689187230000;     BAS[ATNO][  7].d[  6] =        -0.000000000728;
  BAS[ATNO][  7].a[  7] =        11.210013525000;     BAS[ATNO][  7].d[  7] =        -0.000000553037;
  BAS[ATNO][  7].a[  8] =         7.529831648900;     BAS[ATNO][  7].d[  8] =         0.000001274873;
  BAS[ATNO][  7].a[  9] =         9.084500030400;     BAS[ATNO][  7].d[  9] =         0.020432048283;
  BAS[ATNO][  7].a[ 10] =         6.263148971700;     BAS[ATNO][  7].d[ 10] =        -0.035166193645;
  BAS[ATNO][  7].a[ 11] =         2.254519373400;     BAS[ATNO][  7].d[ 11] =        -0.073456806222;
  BAS[ATNO][  7].a[ 12] =         1.118066691800;     BAS[ATNO][  7].d[ 12] =        -0.045534782047;
  BAS[ATNO][  7].a[ 13] =         9.084500030400;     BAS[ATNO][  7].d[ 13] =         0.182371978018;
  BAS[ATNO][  7].a[ 14] =         6.263148971700;     BAS[ATNO][  7].d[ 14] =        -0.313885725283;
  BAS[ATNO][  7].a[ 15] =         2.254519373400;     BAS[ATNO][  7].d[ 15] =        -0.655659328125;
  BAS[ATNO][  7].a[ 16] =         1.118066691800;     BAS[ATNO][  7].d[ 16] =        -0.406433469391;
  BAS[ATNO][  7].a[ 17] =         9.084500030400;     BAS[ATNO][  7].d[ 17] =         0.000000524116;
  BAS[ATNO][  7].a[ 18] =         6.263148971700;     BAS[ATNO][  7].d[ 18] =        -0.000000902072;
  BAS[ATNO][  7].a[ 19] =         2.254519373400;     BAS[ATNO][  7].d[ 19] =        -0.000001884290;
  BAS[ATNO][  7].a[ 20] =         1.118066691800;     BAS[ATNO][  7].d[ 20] =        -0.000001168043;
  BAS[ATNO][  7].a[ 21] =         0.474444925900;     BAS[ATNO][  7].d[ 21] =         0.201614312976;
  BAS[ATNO][  7].a[ 22] =         0.474444925900;     BAS[ATNO][  7].d[ 22] =         1.799565102061;

  // Basis function   9 L = p
  InitBFNGauss(BAS[ATNO][  8]);
  BAS[ATNO][  8].l  = 1;
  BAS[ATNO][  8].ng = 23;
  BAS[ATNO][  8].a[  0] =       194.689187230000;     BAS[ATNO][  8].d[  0] =        -0.000035775036;
  BAS[ATNO][  8].a[  1] =        11.210013525000;     BAS[ATNO][  8].d[  1] =        -0.027175796828;
  BAS[ATNO][  8].a[  2] =         7.529831648900;     BAS[ATNO][  8].d[  2] =         0.062646234644;
  BAS[ATNO][  8].a[  3] =       194.689187230000;     BAS[ATNO][  8].d[  3] =         0.000005710900;
  BAS[ATNO][  8].a[  4] =        11.210013525000;     BAS[ATNO][  8].d[  4] =         0.004338171927;
  BAS[ATNO][  8].a[  5] =         7.529831648900;     BAS[ATNO][  8].d[  5] =        -0.010000447758;
  BAS[ATNO][  8].a[  6] =       194.689187230000;     BAS[ATNO][  8].d[  6] =        -0.000000000359;
  BAS[ATNO][  8].a[  7] =        11.210013525000;     BAS[ATNO][  8].d[  7] =        -0.000000272353;
  BAS[ATNO][  8].a[  8] =         7.529831648900;     BAS[ATNO][  8].d[  8] =         0.000000627834;
  BAS[ATNO][  8].a[  9] =         9.084500030400;     BAS[ATNO][  8].d[  9] =         0.032613414170;
  BAS[ATNO][  8].a[ 10] =         6.263148971700;     BAS[ATNO][  8].d[ 10] =        -0.056131897410;
  BAS[ATNO][  8].a[ 11] =         2.254519373400;     BAS[ATNO][  8].d[ 11] =        -0.117250958479;
  BAS[ATNO][  8].a[ 12] =         1.118066691800;     BAS[ATNO][  8].d[ 12] =        -0.072682125915;
  BAS[ATNO][  8].a[ 13] =         9.084500030400;     BAS[ATNO][  8].d[ 13] =        -0.005206198688;
  BAS[ATNO][  8].a[ 14] =         6.263148971700;     BAS[ATNO][  8].d[ 14] =         0.008960540259;
  BAS[ATNO][  8].a[ 15] =         2.254519373400;     BAS[ATNO][  8].d[ 15] =         0.018717199708;
  BAS[ATNO][  8].a[ 16] =         1.118066691800;     BAS[ATNO][  8].d[ 16] =         0.011602513818;
  BAS[ATNO][  8].a[ 17] =         9.084500030400;     BAS[ATNO][  8].d[ 17] =         0.000000326848;
  BAS[ATNO][  8].a[ 18] =         6.263148971700;     BAS[ATNO][  8].d[ 18] =        -0.000000562548;
  BAS[ATNO][  8].a[ 19] =         2.254519373400;     BAS[ATNO][  8].d[ 19] =        -0.000001175076;
  BAS[ATNO][  8].a[ 20] =         1.118066691800;     BAS[ATNO][  8].d[ 20] =        -0.000000728412;
  BAS[ATNO][  8].a[ 21] =         0.474444925900;     BAS[ATNO][  8].d[ 21] =         0.831779265581;
  BAS[ATNO][  8].a[ 22] =         0.474444925900;     BAS[ATNO][  8].d[ 22] =        -0.132779968958;

  // Basis function  10 L = p
  InitBFNGauss(BAS[ATNO][  9]);
  BAS[ATNO][  9].l  = 1;
  BAS[ATNO][  9].ng = 23;
  BAS[ATNO][  9].a[  0] =       194.689187230000;     BAS[ATNO][  9].d[  0] =        -0.000029769762;
  BAS[ATNO][  9].a[  1] =        11.210013525000;     BAS[ATNO][  9].d[  1] =        -0.022614009141;
  BAS[ATNO][  9].a[  2] =         7.529831648900;     BAS[ATNO][  9].d[  2] =         0.052130302999;
  BAS[ATNO][  9].a[  3] =       194.689187230000;     BAS[ATNO][  9].d[  3] =        -0.000015463996;
  BAS[ATNO][  9].a[  4] =        11.210013525000;     BAS[ATNO][  9].d[  4] =        -0.011746917818;
  BAS[ATNO][  9].a[  5] =         7.529831648900;     BAS[ATNO][  9].d[  5] =         0.027079249033;
  BAS[ATNO][  9].a[  6] =       194.689187230000;     BAS[ATNO][  9].d[  6] =        -0.000000000333;
  BAS[ATNO][  9].a[  7] =        11.210013525000;     BAS[ATNO][  9].d[  7] =        -0.000000253050;
  BAS[ATNO][  9].a[  8] =         7.529831648900;     BAS[ATNO][  9].d[  8] =         0.000000583336;
  BAS[ATNO][  9].a[  9] =         9.084500030400;     BAS[ATNO][  9].d[  9] =         0.023384116453;
  BAS[ATNO][  9].a[ 10] =         6.263148971700;     BAS[ATNO][  9].d[ 10] =        -0.040247084188;
  BAS[ATNO][  9].a[ 11] =         2.254519373400;     BAS[ATNO][  9].d[ 11] =        -0.084070010364;
  BAS[ATNO][  9].a[ 12] =         1.118066691800;     BAS[ATNO][  9].d[ 12] =        -0.052113749501;
  BAS[ATNO][  9].a[ 13] =         9.084500030400;     BAS[ATNO][  9].d[ 13] =         0.012146952471;
  BAS[ATNO][  9].a[ 14] =         6.263148971700;     BAS[ATNO][  9].d[ 14] =        -0.020906473833;
  BAS[ATNO][  9].a[ 15] =         2.254519373400;     BAS[ATNO][  9].d[ 15] =        -0.043670429978;
  BAS[ATNO][  9].a[ 16] =         1.118066691800;     BAS[ATNO][  9].d[ 16] =        -0.027070650267;
  BAS[ATNO][  9].a[ 17] =         9.084500030400;     BAS[ATNO][  9].d[ 17] =         0.000000261667;
  BAS[ATNO][  9].a[ 18] =         6.263148971700;     BAS[ATNO][  9].d[ 18] =        -0.000000450363;
  BAS[ATNO][  9].a[ 19] =         2.254519373400;     BAS[ATNO][  9].d[ 19] =        -0.000000940740;
  BAS[ATNO][  9].a[ 20] =         1.118066691800;     BAS[ATNO][  9].d[ 20] =        -0.000000583151;
  BAS[ATNO][  9].a[ 21] =         0.474444925900;     BAS[ATNO][  9].d[ 21] =         0.376951968966;
  BAS[ATNO][  9].a[ 22] =         0.474444925900;     BAS[ATNO][  9].d[ 22] =         0.195808879937;

  // Basis function  11 L = p
  InitBFNGauss(BAS[ATNO][ 10]);
  BAS[ATNO][ 10].l  = 1;
  BAS[ATNO][ 10].ng = 23;
  BAS[ATNO][ 10].a[  0] =       194.689187230000;     BAS[ATNO][ 10].d[  0] =         0.000031173721;
  BAS[ATNO][ 10].a[  1] =        11.210013525000;     BAS[ATNO][ 10].d[  1] =         0.023680499245;
  BAS[ATNO][ 10].a[  2] =         7.529831648900;     BAS[ATNO][ 10].d[  2] =        -0.054588799055;
  BAS[ATNO][ 10].a[  3] =       194.689187230000;     BAS[ATNO][ 10].d[  3] =        -0.000116106679;
  BAS[ATNO][ 10].a[  4] =        11.210013525000;     BAS[ATNO][ 10].d[  4] =        -0.088198136527;
  BAS[ATNO][ 10].a[  5] =         7.529831648900;     BAS[ATNO][ 10].d[  5] =         0.203316251997;
  BAS[ATNO][ 10].a[  6] =       194.689187230000;     BAS[ATNO][ 10].d[  6] =         0.000000000121;
  BAS[ATNO][ 10].a[  7] =        11.210013525000;     BAS[ATNO][ 10].d[  7] =         0.000000092094;
  BAS[ATNO][ 10].a[  8] =         7.529831648900;     BAS[ATNO][ 10].d[  8] =        -0.000000212297;
  BAS[ATNO][ 10].a[  9] =         9.084500030400;     BAS[ATNO][ 10].d[  9] =        -0.024760874900;
  BAS[ATNO][ 10].a[ 10] =         6.263148971700;     BAS[ATNO][ 10].d[ 10] =         0.042616663268;
  BAS[ATNO][ 10].a[ 11] =         2.254519373400;     BAS[ATNO][ 10].d[ 11] =         0.089019699063;
  BAS[ATNO][ 10].a[ 12] =         1.118066691800;     BAS[ATNO][ 10].d[ 12] =         0.055181987935;
  BAS[ATNO][ 10].a[ 13] =         9.084500030400;     BAS[ATNO][ 10].d[ 13] =         0.092222000997;
  BAS[ATNO][ 10].a[ 14] =         6.263148971700;     BAS[ATNO][ 10].d[ 14] =        -0.158725973060;
  BAS[ATNO][ 10].a[ 15] =         2.254519373400;     BAS[ATNO][ 10].d[ 15] =        -0.331554309323;
  BAS[ATNO][ 10].a[ 16] =         1.118066691800;     BAS[ATNO][ 10].d[ 16] =        -0.205525586916;
  BAS[ATNO][ 10].a[ 17] =         9.084500030400;     BAS[ATNO][ 10].d[ 17] =        -0.000000096295;
  BAS[ATNO][ 10].a[ 18] =         6.263148971700;     BAS[ATNO][ 10].d[ 18] =         0.000000165737;
  BAS[ATNO][ 10].a[ 19] =         2.254519373400;     BAS[ATNO][ 10].d[ 19] =         0.000000346199;
  BAS[ATNO][ 10].a[ 20] =         1.118066691800;     BAS[ATNO][ 10].d[ 20] =         0.000000214604;
  BAS[ATNO][ 10].a[ 21] =         0.474444925900;     BAS[ATNO][ 10].d[ 21] =        -0.528445736623;
  BAS[ATNO][ 10].a[ 22] =         0.474444925900;     BAS[ATNO][ 10].d[ 22] =         1.968198758981;

  // Basis function  12 L = p
  InitBFNGauss(BAS[ATNO][ 11]);
  BAS[ATNO][ 11].l  = 1;
  BAS[ATNO][ 11].ng = 11;
  BAS[ATNO][ 11].a[  0] =       194.689187230000;     BAS[ATNO][ 11].d[  0] =        -0.001459647794;
  BAS[ATNO][ 11].a[  1] =        11.210013525000;     BAS[ATNO][ 11].d[  1] =        -1.108792507847;
  BAS[ATNO][ 11].a[  2] =         7.529831648900;     BAS[ATNO][ 11].d[  2] =         2.556012471625;
  BAS[ATNO][ 11].a[  3] =         9.084500030400;     BAS[ATNO][ 11].d[  3] =         0.189654763088;
  BAS[ATNO][ 11].a[  4] =         6.263148971700;     BAS[ATNO][ 11].d[  4] =        -0.326420338870;
  BAS[ATNO][ 11].a[  5] =         2.254519373400;     BAS[ATNO][ 11].d[  5] =        -0.681842221009;
  BAS[ATNO][ 11].a[  6] =         1.118066691800;     BAS[ATNO][ 11].d[  6] =        -0.422663855411;
  BAS[ATNO][ 11].a[  7] =         0.474444925900;     BAS[ATNO][ 11].d[  7] =         0.893267513366;
  BAS[ATNO][ 11].a[  8] =         0.201723546200;     BAS[ATNO][ 11].d[  8] =        -0.640364146311;
  BAS[ATNO][ 11].a[  9] =         0.079503144400;     BAS[ATNO][ 11].d[  9] =         0.268170700459;
  BAS[ATNO][ 11].a[ 10] =         0.022264519300;     BAS[ATNO][ 11].d[ 10] =        -0.064087015465;

-------------------------------------------
RADIAL EXPECTATION VALUES <R**-3> TO <R**3>
-------------------------------------------
   0 :     0.000000     2.174368     1.410316     0.764059     0.627282     0.553281
   1 :     2.679517     1.754075     1.269131     0.852547     0.785515     0.800132
   2 :     2.680325     1.754206     1.269033     0.853204     0.788325     0.810295
   3 :     2.680325     1.754206     1.269033     0.853204     0.788325     0.810295
   4 :     0.000000     0.840446     0.804566     1.458891     2.361138     4.131285
   5 :     0.680360     0.569025     0.671023     1.707126     3.189736     6.601301
   6 :     0.000000     0.124602     0.288565     4.126528    19.044140    96.435489
   7 :     0.000000     0.261123     0.370916     4.040381    20.634574   120.769284
   8 :     0.000000     0.784216     0.675493     2.421470     8.791600    42.668090
   9 :     0.000000    10.279586     2.382451     0.578453     0.633291     1.700368
  10 :     0.000000    73.035093     6.541586     0.215097     0.086274     0.137221
  11 :     0.768691     0.618495     0.696624     1.681848     3.252205     7.763305
  12 :     0.768691     0.618495     0.696624     1.681848     3.252205     7.763305
  13 :     0.132301     0.152764     0.331373     3.503736    13.500977    56.707095
  14 :     0.043069     0.103096     0.305805     3.528923    13.439978    55.561299
  15 :     0.043069     0.103096     0.305805     3.528923    13.439978    55.561299
  16 :     0.014879     0.028306     0.141049     8.056685    69.839382   640.773695
  17 :     0.014890     0.028316     0.141060     8.056548    69.838261   640.766974
  18 :     0.014890     0.028316     0.141060     8.056548    69.838261   640.766974
  19 :     0.135303     0.136565     0.283657     4.867383    30.125023   227.461042
  20 :     0.135381     0.136623     0.283709     4.866953    30.121865   227.441395
  21 :     0.135381     0.136623     0.283709     4.866953    30.121865   227.441395
  22 :    26.751562     7.387650     2.475834     0.554224     0.654051     2.341585
  23 :    26.751566     7.387651     2.475834     0.554224     0.654051     2.341581
  24 :    26.751566     7.387651     2.475834     0.554224     0.654051     2.341581
Making the total density                ... o.k.
o.k.
Initializing the integrals              ... done
Making exponents                        ... done
Making rho(0)                           ... done (         0.290053402)
Integral calculation                    ... Two index integrals                     ... done
Solving the equation system             ... done
atomic density will be written to file 86_Rn_atom86.adf

-------
TIMINGS
-------

Total SCF time: 0 days 0 hours 0 min 0 sec 

Total time                  ....       0.575 sec
Sum of individual times     ....       0.172 sec  ( 29.9%)

Fock matrix formation       ....       0.122 sec  ( 21.3%)
Diagonalization             ....       0.021 sec  (  3.7%)
Density matrix formation    ....       0.000 sec  (  0.0%)
Population analysis         ....       0.000 sec  (  0.0%)
Initial guess               ....       0.000 sec  (  0.1%)
Orbital Transformation      ....       0.000 sec  (  0.0%)
Orbital Orthonormalization  ....       0.000 sec  (  0.0%)
DIIS solution               ....       0.028 sec  (  4.8%)

-------------------------   --------------------
FINAL SINGLE POINT ENERGY      -252.852984202431
-------------------------   --------------------


                            ***************************************
                            *     ORCA property calculations      *
                            ***************************************

                                    ---------------------
                                    Active property flags
                                    ---------------------
   (+) Dipole Moment


------------------------------------------------------------------------------
                       ORCA ELECTRIC PROPERTIES CALCULATION
------------------------------------------------------------------------------

Dipole Moment Calculation                       ... on
Quadrupole Moment Calculation                   ... off
Polarizability Calculation                      ... off
GBWName                                         ... 86_Rn_atom86.gbw
Electron density file                           ... 86_Rn_atom86.scfp
The origin for moment calculation is the CENTER OF MASS  = ( 0.000000,  0.000000  0.000000)

-------------
DIPOLE MOMENT
-------------
                                X             Y             Z
Electronic contribution:     -0.00000       0.00000      -0.00000
Nuclear contribution   :      0.00000       0.00000       0.00000
                        -----------------------------------------
Total Dipole Moment    :     -0.00000       0.00000      -0.00000
                        -----------------------------------------
Magnitude (a.u.)       :      0.00000
Magnitude (Debye)      :      0.00000



--------------------
Rotational spectrum 
--------------------
 
Rotational constants in cm-1:     0.000000     0.000000     0.000000 
Rotational constants in MHz :     0.000000     0.000000     0.000000 

 Dipole components along the rotational axes: 
x,y,z [a.u.] :    -0.000000     0.000000    -0.000000 
x,y,z [Debye]:    -0.000000     0.000000    -0.000000 

 

Timings for individual modules:

Sum of individual times         ...        0.821 sec (=   0.014 min)
GTO integral calculation        ...        0.220 sec (=   0.004 min)  26.8 %
SCF iterations                  ...        0.601 sec (=   0.010 min)  73.2 %
                             ****ORCA TERMINATED NORMALLY****
TOTAL RUN TIME: 0 days 0 hours 0 minutes 1 seconds 38 msec
