
                                 *****************
                                 * O   R   C   A *
                                 *****************

           --- An Ab Initio, DFT and Semiempirical electronic structure package ---

                  #######################################################
                  #                        -***-                        #
                  #          Department of theory and spectroscopy      #
                  #               Directorship: Frank Neese             #
                  #        Max Planck Institute fuer Kohlenforschung    #
                  #                Kaiser Wilhelm Platz 1               #
                  #                 D-45470 Muelheim/Ruhr               #
                  #                      Germany                        #
                  #                                                     #
                  #                  All rights reserved                #
                  #                        -***-                        #
                  #######################################################


                         Program Version 4.2.0 -  RELEASE  -


 With contributions from (in alphabetic order):
   Daniel Aravena         : Magnetic Suceptibility
   Michael Atanasov       : Ab Initio Ligand Field Theory (pilot matlab implementation)
   Alexander A. Auer      : GIAO ZORA, VPT2
   Ute Becker             : Parallelization
   Giovanni Bistoni       : ED, misc. LED, open-shell LED, HFLED
   Martin Brehm           : Molecular dynamics
   Dmytro Bykov           : SCF Hessian
   Vijay G. Chilkuri      : MRCI spin determinant printing, contributions to CSF-ICE
   Dipayan Datta          : RHF DLPNO-CCSD density
   Achintya Kumar Dutta   : EOM-CC, STEOM-CC
   Dmitry Ganyushin       : Spin-Orbit,Spin-Spin,Magnetic field MRCI
   Miquel Garcia          : C-PCM Hessian, Gaussian charge scheme
   Yang Guo               : DLPNO-NEVPT2, CIM, IAO-localization
   Andreas Hansen         : Spin unrestricted coupled pair/coupled cluster methods
   Benjamin Helmich-Paris : CASSCF linear response (MC-RPA)
   Lee Huntington         : MR-EOM, pCC
   Robert Izsak           : Overlap fitted RIJCOSX, COSX-SCS-MP3, EOM
   Christian Kollmar      : KDIIS, OOCD, Brueckner-CCSD(T), CCSD density
   Simone Kossmann        : Meta GGA functionals, TD-DFT gradient, OOMP2, MP2 Hessian
   Martin Krupicka        : AUTO-CI
   Lucas Lang             : DCDCAS
   Dagmar Lenk            : GEPOL surface, SMD
   Dimitrios Liakos       : Extrapolation schemes; Compound Job, initial MDCI parallelization
   Dimitrios Manganas     : Further ROCIS development; embedding schemes
   Dimitrios Pantazis     : SARC Basis sets
   Taras Petrenko         : DFT Hessian,TD-DFT gradient, ASA, ECA, R-Raman, ABS, FL, XAS/XES, NRVS
   Peter Pinski           : DLPNO-MP2, DLPNO-MP2 Gradient
   Christoph Reimann      : Effective Core Potentials
   Marius Retegan         : Local ZFS, SOC
   Christoph Riplinger    : Optimizer, TS searches, QM/MM, DLPNO-CCSD(T), (RO)-DLPNO pert. Triples
   Tobias Risthaus        : Range-separated hybrids, TD-DFT gradient, RPA, STAB
   Michael Roemelt        : Original ROCIS implementation
   Masaaki Saitow         : Open-shell DLPNO-CCSD energy and density
   Barbara Sandhoefer     : DKH picture change effects
   Avijit Sen             : IP-ROCIS
   Kantharuban Sivalingam : CASSCF convergence, NEVPT2, FIC-MRCI
   Bernardo de Souza      : ESD, SOC TD-DFT
   Georgi Stoychev        : AutoAux, RI-MP2 NMR
   Willem Van den Heuvel  : Paramagnetic NMR
   Boris Wezisla          : Elementary symmetry handling
   Frank Wennmohs         : Technical directorship


 We gratefully acknowledge several colleagues who have allowed us to
 interface, adapt or use parts of their codes:
   Stefan Grimme, W. Hujo, H. Kruse,             : VdW corrections, initial TS optimization,
                  C. Bannwarth                     DFT functionals, gCP, sTDA/sTD-DF
   Ed Valeev, F. Pavosevic, A. Kumar             : LibInt (2-el integral package), F12 methods
   Garnet Chan, S. Sharma, J. Yang, R. Olivares  : DMRG
   Ulf Ekstrom                                   : XCFun DFT Library
   Mihaly Kallay                                 : mrcc  (arbitrary order and MRCC methods)
   Andreas Klamt, Michael Diedenhofen            : otool_cosmo (COSMO solvation model)
   Jiri Pittner, Ondrej Demel                    : Mk-CCSD
   Frank Weinhold                                : gennbo (NPA and NBO analysis)
   Christopher J. Cramer and Donald G. Truhlar   : smd solvation model
   Lars Goerigk                                  : TD-DFT with DH, B97 family of functionals
   V. Asgeirsson, H. Jonsson                     : NEB implementation
   FAccTs GmbH                                   : IRC, NEB, NEB-TS, Multilevel, MM, QM/MM, CI optimization
   S Lehtola, MJT Oliveira, MAL Marques          : LibXC Library


 Your calculation uses the libint2 library for the computation of 2-el integrals
 For citations please refer to: http://libint.valeyev.net

 Your ORCA version has been built with support for libXC version: 4.2.3
 For citations please refer to: https://tddft.org/programs/libxc/

 This ORCA versions uses:
   CBLAS   interface :  Fast vector & matrix operations
   LAPACKE interface :  Fast linear algebra routines
   SCALAPACK package :  Parallel linear algebra routines


----- Orbital basis set information -----
Your calculation utilizes the basis: aug-cc-pV(5+d)Z 
             Al - Ar: T.H. Dunning, Jr., K. A. Peterson and A. K. Wilson, J. Chem. Phys.
                      114, 9244 (2001)

================================================================================
                                        WARNINGS
                       Please study these warnings very carefully!
================================================================================


WARNING: your system is open-shell and RHF/RKS was chosen
  ===> : WILL SWITCH to UHF/UKS


WARNING: MDCI localization with Augmented Hessian Foster-Boys
  ===> : Switching off randomization!

WARNING: Post HF methods need fully converged wavefunctions
  ===> : Setting SCFConvForced true
         You can overwrite this default with %scf ConvForced false 


INFO   : the flag for use of LIBINT has been found!

================================================================================
                                       INPUT FILE
================================================================================
NAME = 05_B.in
|  1> #
|  2> # 05_B CCSD(T)/aug-cc-pv5(+d)z
|  3> #
|  4> ! CCSD(T) aug-cc-pv5(+d)z tightscf
|  5> 
|  6> *xyz 0 2
|  7>  B 0.0 0.0 0.0
|  8> *
|  9> 
| 10> %maxcore 5000 
| 11> 
| 12> %pal
| 13> nprocs 3 
| 14> end
| 15> 
| 16> 
| 17>                          ****END OF INPUT****
================================================================================

                       ****************************
                       * Single Point Calculation *
                       ****************************

---------------------------------
CARTESIAN COORDINATES (ANGSTROEM)
---------------------------------
  B      0.000000    0.000000    0.000000

----------------------------
CARTESIAN COORDINATES (A.U.)
----------------------------
  NO LB      ZA    FRAG     MASS         X           Y           Z
   0 B     5.0000    0    10.810    0.000000    0.000000    0.000000

--------------------------------
INTERNAL COORDINATES (ANGSTROEM)
--------------------------------
 B      0   0   0     0.000000000000     0.00000000     0.00000000

---------------------------
INTERNAL COORDINATES (A.U.)
---------------------------
 B      0   0   0     0.000000000000     0.00000000     0.00000000

---------------------
BASIS SET INFORMATION
---------------------
There are 1 groups of distinct atoms

 Group   1 Type B   : 25s9p5d4f3g2h contracted to 7s6p5d4f3g2h pattern {101011111/411111/11111/1111/111/11}

Atom   0B    basis set group =>   1


           ************************************************************
           *        Program running with 3 parallel MPI-processes     *
           *              working on a common directory               *
           ************************************************************
------------------------------------------------------------------------------
                           ORCA GTO INTEGRAL CALCULATION
------------------------------------------------------------------------------

                         BASIS SET STATISTICS AND STARTUP INFO

 # of primitive gaussian shells          ...   48
 # of primitive gaussian functions       ...  154
 # of contracted shells                  ...   27
 # of contracted basis functions         ...  127
 Highest angular momentum                ...    5
 Maximum contraction depth               ...   10
 Integral package used                   ... LIBINT
 Integral threshhold            Thresh   ...  2.500e-11
 Primitive cut-off              TCut     ...  2.500e-12


------------------------------ INTEGRAL EVALUATION ----------------------------


 * One electron integrals 
 Pre-screening matrix                    ... done
 Shell pair data                         ... done (   0.000 sec)



           ************************************************************
           *        Program running with 3 parallel MPI-processes     *
           *              working on a common directory               *
           ************************************************************
-------------------------------------------------------------------------------
                                 ORCA SCF
-------------------------------------------------------------------------------

------------
SCF SETTINGS
------------
Hamiltonian:
 Ab initio Hamiltonian  Method          .... Hartree-Fock(GTOs)


General Settings:
 Integral files         IntName         .... 05_B
 Hartree-Fock type      HFTyp           .... UHF
 Total Charge           Charge          ....    0
 Multiplicity           Mult            ....    2
 Number of Electrons    NEL             ....    5
 Basis Dimension        Dim             ....  127
 Nuclear Repulsion      ENuc            ....      0.0000000000 Eh

Convergence Acceleration:
 DIIS                   CNVDIIS         .... on
   Start iteration      DIISMaxIt       ....    12
   Startup error        DIISStart       ....  0.200000
   # of expansion vecs  DIISMaxEq       ....     5
   Bias factor          DIISBfac        ....   1.050
   Max. coefficient     DIISMaxC        ....  10.000
 Newton-Raphson         CNVNR           .... off
 SOSCF                  CNVSOSCF        .... off
 Level Shifting         CNVShift        .... on
   Level shift para.    LevelShift      ....    0.2500
   Turn off err/grad.   ShiftErr        ....    0.0010
 Zerner damping         CNVZerner       .... off
 Static damping         CNVDamp         .... on
   Fraction old density DampFac         ....    0.7000
   Max. Damping (<1)    DampMax         ....    0.9800
   Min. Damping (>=0)   DampMin         ....    0.0000
   Turn off err/grad.   DampErr         ....    0.1000
 Fernandez-Rico         CNVRico         .... off

SCF Procedure:
 Maximum # iterations   MaxIter         ....   125
 SCF integral mode      SCFMode         .... Direct
   Integral package                     .... LIBINT
 Reset frequency        DirectResetFreq ....    20
 Integral Threshold     Thresh          ....  2.500e-11 Eh
 Primitive CutOff       TCut            ....  2.500e-12 Eh

Convergence Tolerance:
 Convergence Check Mode ConvCheckMode   .... Total+1el-Energy
 Convergence forced     ConvForced      .... 1
 Energy Change          TolE            ....  1.000e-08 Eh
 1-El. energy change                    ....  1.000e-05 Eh
 DIIS Error             TolErr          ....  5.000e-07


Diagonalization of the overlap matrix:
Smallest eigenvalue                        ... 1.533e-03
Time for diagonalization                   ...    0.019 sec
Threshold for overlap eigenvalues          ... 1.000e-08
Number of eigenvalues below threshold      ... 0
Time for construction of square roots      ...    0.005 sec
Total time needed                          ...    0.024 sec

-------------------
DFT GRID GENERATION
-------------------

General Integration Accuracy     IntAcc      ...  4.340
Radial Grid Type                 RadialGrid  ... Gauss-Chebyshev
Angular Grid (max. acc.)         AngularGrid ... Lebedev-110
Angular grid pruning method      GridPruning ... 3 (G Style)
Weight generation scheme         WeightScheme... Becke
Basis function cutoff            BFCut       ...    1.0000e-11
Integration weight cutoff        WCut        ...    1.0000e-14
Grids for H and He will be reduced by one unit

# of grid points (after initial pruning)     ...   1678 (   0.0 sec)
# of grid points (after weights+screening)   ...   1678 (   0.0 sec)
Grid point division into batches done        ...    0.0 sec
Reduced shell lists constructed in    0.0 sec

Total number of grid points                  ...     1678
Total number of batches                      ...       27
Average number of points per batch           ...       62
Average number of grid points per atom       ...     1678
Average number of shells per batch           ...    19.50 (72.22%)
Average number of basis functions per batch  ...    99.50 (78.35%)
Average number of large shells per batch     ...    16.70 (85.64%)
Average number of large basis fcns per batch ...    82.10 (82.51%)
Maximum spatial batch extension              ...  20.06, 37.06, 37.06 au
Average spatial batch extension              ...   5.79,  7.44,  8.86 au

Time for grid setup =    0.016 sec

------------------------------
INITIAL GUESS: MODEL POTENTIAL
------------------------------
Loading Hartree-Fock densities                     ... done
Calculating cut-offs                               ... done
Setting up the integral package                    ... done
Initializing the effective Hamiltonian             ... done
Starting the Coulomb interaction                   ... done (   0.0 sec)
Reading the grid                                   ... done
Mapping shells                                     ... done
Starting the XC term evaluation                    ... done (   0.0 sec)
Transforming the Hamiltonian                       ... done (   0.0 sec)
Diagonalizing the Hamiltonian                      ... done (   0.0 sec)
Back transforming the eigenvectors                 ... done (   0.0 sec)
Now organizing SCF variables                       ... done
                      ------------------
                      INITIAL GUESS DONE (   0.1 sec)
                      ------------------
--------------
SCF ITERATIONS
--------------
ITER       Energy         Delta-E        Max-DP      RMS-DP      [F,P]     Damp
               ***  Starting incremental Fock matrix formation  ***
  0    -24.5234761277   0.000000000000 0.00870028  0.00010901  0.1764625 0.7000
  1    -24.5257245198  -0.002248392064 0.00650152  0.00008927  0.1279190 0.7000
                               ***Turning on DIIS***
  2    -24.5275183815  -0.001793861782 0.01575837  0.00023463  0.0919485 0.0000
  3    -24.5316092797  -0.004090898150 0.00363455  0.00007238  0.0058330 0.0000
  4    -24.5324231800  -0.000813900351 0.00256557  0.00005083  0.0037664 0.0000
  5    -24.5316841426   0.000739037447 0.00235777  0.00003828  0.0022580 0.0000
  6    -24.5321026849  -0.000418542295 0.00153900  0.00001966  0.0011265 0.0000
  7    -24.5326117811  -0.000509096175 0.00115703  0.00001241  0.0004668 0.0000
  8    -24.5330877678  -0.000475986741 0.00009442  0.00000172  0.0000584 0.0000
  9    -24.5331272824  -0.000039514623 0.00002017  0.00000029  0.0000101 0.0000
 10    -24.5331297522  -0.000002469793 0.00000296  0.00000006  0.0000017 0.0000
                            ***DIIS convergence achieved***

               *****************************************************
               *                     SUCCESS                       *
               *           SCF CONVERGED AFTER  11 CYCLES          *
               *****************************************************


----------------
TOTAL SCF ENERGY
----------------

Total Energy       :          -24.53313023 Eh            -667.58041 eV

Components:
Nuclear Repulsion  :            0.00000000 Eh               0.00000 eV
Electronic Energy  :          -24.53313023 Eh            -667.58041 eV
One Electron Energy:          -32.36858440 Eh            -880.79396 eV
Two Electron Energy:            7.83545416 Eh             213.21355 eV

Virial components:
Potential Energy   :          -49.06617945 Eh           -1335.15862 eV
Kinetic Energy     :           24.53304922 Eh             667.57821 eV
Virial Ratio       :            2.00000330


---------------
SCF CONVERGENCE
---------------

  Last Energy change         ...   -4.8269e-07  Tolerance :   1.0000e-08
  Last MAX-Density change    ...    6.7065e-07  Tolerance :   1.0000e-07
  Last RMS-Density change    ...    1.2061e-08  Tolerance :   5.0000e-09
  Last DIIS Error            ...    1.9037e-07  Tolerance :   5.0000e-07

             **** THE GBW FILE WAS UPDATED (05_B.gbw) ****
             **** DENSITY FILE WAS UPDATED (05_B.scfp) ****
             **** ENERGY FILE WAS UPDATED (05_B.en.tmp) ****
----------------------
UHF SPIN CONTAMINATION
----------------------

Expectation value of <S**2>     :     0.761345
Ideal value S*(S+1) for S=0.5   :     0.750000
Deviation                       :     0.011345

             **** THE GBW FILE WAS UPDATED (05_B.gbw) ****
             **** DENSITY FILE WAS UPDATED (05_B.scfp) ****
----------------
ORBITAL ENERGIES
----------------
                 SPIN UP ORBITALS
  NO   OCC          E(Eh)            E(eV) 
   0   1.0000      -7.701231      -209.5611 
   1   1.0000      -0.545236       -14.8366 
   2   1.0000      -0.318854        -8.6765 
   3   0.0000       0.021669         0.5896 
   4   0.0000       0.021669         0.5896 
   5   0.0000       0.040248         1.0952 
   6   0.0000       0.051599         1.4041 
   7   0.0000       0.062851         1.7103 
   8   0.0000       0.062851         1.7103 
   9   0.0000       0.133266         3.6263 
  10   0.0000       0.133266         3.6263 
  11   0.0000       0.135186         3.6786 
  12   0.0000       0.135186         3.6786 
  13   0.0000       0.136071         3.7027 
  14   0.0000       0.191662         5.2154 
  15   0.0000       0.224587         6.1113 
  16   0.0000       0.224587         6.1113 
  17   0.0000       0.299865         8.1597 
  18   0.0000       0.343529         9.3479 
  19   0.0000       0.343529         9.3479 
  20   0.0000       0.347755         9.4629 
  21   0.0000       0.347755         9.4629 
  22   0.0000       0.350373         9.5341 
  23   0.0000       0.350373         9.5341 
  24   0.0000       0.351234         9.5576 
  25   0.0000       0.434194        11.8150 
  26   0.0000       0.435091        11.8394 
  27   0.0000       0.435091        11.8394 
  28   0.0000       0.440935        11.9985 
  29   0.0000       0.440935        11.9985 
  30   0.0000       0.639124        17.3914 
  31   0.0000       0.668648        18.1948 
  32   0.0000       0.668648        18.1948 
  33   0.0000       1.000686        27.2300 
  34   0.0000       1.000686        27.2300 
  35   0.0000       1.008062        27.4308 
  36   0.0000       1.008062        27.4308 
  37   0.0000       1.013374        27.5753 
  38   0.0000       1.013374        27.5753 
  39   0.0000       1.016561        27.6620 
  40   0.0000       1.016561        27.6620 
  41   0.0000       1.017621        27.6909 
  42   0.0000       1.041009        28.3273 
  43   0.0000       1.041009        28.3273 
  44   0.0000       1.048126        28.5210 
  45   0.0000       1.048126        28.5210 
  46   0.0000       1.052367        28.6364 
  47   0.0000       1.052367        28.6364 
  48   0.0000       1.053766        28.6744 
  49   0.0000       1.142580        31.0912 
  50   0.0000       1.150687        31.3118 
  51   0.0000       1.150687        31.3118 
  52   0.0000       1.158421        31.5222 
  53   0.0000       1.158421        31.5222 
  54   0.0000       1.161941        31.6180 
  55   0.0000       1.811189        49.2850 
  56   0.0000       1.819115        49.5006 
  57   0.0000       1.819115        49.5006 
  58   0.0000       2.284144        62.1547 
  59   0.0000       2.284144        62.1547 
  60   0.0000       2.294444        62.4350 
  61   0.0000       2.294444        62.4350 
  62   0.0000       2.302541        62.6553 
  63   0.0000       2.302541        62.6553 
  64   0.0000       2.308369        62.8139 
  65   0.0000       2.308369        62.8139 
  66   0.0000       2.311885        62.9096 
  67   0.0000       2.311885        62.9096 
  68   0.0000       2.313060        62.9416 
  69   0.0000       2.589866        70.4738 
  70   0.0000       2.589866        70.4738 
  71   0.0000       2.601920        70.8018 
  72   0.0000       2.601920        70.8018 
  73   0.0000       2.609170        70.9991 
  74   0.0000       2.609170        70.9991 
  75   0.0000       2.611590        71.0650 
  76   0.0000       2.695374        73.3449 
  77   0.0000       2.695374        73.3449 
  78   0.0000       2.708396        73.6992 
  79   0.0000       2.708396        73.6992 
  80   0.0000       2.717722        73.9530 
  81   0.0000       2.717722        73.9530 
  82   0.0000       2.723317        74.1052 
  83   0.0000       2.723317        74.1052 
  84   0.0000       2.725181        74.1559 
  85   0.0000       2.969580        80.8064 
  86   0.0000       2.969580        80.8064 
  87   0.0000       2.975774        80.9749 
  88   0.0000       2.975774        80.9749 
  89   0.0000       2.977961        81.0344 
  90   0.0000       4.260697       115.9394 
  91   0.0000       5.659169       153.9938 
  92   0.0000       5.659169       153.9938 
  93   0.0000       5.667360       154.2167 
  94   0.0000       5.902604       160.6180 
  95   0.0000       5.902604       160.6180 
  96   0.0000       5.918431       161.0487 
  97   0.0000       5.918431       161.0487 
  98   0.0000       5.930834       161.3862 
  99   0.0000       5.930834       161.3862 
 100   0.0000       5.939745       161.6287 
 101   0.0000       5.939745       161.6287 
 102   0.0000       5.945112       161.7747 
 103   0.0000       5.945112       161.7747 
 104   0.0000       5.946905       161.8235 
 105   0.0000       6.260603       170.3597 
 106   0.0000       6.260603       170.3597 
 107   0.0000       6.277672       170.8241 
 108   0.0000       6.277672       170.8241 
 109   0.0000       6.288056       171.1067 
 110   0.0000       6.288056       171.1067 
 111   0.0000       6.291544       171.2016 
 112   0.0000       6.765744       184.1053 
 113   0.0000       6.765744       184.1053 
 114   0.0000       6.783345       184.5842 
 115   0.0000       6.783345       184.5842 
 116   0.0000       6.796000       184.9286 
 117   0.0000       6.796000       184.9286 
 118   0.0000       6.803626       185.1361 
 119   0.0000       6.803626       185.1361 
 120   0.0000       6.806174       185.2054 
 121   0.0000       7.810484       212.5341 
 122   0.0000       7.810484       212.5341 
 123   0.0000       7.826311       212.9647 
 124   0.0000       7.826311       212.9647 
 125   0.0000       7.831706       213.1115 
 126   0.0000      23.718329       645.4085 

                 SPIN DOWN ORBITALS
  NO   OCC          E(Eh)            E(eV) 
   0   1.0000      -7.686205      -209.1523 
   1   1.0000      -0.446151       -12.1404 
   2   0.0000       0.024645         0.6706 
   3   0.0000       0.024645         0.6706 
   4   0.0000       0.033626         0.9150 
   5   0.0000       0.054759         1.4901 
   6   0.0000       0.069419         1.8890 
   7   0.0000       0.069419         1.8890 
   8   0.0000       0.099743         2.7141 
   9   0.0000       0.133324         3.6279 
  10   0.0000       0.133324         3.6279 
  11   0.0000       0.138492         3.7686 
  12   0.0000       0.138492         3.7686 
  13   0.0000       0.140417         3.8209 
  14   0.0000       0.231345         6.2952 
  15   0.0000       0.231345         6.2952 
  16   0.0000       0.260417         7.0863 
  17   0.0000       0.313610         8.5338 
  18   0.0000       0.343490         9.3468 
  19   0.0000       0.343490         9.3468 
  20   0.0000       0.349818         9.5190 
  21   0.0000       0.349818         9.5190 
  22   0.0000       0.353779         9.6268 
  23   0.0000       0.353779         9.6268 
  24   0.0000       0.355145         9.6640 
  25   0.0000       0.441693        12.0191 
  26   0.0000       0.441693        12.0191 
  27   0.0000       0.460506        12.5310 
  28   0.0000       0.460506        12.5310 
  29   0.0000       0.467743        12.7279 
  30   0.0000       0.676540        18.4096 
  31   0.0000       0.676540        18.4096 
  32   0.0000       0.712190        19.3797 
  33   0.0000       1.000454        27.2237 
  34   0.0000       1.000454        27.2237 
  35   0.0000       1.011125        27.5141 
  36   0.0000       1.011125        27.5141 
  37   0.0000       1.018967        27.7275 
  38   0.0000       1.018967        27.7275 
  39   0.0000       1.023771        27.8582 
  40   0.0000       1.023771        27.8582 
  41   0.0000       1.025390        27.9023 
  42   0.0000       1.041092        28.3296 
  43   0.0000       1.041092        28.3296 
  44   0.0000       1.059175        28.8216 
  45   0.0000       1.059175        28.8216 
  46   0.0000       1.070422        29.1277 
  47   0.0000       1.070422        29.1277 
  48   0.0000       1.074267        29.2323 
  49   0.0000       1.162033        31.6205 
  50   0.0000       1.162033        31.6205 
  51   0.0000       1.177852        32.0510 
  52   0.0000       1.195461        32.5301 
  53   0.0000       1.195461        32.5301 
  54   0.0000       1.208750        32.8917 
  55   0.0000       1.827401        49.7261 
  56   0.0000       1.827401        49.7261 
  57   0.0000       1.872798        50.9614 
  58   0.0000       2.283762        62.1443 
  59   0.0000       2.283762        62.1443 
  60   0.0000       2.297652        62.5223 
  61   0.0000       2.297652        62.5223 
  62   0.0000       2.308611        62.8205 
  63   0.0000       2.308611        62.8205 
  64   0.0000       2.316528        63.0359 
  65   0.0000       2.316528        63.0359 
  66   0.0000       2.321316        63.1662 
  67   0.0000       2.321316        63.1662 
  68   0.0000       2.322919        63.2098 
  69   0.0000       2.591490        70.5180 
  70   0.0000       2.591490        70.5180 
  71   0.0000       2.620515        71.3078 
  72   0.0000       2.620515        71.3078 
  73   0.0000       2.638480        71.7967 
  74   0.0000       2.638480        71.7967 
  75   0.0000       2.644587        71.9629 
  76   0.0000       2.695491        73.3480 
  77   0.0000       2.695491        73.3480 
  78   0.0000       2.716730        73.9260 
  79   0.0000       2.716730        73.9260 
  80   0.0000       2.732231        74.3478 
  81   0.0000       2.732231        74.3478 
  82   0.0000       2.741682        74.6050 
  83   0.0000       2.741682        74.6050 
  84   0.0000       2.744860        74.6914 
  85   0.0000       2.974814        80.9488 
  86   0.0000       2.974814        80.9488 
  87   0.0000       3.014142        82.0190 
  88   0.0000       3.014142        82.0190 
  89   0.0000       3.028160        82.4004 
  90   0.0000       4.279400       116.4484 
  91   0.0000       5.665159       154.1568 
  92   0.0000       5.665159       154.1568 
  93   0.0000       5.704388       155.2243 
  94   0.0000       5.902827       160.6241 
  95   0.0000       5.902827       160.6241 
  96   0.0000       5.924536       161.2148 
  97   0.0000       5.924536       161.2148 
  98   0.0000       5.941568       161.6783 
  99   0.0000       5.941568       161.6783 
 100   0.0000       5.953822       162.0117 
 101   0.0000       5.953822       162.0117 
 102   0.0000       5.961212       162.2128 
 103   0.0000       5.961212       162.2128 
 104   0.0000       5.963682       162.2800 
 105   0.0000       6.263322       170.4337 
 106   0.0000       6.263322       170.4337 
 107   0.0000       6.295089       171.2981 
 108   0.0000       6.295089       171.2981 
 109   0.0000       6.314650       171.8304 
 110   0.0000       6.314650       171.8304 
 111   0.0000       6.321282       172.0108 
 112   0.0000       6.767042       184.1406 
 113   0.0000       6.767042       184.1406 
 114   0.0000       6.794022       184.8747 
 115   0.0000       6.794022       184.8747 
 116   0.0000       6.813533       185.4056 
 117   0.0000       6.813533       185.4056 
 118   0.0000       6.825339       185.7269 
 119   0.0000       6.825339       185.7269 
 120   0.0000       6.829292       185.8345 
 121   0.0000       7.814397       212.6406 
 122   0.0000       7.814397       212.6406 
 123   0.0000       7.849075       213.5842 
 124   0.0000       7.849075       213.5842 
 125   0.0000       7.861057       213.9102 
 126   0.0000      23.724885       645.5870 

                    ********************************
                    * MULLIKEN POPULATION ANALYSIS *
                    ********************************

--------------------------------------------
MULLIKEN ATOMIC CHARGES AND SPIN POPULATIONS
--------------------------------------------
   0 B :    0.000000    1.000000
Sum of atomic charges         :    0.0000000
Sum of atomic spin populations:    1.0000000

-----------------------------------------------------
MULLIKEN REDUCED ORBITAL CHARGES AND SPIN POPULATIONS
-----------------------------------------------------
CHARGE
  0 B s       :     3.994923  s :     3.994923
      pz      :     0.000000  p :     0.999984
      px      :     0.000000
      py      :     0.999984
      dz2     :     0.001269  d :     0.005076
      dxz     :     0.000000
      dyz     :     0.000000
      dx2y2   :     0.003807
      dxy     :     0.000000
      f0      :     0.000000  f :     0.000016
      f+1     :     0.000000
      f-1     :     0.000006
      f+2     :     0.000000
      f-2     :     0.000000
      f+3     :     0.000000
      f-3     :     0.000010
      g0      :     0.000000  g :     0.000000
      g+1     :     0.000000
      g-1     :     0.000000
      g+2     :     0.000000
      g-2     :     0.000000
      g+3     :     0.000000
      g-3     :     0.000000
      g+4     :     0.000000
      g-4     :     0.000000
      h0      :     0.000000  h :     0.000000
      h+1     :     0.000000
      h-1     :     0.000000
      h+2     :     0.000000
      h-2     :     0.000000
      h+3     :     0.000000
      h-3     :     0.000000
      h+4     :     0.000000
      h-4     :     0.000000
      h+5     :     0.000000
      h-5     :     0.000000

SPIN
  0 B s       :    -0.001061  s :    -0.001061
      pz      :     0.000000  p :     0.999984
      px      :     0.000000
      py      :     0.999984
      dz2     :     0.000265  d :     0.001061
      dxz     :     0.000000
      dyz     :     0.000000
      dx2y2   :     0.000796
      dxy     :     0.000000
      f0      :     0.000000  f :     0.000016
      f+1     :     0.000000
      f-1     :     0.000006
      f+2     :     0.000000
      f-2     :     0.000000
      f+3     :     0.000000
      f-3     :     0.000010
      g0      :    -0.000000  g :    -0.000000
      g+1     :    -0.000000
      g-1     :    -0.000000
      g+2     :    -0.000000
      g-2     :    -0.000000
      g+3     :    -0.000000
      g-3     :    -0.000000
      g+4     :    -0.000000
      g-4     :    -0.000000
      h0      :     0.000000  h :     0.000000
      h+1     :     0.000000
      h-1     :     0.000000
      h+2     :     0.000000
      h-2     :     0.000000
      h+3     :     0.000000
      h-3     :     0.000000
      h+4     :     0.000000
      h-4     :     0.000000
      h+5     :     0.000000
      h-5     :     0.000000


                     *******************************
                     * LOEWDIN POPULATION ANALYSIS *
                     *******************************

-------------------------------------------
LOEWDIN ATOMIC CHARGES AND SPIN POPULATIONS
-------------------------------------------
   0 B :    0.000000    1.000000

----------------------------------------------------
LOEWDIN REDUCED ORBITAL CHARGES AND SPIN POPULATIONS
----------------------------------------------------
CHARGE
  0 B s       :     3.994923  s :     3.994923
      pz      :     0.000000  p :     0.999984
      px      :     0.000000
      py      :     0.999984
      dz2     :     0.001269  d :     0.005076
      dxz     :     0.000000
      dyz     :     0.000000
      dx2y2   :     0.003807
      dxy     :     0.000000
      f0      :     0.000000  f :     0.000016
      f+1     :     0.000000
      f-1     :     0.000006
      f+2     :     0.000000
      f-2     :     0.000000
      f+3     :     0.000000
      f-3     :     0.000010
      g0      :     0.000000  g :     0.000000
      g+1     :     0.000000
      g-1     :     0.000000
      g+2     :     0.000000
      g-2     :     0.000000
      g+3     :     0.000000
      g-3     :     0.000000
      g+4     :     0.000000
      g-4     :     0.000000
      h0      :     0.000000  h :     0.000000
      h+1     :     0.000000
      h-1     :     0.000000
      h+2     :     0.000000
      h-2     :     0.000000
      h+3     :     0.000000
      h-3     :     0.000000
      h+4     :     0.000000
      h-4     :     0.000000
      h+5     :     0.000000
      h-5     :     0.000000

SPIN
  0 B s       :    -0.001061  s :    -0.001061
      pz      :     0.000000  p :     0.999984
      px      :     0.000000
      py      :     0.999984
      dz2     :     0.000265  d :     0.001061
      dxz     :     0.000000
      dyz     :     0.000000
      dx2y2   :     0.000796
      dxy     :     0.000000
      f0      :     0.000000  f :     0.000016
      f+1     :     0.000000
      f-1     :     0.000006
      f+2     :     0.000000
      f-2     :     0.000000
      f+3     :     0.000000
      f-3     :     0.000010
      g0      :    -0.000000  g :    -0.000000
      g+1     :    -0.000000
      g-1     :    -0.000000
      g+2     :    -0.000000
      g-2     :    -0.000000
      g+3     :    -0.000000
      g-3     :    -0.000000
      g+4     :    -0.000000
      g-4     :    -0.000000
      h0      :     0.000000  h :     0.000000
      h+1     :     0.000000
      h-1     :     0.000000
      h+2     :     0.000000
      h-2     :     0.000000
      h+3     :     0.000000
      h-3     :     0.000000
      h+4     :     0.000000
      h-4     :     0.000000
      h+5     :     0.000000
      h-5     :     0.000000


                      *****************************
                      * MAYER POPULATION ANALYSIS *
                      *****************************

  NA   - Mulliken gross atomic population
  ZA   - Total nuclear charge
  QA   - Mulliken gross atomic charge
  VA   - Mayer's total valence
  BVA  - Mayer's bonded valence
  FA   - Mayer's free valence

  ATOM       NA         ZA         QA         VA         BVA        FA
  0 B      5.0000     5.0000     0.0000     1.0227     0.0000     1.0227

  Mayer bond orders larger than 0.100000


-------
TIMINGS
-------

Total SCF time: 0 days 0 hours 0 min 13 sec 

Total time                  ....      13.516 sec
Sum of individual times     ....      13.180 sec  ( 97.5%)

Fock matrix formation       ....      12.897 sec  ( 95.4%)
Diagonalization             ....       0.060 sec  (  0.4%)
Density matrix formation    ....       0.004 sec  (  0.0%)
Population analysis         ....       0.024 sec  (  0.2%)
Initial guess               ....       0.124 sec  (  0.9%)
Orbital Transformation      ....       0.000 sec  (  0.0%)
Orbital Orthonormalization  ....       0.000 sec  (  0.0%)
DIIS solution               ....       0.054 sec  (  0.4%)


           ************************************************************
           *        Program running with 3 parallel MPI-processes     *
           *              working on a common directory               *
           ************************************************************


------------------------------------------------------------------------------- 
                              ORCA-MATRIX DRIVEN CI                            
------------------------------------------------------------------------------- 

--------------------------------
AUTOMATIC CHOICE OF INCORE LEVEL
--------------------------------

Memory available                           ...   2500.00 MB
Memory needed for S+T                      ...      1.06 MB
Memory needed for J+K                      ...      2.12 MB
Memory needed for DIIS                     ...     14.78 MB
Memory needed for 3-ext                    ...     29.09 MB
Memory needed for 4-ext                    ...    909.15 MB
Memory needed for triples                  ...     72.73 MB
 -> Final InCoreLevel    ... 5
 -> check shows that triples correction can be computed


Wavefunction type
-----------------
Correlation treatment                      ...      CCSD     
Single excitations                         ... ON
Orbital optimization                       ... OFF
Calculation of Z vector                    ... OFF
Calculation of Brueckner orbitals          ... OFF
Perturbative triple excitations            ... ON
Calculation of F12 correction              ... OFF
Frozen core treatment                      ... chemical core (2 el)
Reference Wavefunction                     ... UHF
  Alpha-MOs occ    :     1 ...    2 (  2 MO's/  2 electrons)
  Beta-MOs occ     :     1 ...    1 (  1 MO's/  1 electrons)
  Alpha-MOs virt   :     3 ...  126 (124 MO's              )
  Beta-MOs virt    :     2 ...  126 (125 MO's              )
Number of AO's                             ...    127
Number of electrons                        ...      5
Number of correlated electrons             ...      3

Algorithmic settings
--------------------
Integral transformation                    ... AO direct full transformation
K(C) Formation                             ... FULL-MO TRAFO
Maximum number of iterations               ...        50
Convergence tolerance (max. residuum)      ... 1.000e-05
Level shift for amplitude update           ... 2.000e-01
Maximum number of DIIS vectors             ...         7
DIIS turned on at iteration                ...         0
Damping before turning on DIIS             ...     0.500
Damping after turning on DIIS              ...     0.000
Pair specific amplitude update             ... OFF
Natural orbital iterations                 ... OFF
Perturbative natural orbital generation    ... OFF
Printlevel                                 ... 2

Memory handling:
----------------
Maximum memory for working arrays          ...   2500 MB
Data storage in matrix containers          ... UNCOMPRESSED
Data type for integral storage             ... DOUBLE
In-Core Storage of quantities:
   Amplitudes+Sigma Vector      ... YES
   J+K operators                ... YES
   DIIS vectors                 ... YES
   3-external integrals         ... YES
   4-external integrals         ... YES


Initializing the integral package          ... done
Warning: reference  - re-canonicalizations have been set to INT 1 VIRT 1

--------------------------
UNRESTRICTED FOCK OPERATOR
--------------------------

<ss|ss>:          406 b            0 skpd (  0.0%)    0.002 s ( 0.006 ms/b)
<ss|sp>:         1176 b            0 skpd (  0.0%)    0.003 s ( 0.002 ms/b)
<ss|sd>:          980 b            0 skpd (  0.0%)    0.004 s ( 0.005 ms/b)
<ss|sf>:          784 b            0 skpd (  0.0%)    0.005 s ( 0.006 ms/b)
<ss|sg>:          588 b            0 skpd (  0.0%)    0.005 s ( 0.008 ms/b)
<ss|sh>:          392 b            0 skpd (  0.0%)    0.004 s ( 0.010 ms/b)
<ss|pp>:          588 b            0 skpd (  0.0%)    0.003 s ( 0.004 ms/b)
<ss|pd>:          840 b            0 skpd (  0.0%)    0.003 s ( 0.003 ms/b)
<ss|pf>:          672 b            0 skpd (  0.0%)    0.002 s ( 0.004 ms/b)
<ss|pg>:          504 b            0 skpd (  0.0%)    0.003 s ( 0.006 ms/b)
<ss|ph>:          336 b            0 skpd (  0.0%)    0.002 s ( 0.006 ms/b)
<ss|dd>:          420 b            0 skpd (  0.0%)    0.001 s ( 0.003 ms/b)
<ss|df>:          560 b            0 skpd (  0.0%)    0.003 s ( 0.005 ms/b)
<ss|dg>:          420 b            0 skpd (  0.0%)    0.003 s ( 0.006 ms/b)
<ss|dh>:          280 b            0 skpd (  0.0%)    0.003 s ( 0.011 ms/b)
<ss|ff>:          280 b            0 skpd (  0.0%)    0.002 s ( 0.008 ms/b)
<ss|fg>:          336 b            0 skpd (  0.0%)    0.003 s ( 0.009 ms/b)
<ss|fh>:          224 b            0 skpd (  0.0%)    0.003 s ( 0.014 ms/b)
<ss|gg>:          168 b            0 skpd (  0.0%)    0.002 s ( 0.013 ms/b)
<ss|gh>:          168 b            0 skpd (  0.0%)    0.003 s ( 0.017 ms/b)
<ss|hh>:           84 b            0 skpd (  0.0%)    0.002 s ( 0.023 ms/b)
<sp|sp>:          903 b            0 skpd (  0.0%)    0.001 s ( 0.002 ms/b)
<sp|sd>:         1470 b            0 skpd (  0.0%)    0.004 s ( 0.002 ms/b)
<sp|sf>:         1176 b            0 skpd (  0.0%)    0.004 s ( 0.003 ms/b)
<sp|sg>:          882 b            0 skpd (  0.0%)    0.004 s ( 0.004 ms/b)
<sp|sh>:          588 b            0 skpd (  0.0%)    0.003 s ( 0.006 ms/b)
<sp|pp>:          882 b            0 skpd (  0.0%)    0.002 s ( 0.003 ms/b)
<sp|pd>:         1260 b            0 skpd (  0.0%)    0.003 s ( 0.003 ms/b)
<sp|pf>:         1008 b            2 skpd (  0.2%)    0.003 s ( 0.003 ms/b)
<sp|pg>:          756 b            1 skpd (  0.1%)    0.004 s ( 0.005 ms/b)
<sp|ph>:          504 b            1 skpd (  0.2%)    0.003 s ( 0.005 ms/b)
<sp|dd>:          630 b            0 skpd (  0.0%)    0.002 s ( 0.003 ms/b)
<sp|df>:          840 b            0 skpd (  0.0%)    0.004 s ( 0.005 ms/b)
<sp|dg>:          630 b            0 skpd (  0.0%)    0.004 s ( 0.006 ms/b)
<sp|dh>:          420 b            0 skpd (  0.0%)    0.004 s ( 0.009 ms/b)
<sp|ff>:          420 b            0 skpd (  0.0%)    0.003 s ( 0.008 ms/b)
<sp|fg>:          504 b            0 skpd (  0.0%)    0.004 s ( 0.008 ms/b)
<sp|fh>:          336 b            2 skpd (  0.6%)    0.004 s ( 0.013 ms/b)
<sp|gg>:          252 b            0 skpd (  0.0%)    0.003 s ( 0.011 ms/b)
<sp|gh>:          252 b            0 skpd (  0.0%)    0.004 s ( 0.015 ms/b)
<sp|hh>:          126 b           10 skpd (  7.9%)    0.002 s ( 0.020 ms/b)
<sd|sd>:          630 b            0 skpd (  0.0%)    0.002 s ( 0.002 ms/b)
<sd|sf>:          980 b            0 skpd (  0.0%)    0.003 s ( 0.003 ms/b)
<sd|sg>:          735 b            0 skpd (  0.0%)    0.003 s ( 0.005 ms/b)
<sd|sh>:          490 b            0 skpd (  0.0%)    0.005 s ( 0.010 ms/b)
<sd|pp>:          735 b            0 skpd (  0.0%)    0.002 s ( 0.003 ms/b)
<sd|pd>:         1050 b            0 skpd (  0.0%)    0.003 s ( 0.003 ms/b)
<sd|pf>:          840 b            0 skpd (  0.0%)    0.003 s ( 0.004 ms/b)
<sd|pg>:          630 b            0 skpd (  0.0%)    0.004 s ( 0.006 ms/b)
<sd|ph>:          420 b            0 skpd (  0.0%)    0.004 s ( 0.009 ms/b)
<sd|dd>:          525 b            0 skpd (  0.0%)    0.002 s ( 0.004 ms/b)
<sd|df>:          700 b            0 skpd (  0.0%)    0.005 s ( 0.007 ms/b)
<sd|dg>:          525 b            0 skpd (  0.0%)    0.005 s ( 0.009 ms/b)
<sd|dh>:          350 b            0 skpd (  0.0%)    0.005 s ( 0.014 ms/b)
<sd|ff>:          350 b            0 skpd (  0.0%)    0.004 s ( 0.011 ms/b)
<sd|fg>:          420 b            0 skpd (  0.0%)    0.006 s ( 0.013 ms/b)
<sd|fh>:          280 b            0 skpd (  0.0%)    0.006 s ( 0.020 ms/b)
<sd|gg>:          210 b            0 skpd (  0.0%)    0.004 s ( 0.019 ms/b)
<sd|gh>:          210 b            0 skpd (  0.0%)    0.005 s ( 0.026 ms/b)
<sd|hh>:          105 b            0 skpd (  0.0%)    0.004 s ( 0.034 ms/b)
<sf|sf>:          406 b            0 skpd (  0.0%)    0.003 s ( 0.007 ms/b)
<sf|sg>:          588 b            0 skpd (  0.0%)    0.005 s ( 0.009 ms/b)
<sf|sh>:          392 b            0 skpd (  0.0%)    0.008 s ( 0.021 ms/b)
<sf|pp>:          588 b            0 skpd (  0.0%)    0.003 s ( 0.005 ms/b)
<sf|pd>:          840 b            0 skpd (  0.0%)    0.004 s ( 0.005 ms/b)
<sf|pf>:          672 b            9 skpd (  1.3%)    0.005 s ( 0.007 ms/b)
<sf|pg>:          504 b            3 skpd (  0.6%)    0.006 s ( 0.012 ms/b)
<sf|ph>:          336 b            4 skpd (  1.2%)    0.007 s ( 0.021 ms/b)
<sf|dd>:          420 b            0 skpd (  0.0%)    0.003 s ( 0.007 ms/b)
<sf|df>:          560 b            0 skpd (  0.0%)    0.007 s ( 0.012 ms/b)
<sf|dg>:          420 b            0 skpd (  0.0%)    0.007 s ( 0.016 ms/b)
<sf|dh>:          280 b            0 skpd (  0.0%)    0.008 s ( 0.027 ms/b)
<sf|ff>:          280 b            3 skpd (  1.1%)    0.006 s ( 0.023 ms/b)
<sf|fg>:          336 b            4 skpd (  1.2%)    0.009 s ( 0.027 ms/b)
<sf|fh>:          224 b            9 skpd (  4.0%)    0.009 s ( 0.040 ms/b)
<sf|gg>:          168 b            0 skpd (  0.0%)    0.006 s ( 0.038 ms/b)
<sf|gh>:          168 b            2 skpd (  1.2%)    0.009 s ( 0.053 ms/b)
<sf|hh>:           84 b           33 skpd ( 39.3%)    0.002 s ( 0.044 ms/b)
<sg|sg>:          231 b            0 skpd (  0.0%)    0.005 s ( 0.020 ms/b)
<sg|sh>:          294 b            0 skpd (  0.0%)    0.013 s ( 0.045 ms/b)
<sg|pp>:          441 b            0 skpd (  0.0%)    0.004 s ( 0.010 ms/b)
<sg|pd>:          630 b            0 skpd (  0.0%)    0.006 s ( 0.009 ms/b)
<sg|pf>:          504 b            4 skpd (  0.8%)    0.006 s ( 0.012 ms/b)
<sg|pg>:          378 b           11 skpd (  2.9%)    0.008 s ( 0.022 ms/b)
<sg|ph>:          252 b           10 skpd (  4.0%)    0.008 s ( 0.035 ms/b)
<sg|dd>:          315 b            0 skpd (  0.0%)    0.003 s ( 0.011 ms/b)
<sg|df>:          420 b            0 skpd (  0.0%)    0.008 s ( 0.020 ms/b)
<sg|dg>:          315 b            0 skpd (  0.0%)    0.010 s ( 0.031 ms/b)
<sg|dh>:          210 b            0 skpd (  0.0%)    0.011 s ( 0.050 ms/b)
<sg|ff>:          210 b            1 skpd (  0.5%)    0.008 s ( 0.038 ms/b)
<sg|fg>:          252 b            3 skpd (  1.2%)    0.012 s ( 0.050 ms/b)
<sg|fh>:          168 b            4 skpd (  2.4%)    0.012 s ( 0.072 ms/b)
<sg|gg>:          126 b            0 skpd (  0.0%)    0.009 s ( 0.072 ms/b)
<sg|gh>:          126 b            1 skpd (  0.8%)    0.013 s ( 0.102 ms/b)
<sg|hh>:           63 b            0 skpd (  0.0%)    0.008 s ( 0.131 ms/b)
<sh|sh>:          105 b            0 skpd (  0.0%)    0.009 s ( 0.088 ms/b)
<sh|pp>:          294 b            0 skpd (  0.0%)    0.005 s ( 0.019 ms/b)
<sh|pd>:          420 b            0 skpd (  0.0%)    0.007 s ( 0.017 ms/b)
<sh|pf>:          336 b            7 skpd (  2.1%)    0.008 s ( 0.023 ms/b)
<sh|pg>:          252 b            8 skpd (  3.2%)    0.010 s ( 0.039 ms/b)
<sh|ph>:          168 b           42 skpd ( 25.0%)    0.006 s ( 0.044 ms/b)
<sh|dd>:          210 b            0 skpd (  0.0%)    0.004 s ( 0.019 ms/b)
<sh|df>:          280 b            0 skpd (  0.0%)    0.010 s ( 0.035 ms/b)
<sh|dg>:          210 b            0 skpd (  0.0%)    0.011 s ( 0.052 ms/b)
<sh|dh>:          140 b            0 skpd (  0.0%)    0.013 s ( 0.093 ms/b)
<sh|ff>:          140 b            7 skpd (  5.0%)    0.007 s ( 0.052 ms/b)
<sh|fg>:          168 b            2 skpd (  1.2%)    0.014 s ( 0.083 ms/b)
<sh|fh>:          112 b           79 skpd ( 70.5%)    0.002 s ( 0.073 ms/b)
<sh|gg>:           84 b            0 skpd (  0.0%)    0.010 s ( 0.121 ms/b)
<sh|gh>:           84 b            0 skpd (  0.0%)    0.014 s ( 0.167 ms/b)
<sh|hh>: done
<pp|pp>:          231 b            0 skpd (  0.0%)    0.001 s ( 0.004 ms/b)
<pp|pd>:          630 b            0 skpd (  0.0%)    0.002 s ( 0.004 ms/b)
<pp|pf>:          504 b            0 skpd (  0.0%)    0.003 s ( 0.005 ms/b)
<pp|pg>:          378 b            0 skpd (  0.0%)    0.003 s ( 0.007 ms/b)
<pp|ph>:          252 b            0 skpd (  0.0%)    0.002 s ( 0.009 ms/b)
<pp|dd>:          315 b            0 skpd (  0.0%)    0.002 s ( 0.005 ms/b)
<pp|df>:          420 b            0 skpd (  0.0%)    0.003 s ( 0.008 ms/b)
<pp|dg>:          315 b            0 skpd (  0.0%)    0.003 s ( 0.011 ms/b)
<pp|dh>:          210 b            0 skpd (  0.0%)    0.003 s ( 0.016 ms/b)
<pp|ff>:          210 b            0 skpd (  0.0%)    0.003 s ( 0.014 ms/b)
<pp|fg>:          252 b            0 skpd (  0.0%)    0.004 s ( 0.016 ms/b)
<pp|fh>:          168 b            0 skpd (  0.0%)    0.004 s ( 0.023 ms/b)
<pp|gg>:          126 b            0 skpd (  0.0%)    0.003 s ( 0.022 ms/b)
<pp|gh>:          126 b            0 skpd (  0.0%)    0.004 s ( 0.031 ms/b)
<pp|hh>:           63 b            0 skpd (  0.0%)    0.002 s ( 0.039 ms/b)
<pd|pd>:          465 b            0 skpd (  0.0%)    0.003 s ( 0.007 ms/b)
<pd|pf>:          720 b            0 skpd (  0.0%)    0.006 s ( 0.008 ms/b)
<pd|pg>:          540 b            0 skpd (  0.0%)    0.006 s ( 0.012 ms/b)
<pd|ph>:          360 b            0 skpd (  0.0%)    0.005 s ( 0.015 ms/b)
<pd|dd>:          450 b            0 skpd (  0.0%)    0.004 s ( 0.010 ms/b)
<pd|df>:          600 b            0 skpd (  0.0%)    0.009 s ( 0.015 ms/b)
<pd|dg>:          450 b            0 skpd (  0.0%)    0.009 s ( 0.020 ms/b)
<pd|dh>:          300 b            0 skpd (  0.0%)    0.009 s ( 0.030 ms/b)
<pd|ff>:          300 b            0 skpd (  0.0%)    0.007 s ( 0.024 ms/b)
<pd|fg>:          360 b            0 skpd (  0.0%)    0.010 s ( 0.029 ms/b)
<pd|fh>:          240 b            0 skpd (  0.0%)    0.010 s ( 0.042 ms/b)
<pd|gg>:          180 b            0 skpd (  0.0%)    0.007 s ( 0.040 ms/b)
<pd|gh>:          180 b            0 skpd (  0.0%)    0.010 s ( 0.054 ms/b)
<pd|hh>:           90 b            4 skpd (  4.4%)    0.006 s ( 0.068 ms/b)
<pf|pf>:          300 b            0 skpd (  0.0%)    0.004 s ( 0.014 ms/b)
<pf|pg>:          432 b            0 skpd (  0.0%)    0.008 s ( 0.019 ms/b)
<pf|ph>:          288 b            0 skpd (  0.0%)    0.008 s ( 0.027 ms/b)
<pf|dd>:          360 b            0 skpd (  0.0%)    0.005 s ( 0.013 ms/b)
<pf|df>:          480 b            0 skpd (  0.0%)    0.011 s ( 0.023 ms/b)
<pf|dg>:          360 b            1 skpd (  0.3%)    0.010 s ( 0.028 ms/b)
<pf|dh>:          240 b            1 skpd (  0.4%)    0.011 s ( 0.046 ms/b)
<pf|ff>:          240 b            0 skpd (  0.0%)    0.010 s ( 0.041 ms/b)
<pf|fg>:          288 b            0 skpd (  0.0%)    0.013 s ( 0.046 ms/b)
<pf|fh>:          192 b            0 skpd (  0.0%)    0.012 s ( 0.064 ms/b)
<pf|gg>:          144 b            0 skpd (  0.0%)    0.008 s ( 0.057 ms/b)
<pf|gh>:          144 b            0 skpd (  0.0%)    0.011 s ( 0.077 ms/b)
<pf|hh>:           72 b            0 skpd (  0.0%)    0.007 s ( 0.098 ms/b)
<pg|pg>:          171 b            0 skpd (  0.0%)    0.005 s ( 0.028 ms/b)
<pg|ph>:          216 b            0 skpd (  0.0%)    0.010 s ( 0.046 ms/b)
<pg|dd>:          270 b            0 skpd (  0.0%)    0.004 s ( 0.015 ms/b)
<pg|df>:          360 b            0 skpd (  0.0%)    0.009 s ( 0.025 ms/b)
<pg|dg>:          270 b            8 skpd (  3.0%)    0.010 s ( 0.039 ms/b)
<pg|dh>:          180 b            5 skpd (  2.8%)    0.009 s ( 0.054 ms/b)
<pg|ff>:          180 b            0 skpd (  0.0%)    0.008 s ( 0.045 ms/b)
<pg|fg>:          216 b            0 skpd (  0.0%)    0.013 s ( 0.058 ms/b)
<pg|fh>:          144 b            0 skpd (  0.0%)    0.012 s ( 0.081 ms/b)
<pg|gg>:          108 b            2 skpd (  1.9%)    0.009 s ( 0.086 ms/b)
<pg|gh>:          108 b            3 skpd (  2.8%)    0.012 s ( 0.117 ms/b)
<pg|hh>:           54 b            3 skpd (  5.6%)    0.008 s ( 0.161 ms/b)
<ph|ph>:           78 b            0 skpd (  0.0%)    0.005 s ( 0.066 ms/b)
<ph|dd>:          180 b            0 skpd (  0.0%)    0.004 s ( 0.022 ms/b)
<ph|df>:          240 b            0 skpd (  0.0%)    0.009 s ( 0.037 ms/b)
<ph|dg>:          180 b            4 skpd (  2.2%)    0.009 s ( 0.052 ms/b)
<ph|dh>:          120 b           20 skpd ( 16.7%)    0.010 s ( 0.095 ms/b)
<ph|ff>:          120 b            0 skpd (  0.0%)    0.008 s ( 0.067 ms/b)
<ph|fg>:          144 b            0 skpd (  0.0%)    0.012 s ( 0.080 ms/b)
<ph|fh>:           96 b            0 skpd (  0.0%)    0.012 s ( 0.130 ms/b)
<ph|gg>:           72 b            1 skpd (  1.4%)    0.008 s ( 0.117 ms/b)
<ph|gh>:           72 b            9 skpd ( 12.5%)    0.011 s ( 0.172 ms/b)
<ph|hh>:           36 b            2 skpd (  5.6%)    0.008 s ( 0.250 ms/b)
<dd|dd>:          120 b            0 skpd (  0.0%)    0.002 s ( 0.013 ms/b)
<dd|df>:          300 b            0 skpd (  0.0%)    0.006 s ( 0.020 ms/b)
<dd|dg>:          225 b            0 skpd (  0.0%)    0.006 s ( 0.026 ms/b)
<dd|dh>:          150 b            0 skpd (  0.0%)    0.006 s ( 0.041 ms/b)
<dd|ff>:          150 b            0 skpd (  0.0%)    0.005 s ( 0.032 ms/b)
<dd|fg>:          180 b            0 skpd (  0.0%)    0.007 s ( 0.038 ms/b)
<dd|fh>:          120 b            0 skpd (  0.0%)    0.007 s ( 0.056 ms/b)
<dd|gg>:           90 b            0 skpd (  0.0%)    0.005 s ( 0.053 ms/b)
<dd|gh>:           90 b            0 skpd (  0.0%)    0.007 s ( 0.074 ms/b)
<dd|hh>:           45 b            0 skpd (  0.0%)    0.005 s ( 0.106 ms/b)
<df|df>:          210 b            0 skpd (  0.0%)    0.007 s ( 0.032 ms/b)
<df|dg>:          300 b            0 skpd (  0.0%)    0.012 s ( 0.040 ms/b)
<df|dh>:          200 b            0 skpd (  0.0%)    0.013 s ( 0.064 ms/b)
<df|ff>:          200 b            0 skpd (  0.0%)    0.012 s ( 0.058 ms/b)
<df|fg>:          240 b            0 skpd (  0.0%)    0.016 s ( 0.066 ms/b)
<df|fh>:          160 b            1 skpd (  0.6%)    0.015 s ( 0.094 ms/b)
<df|gg>:          120 b            0 skpd (  0.0%)    0.011 s ( 0.089 ms/b)
<df|gh>:          120 b            1 skpd (  0.8%)    0.015 s ( 0.125 ms/b)
<df|hh>:           60 b            8 skpd ( 13.3%)    0.009 s ( 0.170 ms/b)
<dg|dg>:          120 b            0 skpd (  0.0%)    0.008 s ( 0.068 ms/b)
<dg|dh>:          150 b            0 skpd (  0.0%)    0.014 s ( 0.092 ms/b)
<dg|ff>:          150 b            0 skpd (  0.0%)    0.011 s ( 0.074 ms/b)
<dg|fg>:          180 b            2 skpd (  1.1%)    0.017 s ( 0.096 ms/b)
<dg|fh>:          120 b            1 skpd (  0.8%)    0.016 s ( 0.131 ms/b)
<dg|gg>:           90 b            0 skpd (  0.0%)    0.012 s ( 0.139 ms/b)
<dg|gh>:           90 b            0 skpd (  0.0%)    0.017 s ( 0.189 ms/b)
<dg|hh>:           45 b            0 skpd (  0.0%)    0.011 s ( 0.254 ms/b)
<dh|dh>:           55 b            0 skpd (  0.0%)    0.008 s ( 0.139 ms/b)
<dh|ff>:          100 b            0 skpd (  0.0%)    0.010 s ( 0.104 ms/b)
<dh|fg>:          120 b            1 skpd (  0.8%)    0.015 s ( 0.126 ms/b)
<dh|fh>:           80 b           45 skpd ( 56.2%)    0.008 s ( 0.233 ms/b)
<dh|gg>:           60 b            0 skpd (  0.0%)    0.011 s ( 0.184 ms/b)
<dh|gh>:           60 b            0 skpd (  0.0%)    0.017 s ( 0.289 ms/b)
<dh|hh>: done
<ff|ff>:           55 b            0 skpd (  0.0%)    0.005 s ( 0.090 ms/b)
<ff|fg>:          120 b            0 skpd (  0.0%)    0.013 s ( 0.110 ms/b)
<ff|fh>:           80 b            0 skpd (  0.0%)    0.013 s ( 0.163 ms/b)
<ff|gg>:           60 b            0 skpd (  0.0%)    0.009 s ( 0.153 ms/b)
<ff|gh>:           60 b            0 skpd (  0.0%)    0.013 s ( 0.220 ms/b)
<ff|hh>:           30 b            0 skpd (  0.0%)    0.009 s ( 0.315 ms/b)
<fg|fg>:           78 b            0 skpd (  0.0%)    0.015 s ( 0.192 ms/b)
<fg|fh>:           96 b            0 skpd (  0.0%)    0.024 s ( 0.253 ms/b)
<fg|gg>:           72 b            0 skpd (  0.0%)    0.018 s ( 0.253 ms/b)
<fg|gh>:           72 b            1 skpd (  1.4%)    0.026 s ( 0.365 ms/b)
<fg|hh>:           36 b            4 skpd ( 11.1%)    0.015 s ( 0.483 ms/b)
<fh|fh>:           36 b            0 skpd (  0.0%)    0.014 s ( 0.392 ms/b)
<fh|gg>:           48 b            0 skpd (  0.0%)    0.016 s ( 0.329 ms/b)
<fh|gh>:           48 b           15 skpd ( 31.2%)    0.018 s ( 0.553 ms/b)
<fh|hh>:           24 b            2 skpd (  8.3%)    0.016 s ( 0.710 ms/b)
<gg|gg>:           21 b            0 skpd (  0.0%)    0.011 s ( 0.526 ms/b)
<gg|gh>:           36 b            0 skpd (  0.0%)    0.023 s ( 0.634 ms/b)
<gg|hh>:           18 b            0 skpd (  0.0%)    0.015 s ( 0.829 ms/b)
<gh|gh>:           21 b            0 skpd (  0.0%)    0.024 s ( 1.151 ms/b)
<gh|hh>: done
<hh|hh>: done
Recanonicalizing the internal orbitals
Recanonicalizing the virtual orbitals
Time needed for Fock operator              ...            1.730 sec
Reference energy                           ...    -24.533130354
Warning: for UHF the TrafoType has to be JK
Warning: for UHF the K(C)-option cannot be MO but must be AOX

-------------------------------
PARTIAL EXCHANGE TRANSFORMATION
-------------------------------

Transformation type                        ... two-operators
Generation of integrals (i,mue|j,nue)      ... ON
Generation of integrals (mue,kappa|nue,tau)... ON
Generation of integrals (i,mue|a,nue)      ... ON
Dimension of the basis                     ...  127
Number of internal alpha-MOs               ...    2 (   1-   2)
Number of internal beta-MOs                ...    1 (   1-   1)
Number of external alpha-MOs               ...  124 (   3- 126)
Number of external beta-MOs                ...  125 (   2- 126)
Pair cutoff                                ... 0.000e+00 Eh
Number of AO pairs in the trafo            ... 8128
Total Number of distinct AO pairs          ... 8128
Memory devoted for trafo                   ... 2500.0 MB 
Max. Number of MO pairs treated together   ... 20316      
Number Format for Storage                  ... Double (8 Byte)
Integral package used                      ... LIBINT

Starting integral evaluation:
    ... done with AO integral generation
Closing buffer AOK[aa] ( 0.00 GB; CompressionRatio= 0.73)
Closing buffer AOK[bb] ( 0.00 GB; CompressionRatio= 0.40)
Closing buffer AOK[ab] ( 0.00 GB; CompressionRatio= 0.57)
Closing buffer AOK[ba] ( 0.00 GB; CompressionRatio= 0.57)
Collecting buffer AOK 
Closing buffer IAAO1[aa] ( 0.00 GB; CompressionRatio= 0.99)
Closing buffer IAAO1[bb] ( 0.00 GB; CompressionRatio= 0.99)
Closing buffer IAAO1[ab] ( 0.00 GB; CompressionRatio= 0.99)
Closing buffer IAAO1[ba] ( 0.00 GB; CompressionRatio= 0.99)
Closing buffer IAAO2[aa] ( 0.00 GB; CompressionRatio= 0.99)
Closing buffer IAAO2[bb] ( 0.00 GB; CompressionRatio= 0.99)
Closing buffer IAAO2[ab] ( 0.00 GB; CompressionRatio= 0.99)
Closing buffer IAAO2[ba] ( 0.00 GB; CompressionRatio= 0.99)
Collecting buffer IAAO 
Closing buffer PRQS    ( 0.30 GB; CompressionRatio= 1.00)
Collecting buffer PRQS 
Number of alpha/alpha MO pairs in trafo    ...    3
Number of beta /beta  MO pairs in trafo    ...    1
Number of alpha/ beta MO pairs in trafo    ...    2
------------------------
SORTING OF (i,mue|j,nue)
------------------------

SORTING OF ALPHA/ALPHA PAIRS
IBATCH = 1 of  1
Closing buffer KAO[aa] ( 0.00 GB; CompressionRatio= 1.00)
Collecting buffer KAO 
SORTING OF BETA /BETA  PAIRS
IBATCH = 1 of  1
Closing buffer KAO[bb] ( 0.00 GB; CompressionRatio= 1.00)
Collecting buffer KAO 
SORTING OF ALPHA/BETA  PAIRS
IBATCH = 1 of  1
Closing buffer KAO[ab] ( 0.00 GB; CompressionRatio= 0.999907008462)
Collecting buffer KAO[ab] 
------------------------
SORTING OF (i,mue|a,nue)
------------------------

Number of alpha/alpha (i,a) pairs in trafo  ...  248
Number of beta /beta  (i,a) pairs in trafo  ...  125
Number of alpha/ beta (i,a) pairs in trafo  ...  250
Number of beta /alpha (i,a) pairs in trafo  ...  124
Setting up the alpha/alpha list             ... done
Setting up the beta /beta  list             ... done
Setting up the alpha/beta  list             ... done
Setting up the beta /alpha list             ... done
    ... Now sorting (i,mue|a,nue)integrals
    ... Integrals (i,b|a,c) will be made on the fly
SORTING OF ALPHA/ALPHA PAIRS
IBATCH = 1 of  1
Closing buffer IPAQ[aa]  0.01 GB; CompressionRatio= 1.00)
SORTING OF BETA /BETA  PAIRS
IBATCH = 1 of  1
Closing buffer IPAQ[bb]( 0.00 GB; CompressionRatio= 1.00)
SORTING OF ALPHA/BETA  PAIRS (NMatSort_ab=84)
IBATCH = 1 of  1
Closing buffer IPAQ[ab]( 0.01 GB; CompressionRatio= 1.00)
SORTING OF BETA/ALPHA  PAIRS
IBATCH = 1 of  1
Closing buffer IPAQ[ba]( 0.00 GB; CompressionRatio= 1.00)
N(AO-Batches) Done                         ...     85293 
N(AO-Batches) Skipped                      ...         0 
N(IJ)-pairs Skipped                        ...         0 
TOTAL TIME for half transformation         ...    22.873 sec
AO-integral generation                     ...     3.977 sec
Half transformation                        ...     9.985 sec
K-integral sorting                         ...     0.682 sec
<ss|**>: 
------------------------------
PARTIAL COULOMB TRANSFORMATION
------------------------------

Transformation type                        ... two-operators
Dimension of the basis                     ...  127
Number of internal alpha-MOs               ...    2 (1-2)
Number of internal beta-MOs                ...    1 (1-1)
Pair cutoff                                ... 0.000e+00 Eh
Number of AO pairs included in the trafo   ... 8128
Total Number of distinct AO pairs          ... 8128
Memory devoted for trafo                   ... 2500.0 MB 
Max. Number of MO pairs treated together   ... 40314      
Max. Number of MOs treated per batch       ...  317      
Number Format for Storage                  ... Double (8 Byte)
AO-integral source                         ... DIRECT
Integral package used                      ... LIBINT

Starting integral evaluation:
<sp|**>:        10584 b        0 skpd     0.032 s (  0.003 ms/b)
       15876 b        0 skpd     0.082 s (  0.005 ms/b)
<sd|**>: <sf|**>:        13230 b        0 skpd     0.100 s (  0.008 ms/b)
       10584 b        0 skpd     0.157 s (  0.015 ms/b)
<sg|**>:         7938 b        0 skpd     0.201 s (  0.025 ms/b)
<sh|**>: <pp|**>:         5292 b        0 skpd     0.260 s (  0.049 ms/b)
        7938 b        0 skpd     0.079 s (  0.010 ms/b)
<pd|**>:        11340 b        0 skpd     0.204 s (  0.018 ms/b)
<pf|**>:         9072 b        0 skpd     0.236 s (  0.026 ms/b)
<pg|**>:         6804 b        0 skpd     0.299 s (  0.044 ms/b)
<ph|**>:         4536 b        0 skpd     0.267 s (  0.059 ms/b)
<dd|**>:         5670 b        0 skpd     0.186 s (  0.033 ms/b)
<df|**>:         7560 b        0 skpd     0.404 s (  0.054 ms/b)
<dg|**>:         5670 b        0 skpd     0.442 s (  0.078 ms/b)
<dh|**>:         3780 b        0 skpd     0.346 s (  0.091 ms/b)
<ff|**>:         3780 b        0 skpd     0.337 s (  0.089 ms/b)
<fg|**>:         4536 b        0 skpd     0.564 s (  0.124 ms/b)
<fh|**>:         3024 b        0 skpd     0.533 s (  0.176 ms/b)
<gg|**>:         2268 b        0 skpd     0.320 s (  0.141 ms/b)
<gh|**>:         2268 b        0 skpd     0.491 s (  0.217 ms/b)
<hh|**>:         1134 b        0 skpd     0.305 s (  0.269 ms/b)
Closing buffer AOJ[aa] ( 0.00 GB; CompressionRatio= 0.67)
Closing buffer AOJ[bb] ( 0.00 GB; CompressionRatio= 0.00)
Collecting buffer AOJ 
    ... done with AO integral generation
Number of Alpha-MO pairs included          ...    3
Number of Beta-MO pairs included           ...    1
    ... Now sorting integrals
SORTING ALPHA/ALPHA PAIRS
IBATCH = 1 of  1
Closing buffer JAO[aa] ( 0.00 GB; CompressionRatio= 1.00)
SORTING BETA/BETA PAIRS
IBATCH = 1 of  1
Closing buffer JAO[bb] ( 0.00 GB; CompressionRatio= 1.00)
Collecting buffer JAO 
TOTAL TIME for half transformation         ...     5.894 sec
AO-integral generation                     ...     3.880 sec
Half transformation                        ...     1.973 sec
J-integral sorting                         ...     0.028 sec

-------------------------- SECOND HALF TRANSFORMATION -------------------------
Formation of (ij|kl),(ij|ka), (ij|ab)      ... ok (     0.023 sec)
Formation of (ik|jl),(ik|ja), (ia|jb)      ... ok (     0.032 sec)


-----------------------
SPIN UNRESTRICTED GUESS
-----------------------

Entering MDCI_UHF_Guess, Tailored=0
Spin-components of the MP2 energy:
EMP2(aa)=     -0.003491579
EMP2(bb)=      0.000000000
EMP2(ab)=     -0.044855292

Initial guess performed in     0.001 sec
E(0)                                       ...    -24.533130354
E(MP2)                                     ...     -0.048346870
Initial E(tot)                             ...    -24.581477224
<T|T>                                      ...      0.026818147
Number of pairs included                   ... 3

------------------------------------------------
                  UHF COUPLED CLUSTER ITERATIONS
------------------------------------------------

Number of amplitudes to be optimized       ...        38874

Iter       E(tot)           E(Corr)          Delta-E          Residual     Time      <S|S>**1/2
  0    -24.581477224     -0.048346870     -0.000000000      0.014742963    1.63      0.000000326
                           *** Turning on DIIS ***
  1    -24.589922919     -0.056792566     -0.008445695      0.009181962    2.14      0.010701203
  2    -24.596960921     -0.063830568     -0.007038002      0.003654357    1.99      0.020227546
  3    -24.599774673     -0.066644319     -0.002813751      0.000781914    1.99      0.025607285
  4    -24.600021819     -0.066891465     -0.000247146      0.000186827    1.97      0.026788094
  5    -24.600105552     -0.066975199     -0.000083733      0.000042570    1.98      0.027000585
  6    -24.600097783     -0.066967429      0.000007769      0.000016742    1.96      0.026979621
  7    -24.600099214     -0.066968861     -0.000001431      0.000005246    1.98      0.026975145
               --- The Coupled-Cluster iterations have converged ---

----------------------
COUPLED CLUSTER ENERGY
----------------------

E(0)                                       ...    -24.533130354
E(CORR)                                    ...     -0.066968861
E(TOT)                                     ...    -24.600099214
Singles norm <S|S>**1/2                    ...      0.026975145 ( 0.019021324, 0.007953821)  
T1 diagnostic                              ...      0.015574107                              

------------------
LARGEST AMPLITUDES
------------------
   1a->  7a   1b->  6b       0.061261
   1a->  8a   1b->  7b       0.061261
   1a->  7a   1b-> 15b       0.048732
   1a->  8a   1b-> 14b       0.048732
   1a->  4a   1b->  7b       0.048321
   1a->  3a   1b->  6b       0.048321
   1a-> 15a   1b->  7b       0.043422
   1a-> 16a   1b->  6b       0.043422
   1a->  4a   1b-> 14b       0.039555
   1a->  3a   1b-> 15b       0.039555
   1a-> 15a   1b-> 14b       0.036410
   1a-> 16a   1b-> 15b       0.036410
   2a-> 25a   1b->  8b       0.036149
   1a->  7a   1b->  2b       0.033155
   1a->  8a   1b->  3b       0.033155
   1a->  8a   1b->  6b       0.032648

----------------------
UHF TRIPLES CORRECTION (Algorithm 1)
----------------------

Multiplier for the singles contribution    ...      1.000000000

SPIN-CASE Alpha-Alpha-Alpha:

SPIN-CASE Beta-Beta-Beta:

SPIN-CASE Alpha-Alpha-Beta:
10% done
20% done
30% done
40% done
50% done
60% done
70% done
80% done
90% done


SPIN-CASE Beta-Beta-Alpha:

Triples Correction (T)                     ...     -0.001504249
    alpha-alpha-alpha ...  0.000000000 ( -0.0%)
    alpha-alpha-beta  ... -0.001504249 (100.0%)
    alpha-beta -beta  ...  0.000000000 ( -0.0%)
    beta -beta -beta  ...  0.000000000 ( -0.0%)
Scaling of triples based on CCSD energies (Peterson et al. Molecular Physics 113, 1551 (2015))
E(T*) = f*E(T) where f = E(F12-CCSD)/E(CCSD) 
f = CCSD (with F12)/ CCSD (without F12)    ...      1.000000000
Scaled triples correction (T)              ...     -0.001504249

Final correlation energy                   ...     -0.068473109
E(CCSD)                                    ...    -24.600099214
E(CCSD(T))                                 ...    -24.601603463



        !!!!!!!!!!!!!!!!!!!!!!!!!!!!!!!!!!!!!!!!!!!!!!!!!!!!!!!!!!!!!!!!!!!!!!!!!! 
        !  Warning: Densities are linearized densities                           !
        !!!!!!!!!!!!!!!!!!!!!!!!!!!!!!!!!!!!!!!!!!!!!!!!!!!!!!!!!!!!!!!!!!!!!!!!!! 

NORM  =      1.072425835 sqrt=     1.035579951
W(HF) =      0.932465414
------------------------------------------------------------------------------
                           ORCA POPULATION ANALYSIS
------------------------------------------------------------------------------
Input electron density              ... 05_B.mdcip
Input spin density                  ... 05_B.mdcir
BaseName (.gbw .S,...)              ... 05_B

                    ********************************
                    * MULLIKEN POPULATION ANALYSIS *
                    ********************************

------------------------------------------
MULLIKEN ATOMIC CHARGES AND SPIN DENSITIES
------------------------------------------
   0 B :    0.000000    1.000000
Sum of atomic charges       :    0.0000000
Sum of atomic spin densities:    1.0000000

---------------------------------------------------
MULLIKEN REDUCED ORBITAL CHARGES AND SPIN DENSITIES
---------------------------------------------------
CHARGE
  0 B s       :     3.883778  s :     3.883778
      pz      :     0.051748  p :     1.094342
      px      :     0.051748
      py      :     0.990846
      dz2     :     0.002168  d :     0.020960
      dxz     :     0.000226
      dyz     :     0.006257
      dx2y2   :     0.006052
      dxy     :     0.006257
      f0      :     0.000078  f :     0.000784
      f+1     :     0.000030
      f-1     :     0.000137
      f+2     :     0.000116
      f-2     :     0.000098
      f+3     :     0.000164
      f-3     :     0.000162
      g0      :     0.000009  g :     0.000112
      g+1     :     0.000005
      g-1     :     0.000014
      g+2     :     0.000011
      g-2     :     0.000011
      g+3     :     0.000013
      g-3     :     0.000013
      g+4     :     0.000017
      g-4     :     0.000017
      h0      :     0.000002  h :     0.000024
      h+1     :     0.000001
      h-1     :     0.000002
      h+2     :     0.000002
      h-2     :     0.000002
      h+3     :     0.000002
      h-3     :     0.000002
      h+4     :     0.000002
      h-4     :     0.000002
      h+5     :     0.000003
      h-5     :     0.000003

SPIN
  0 B s       :     0.016877  s :     0.016877
      pz      :    -0.001823  p :     0.973191
      px      :    -0.001823
      py      :     0.976837
      dz2     :     0.000964  d :     0.009507
      dxz     :    -0.000022
      dyz     :     0.002815
      dx2y2   :     0.002935
      dxy     :     0.002815
      f0      :     0.000034  f :     0.000385
      f+1     :     0.000004
      f-1     :     0.000070
      f+2     :     0.000058
      f-2     :     0.000043
      f+3     :     0.000088
      f-3     :     0.000088
      g0      :     0.000002  g :     0.000033
      g+1     :     0.000000
      g-1     :     0.000005
      g+2     :     0.000003
      g-2     :     0.000003
      g+3     :     0.000004
      g-3     :     0.000004
      g+4     :     0.000006
      g-4     :     0.000006
      h0      :     0.000000  h :     0.000007
      h+1     :     0.000000
      h-1     :     0.000001
      h+2     :     0.000000
      h-2     :     0.000000
      h+3     :     0.000001
      h-3     :     0.000001
      h+4     :     0.000001
      h-4     :     0.000001
      h+5     :     0.000001
      h-5     :     0.000001


                     *******************************
                     * LOEWDIN POPULATION ANALYSIS *
                     *******************************

-----------------------------------------
LOEWDIN ATOMIC CHARGES AND SPIN DENSITIES
-----------------------------------------
   0 B :    0.000000    1.000000

--------------------------------------------------
LOEWDIN REDUCED ORBITAL CHARGES AND SPIN DENSITIES
--------------------------------------------------
CHARGE
  0 B s       :     3.883778  s :     3.883778
      pz      :     0.051748  p :     1.094342
      px      :     0.051748
      py      :     0.990846
      dz2     :     0.002168  d :     0.020960
      dxz     :     0.000226
      dyz     :     0.006257
      dx2y2   :     0.006052
      dxy     :     0.006257
      f0      :     0.000078  f :     0.000784
      f+1     :     0.000030
      f-1     :     0.000137
      f+2     :     0.000116
      f-2     :     0.000098
      f+3     :     0.000164
      f-3     :     0.000162
      g0      :     0.000009  g :     0.000112
      g+1     :     0.000005
      g-1     :     0.000014
      g+2     :     0.000011
      g-2     :     0.000011
      g+3     :     0.000013
      g-3     :     0.000013
      g+4     :     0.000017
      g-4     :     0.000017
      h0      :     0.000002  h :     0.000024
      h+1     :     0.000001
      h-1     :     0.000002
      h+2     :     0.000002
      h-2     :     0.000002
      h+3     :     0.000002
      h-3     :     0.000002
      h+4     :     0.000002
      h-4     :     0.000002
      h+5     :     0.000003
      h-5     :     0.000003

SPIN
  0 B s       :     0.016877  s :     0.016877
      pz      :    -0.001823  p :     0.973191
      px      :    -0.001823
      py      :     0.976837
      dz2     :     0.000964  d :     0.009507
      dxz     :    -0.000022
      dyz     :     0.002815
      dx2y2   :     0.002935
      dxy     :     0.002815
      f0      :     0.000034  f :     0.000385
      f+1     :     0.000004
      f-1     :     0.000070
      f+2     :     0.000058
      f-2     :     0.000043
      f+3     :     0.000088
      f-3     :     0.000088
      g0      :     0.000002  g :     0.000033
      g+1     :     0.000000
      g-1     :     0.000005
      g+2     :     0.000003
      g-2     :     0.000003
      g+3     :     0.000004
      g-3     :     0.000004
      g+4     :     0.000006
      g-4     :     0.000006
      h0      :     0.000000  h :     0.000007
      h+1     :     0.000000
      h-1     :     0.000001
      h+2     :     0.000000
      h-2     :     0.000000
      h+3     :     0.000001
      h-3     :     0.000001
      h+4     :     0.000001
      h-4     :     0.000001
      h+5     :     0.000001
      h-5     :     0.000001


                      *****************************
                      * MAYER POPULATION ANALYSIS *
                      *****************************

  NA   - Mulliken gross atomic population
  ZA   - Total nuclear charge
  QA   - Mulliken gross atomic charge
  VA   - Mayer's total valence
  BVA  - Mayer's bonded valence
  FA   - Mayer's free valence

  ATOM       NA         ZA         QA         VA         BVA        FA
  0 B      5.0000     5.0000     0.0000     1.5021     0.0000     1.5021





------------------------------------------------------------------------------- 
                                     TIMINGS                                   
------------------------------------------------------------------------------- 


Total execution time                   ...       46.877 sec

Fock Matrix Formation                  ...        1.730 sec (  3.7%)
Initial Guess                          ...        0.001 sec (  0.0%)
DIIS Solver                            ...        0.015 sec (  0.0%)
State Vector Update                    ...        0.001 sec (  0.0%)
Sigma-vector construction              ...       15.628 sec ( 33.3%)
  <D|H|D>(2-ext Fock)                  ...        0.001 sec (  0.0% of sigma)
  <D|H|D>(2-ext)                       ...        0.007 sec (  0.0% of sigma)
  <D|H|D>(4-ext)                       ...        7.258 sec ( 46.4% of sigma)
  <S|H|0>                              ...        0.015 sec (  0.1% of sigma)
  <D|H|S>(1-ext)                       ...        0.004 sec (  0.0% of sigma)
  Fock-dressing                        ...        7.775 sec ( 49.7% of sigma)
  (ik|jl)-dressing                     ...        0.001 sec (  0.0% of sigma)
  (ij|ab),(ia|jb)-dressing             ...        0.390 sec (  2.5% of sigma)
Total Time for computing (T)           ...        0.277 sec (  0.6% of ALL)
  I/O of integral and amplitudes       ...        0.069 sec ( 25.0% of (T))
  External N**7 contributions          ...        0.047 sec ( 17.0% of (T))
  Internal N**7 contributions          ...        0.011 sec (  4.0% of (T))
  N**6 triples energy contributions    ...        0.054 sec ( 19.5% of (T))


-------------------------   --------------------
FINAL SINGLE POINT ENERGY       -24.601603462999
-------------------------   --------------------


                            ***************************************
                            *     ORCA property calculations      *
                            ***************************************

                                    ---------------------
                                    Active property flags
                                    ---------------------
   (+) Dipole Moment


------------------------------------------------------------------------------
                       ORCA ELECTRIC PROPERTIES CALCULATION
------------------------------------------------------------------------------

Dipole Moment Calculation                       ... on
Quadrupole Moment Calculation                   ... off
Polarizability Calculation                      ... off
GBWName                                         ... 05_B.gbw
Electron density file                           ... 05_B.scfp
The origin for moment calculation is the CENTER OF MASS  = ( 0.000000,  0.000000  0.000000)

-------------
DIPOLE MOMENT
-------------
                                X             Y             Z
Electronic contribution:     -0.00000      -0.00000      -0.00000
Nuclear contribution   :      0.00000       0.00000       0.00000
                        -----------------------------------------
Total Dipole Moment    :     -0.00000      -0.00000      -0.00000
                        -----------------------------------------
Magnitude (a.u.)       :      0.00000
Magnitude (Debye)      :      0.00000



--------------------
Rotational spectrum 
--------------------
 
Rotational constants in cm-1:     0.000000     0.000000     0.000000 
Rotational constants in MHz :     0.000000     0.000000     0.000000 

 Dipole components along the rotational axes: 
x,y,z [a.u.] :    -0.000000    -0.000000    -0.000000 
x,y,z [Debye]:    -0.000000    -0.000000    -0.000000 

 

                           *** MDCI DENSITY ***

------------------------------------------------------------------------------
                       ORCA ELECTRIC PROPERTIES CALCULATION
------------------------------------------------------------------------------

Dipole Moment Calculation                       ... on
Quadrupole Moment Calculation                   ... off
Polarizability Calculation                      ... off
GBWName                                         ... 05_B.gbw
Electron density file                           ... 05_B.mdcip
The origin for moment calculation is the CENTER OF MASS  = ( 0.000000,  0.000000  0.000000)

-------------
DIPOLE MOMENT
-------------
                                X             Y             Z
Electronic contribution:      0.00000      -0.00000       0.00000
Nuclear contribution   :      0.00000       0.00000       0.00000
                        -----------------------------------------
Total Dipole Moment    :      0.00000      -0.00000       0.00000
                        -----------------------------------------
Magnitude (a.u.)       :      0.00000
Magnitude (Debye)      :      0.00000



--------------------
Rotational spectrum 
--------------------
 
Rotational constants in cm-1:     0.000000     0.000000     0.000000 
Rotational constants in MHz :     0.000000     0.000000     0.000000 

 Dipole components along the rotational axes: 
x,y,z [a.u.] :     0.000000    -0.000000     0.000000 
x,y,z [Debye]:     0.000000    -0.000000     0.000000 

 

Timings for individual modules:

Sum of individual times         ...       63.104 sec (=   1.052 min)
GTO integral calculation        ...        1.016 sec (=   0.017 min)   1.6 %
SCF iterations                  ...       14.009 sec (=   0.233 min)  22.2 %
MDCI module                     ...       48.079 sec (=   0.801 min)  76.2 %
                             ****ORCA TERMINATED NORMALLY****
TOTAL RUN TIME: 0 days 0 hours 1 minutes 3 seconds 984 msec
