
                                 *****************
                                 * O   R   C   A *
                                 *****************

           --- An Ab Initio, DFT and Semiempirical electronic structure package ---

                  #######################################################
                  #                        -***-                        #
                  #          Department of theory and spectroscopy      #
                  #               Directorship: Frank Neese             #
                  #        Max Planck Institute fuer Kohlenforschung    #
                  #                Kaiser Wilhelm Platz 1               #
                  #                 D-45470 Muelheim/Ruhr               #
                  #                      Germany                        #
                  #                                                     #
                  #                  All rights reserved                #
                  #                        -***-                        #
                  #######################################################


                         Program Version 4.2.0 -  RELEASE  -


 With contributions from (in alphabetic order):
   Daniel Aravena         : Magnetic Suceptibility
   Michael Atanasov       : Ab Initio Ligand Field Theory (pilot matlab implementation)
   Alexander A. Auer      : GIAO ZORA, VPT2
   Ute Becker             : Parallelization
   Giovanni Bistoni       : ED, misc. LED, open-shell LED, HFLED
   Martin Brehm           : Molecular dynamics
   Dmytro Bykov           : SCF Hessian
   Vijay G. Chilkuri      : MRCI spin determinant printing, contributions to CSF-ICE
   Dipayan Datta          : RHF DLPNO-CCSD density
   Achintya Kumar Dutta   : EOM-CC, STEOM-CC
   Dmitry Ganyushin       : Spin-Orbit,Spin-Spin,Magnetic field MRCI
   Miquel Garcia          : C-PCM Hessian, Gaussian charge scheme
   Yang Guo               : DLPNO-NEVPT2, CIM, IAO-localization
   Andreas Hansen         : Spin unrestricted coupled pair/coupled cluster methods
   Benjamin Helmich-Paris : CASSCF linear response (MC-RPA)
   Lee Huntington         : MR-EOM, pCC
   Robert Izsak           : Overlap fitted RIJCOSX, COSX-SCS-MP3, EOM
   Christian Kollmar      : KDIIS, OOCD, Brueckner-CCSD(T), CCSD density
   Simone Kossmann        : Meta GGA functionals, TD-DFT gradient, OOMP2, MP2 Hessian
   Martin Krupicka        : AUTO-CI
   Lucas Lang             : DCDCAS
   Dagmar Lenk            : GEPOL surface, SMD
   Dimitrios Liakos       : Extrapolation schemes; Compound Job, initial MDCI parallelization
   Dimitrios Manganas     : Further ROCIS development; embedding schemes
   Dimitrios Pantazis     : SARC Basis sets
   Taras Petrenko         : DFT Hessian,TD-DFT gradient, ASA, ECA, R-Raman, ABS, FL, XAS/XES, NRVS
   Peter Pinski           : DLPNO-MP2, DLPNO-MP2 Gradient
   Christoph Reimann      : Effective Core Potentials
   Marius Retegan         : Local ZFS, SOC
   Christoph Riplinger    : Optimizer, TS searches, QM/MM, DLPNO-CCSD(T), (RO)-DLPNO pert. Triples
   Tobias Risthaus        : Range-separated hybrids, TD-DFT gradient, RPA, STAB
   Michael Roemelt        : Original ROCIS implementation
   Masaaki Saitow         : Open-shell DLPNO-CCSD energy and density
   Barbara Sandhoefer     : DKH picture change effects
   Avijit Sen             : IP-ROCIS
   Kantharuban Sivalingam : CASSCF convergence, NEVPT2, FIC-MRCI
   Bernardo de Souza      : ESD, SOC TD-DFT
   Georgi Stoychev        : AutoAux, RI-MP2 NMR
   Willem Van den Heuvel  : Paramagnetic NMR
   Boris Wezisla          : Elementary symmetry handling
   Frank Wennmohs         : Technical directorship


 We gratefully acknowledge several colleagues who have allowed us to
 interface, adapt or use parts of their codes:
   Stefan Grimme, W. Hujo, H. Kruse,             : VdW corrections, initial TS optimization,
                  C. Bannwarth                     DFT functionals, gCP, sTDA/sTD-DF
   Ed Valeev, F. Pavosevic, A. Kumar             : LibInt (2-el integral package), F12 methods
   Garnet Chan, S. Sharma, J. Yang, R. Olivares  : DMRG
   Ulf Ekstrom                                   : XCFun DFT Library
   Mihaly Kallay                                 : mrcc  (arbitrary order and MRCC methods)
   Andreas Klamt, Michael Diedenhofen            : otool_cosmo (COSMO solvation model)
   Jiri Pittner, Ondrej Demel                    : Mk-CCSD
   Frank Weinhold                                : gennbo (NPA and NBO analysis)
   Christopher J. Cramer and Donald G. Truhlar   : smd solvation model
   Lars Goerigk                                  : TD-DFT with DH, B97 family of functionals
   V. Asgeirsson, H. Jonsson                     : NEB implementation
   FAccTs GmbH                                   : IRC, NEB, NEB-TS, Multilevel, MM, QM/MM, CI optimization
   S Lehtola, MJT Oliveira, MAL Marques          : LibXC Library


 Your calculation uses the libint2 library for the computation of 2-el integrals
 For citations please refer to: http://libint.valeyev.net

 Your ORCA version has been built with support for libXC version: 4.2.3
 For citations please refer to: https://tddft.org/programs/libxc/

 This ORCA versions uses:
   CBLAS   interface :  Fast vector & matrix operations
   LAPACKE interface :  Fast linear algebra routines
   SCALAPACK package :  Parallel linear algebra routines


Setting NCore(Mg) from 2 to 10
----- Orbital basis set information -----
Your calculation utilizes the basis: aug-cc-pV(5+d)Z 
             Al - Ar: T.H. Dunning, Jr., K. A. Peterson and A. K. Wilson, J. Chem. Phys.
                      114, 9244 (2001)

================================================================================
                                        WARNINGS
                       Please study these warnings very carefully!
================================================================================


WARNING: MDCI localization with Augmented Hessian Foster-Boys
  ===> : Switching off randomization!

WARNING: Post HF methods need fully converged wavefunctions
  ===> : Setting SCFConvForced true
         You can overwrite this default with %scf ConvForced false 


INFO   : the flag for use of LIBINT has been found!

================================================================================
                                       INPUT FILE
================================================================================
NAME = 12_Mg.in
|  1> #
|  2> # 12_Mg CCSD(T)/aug-cc-pv5(+d)z
|  3> #
|  4> ! CCSD(T) aug-cc-pv5(+d)z tightscf
|  5> 
|  6> *xyz 0 1
|  7>  Mg 0.0 0.0 0.0
|  8> *
|  9> 
| 10> %maxcore 5000 
| 11> 
| 12> %pal
| 13> nprocs 1
| 14> end
| 15> 
| 16> %method
| 17> NewNCore Mg 10 end
| 18> end
| 19> 
| 20> 
| 21>                          ****END OF INPUT****
================================================================================

                       ****************************
                       * Single Point Calculation *
                       ****************************

---------------------------------
CARTESIAN COORDINATES (ANGSTROEM)
---------------------------------
  Mg     0.000000    0.000000    0.000000

----------------------------
CARTESIAN COORDINATES (A.U.)
----------------------------
  NO LB      ZA    FRAG     MASS         X           Y           Z
   0 Mg   12.0000    0    24.305    0.000000    0.000000    0.000000

--------------------------------
INTERNAL COORDINATES (ANGSTROEM)
--------------------------------
 Mg     0   0   0     0.000000000000     0.00000000     0.00000000

---------------------------
INTERNAL COORDINATES (A.U.)
---------------------------
 Mg     0   0   0     0.000000000000     0.00000000     0.00000000

---------------------
BASIS SET INFORMATION
---------------------
There are 1 groups of distinct atoms

 Group   1 Type Mg  : 53s25p5d4f3g2h contracted to 8s7p5d4f3g2h pattern {16161611111/101011111/11111/1111/111/11}

Atom   0Mg   basis set group =>   1
------------------------------------------------------------------------------
                           ORCA GTO INTEGRAL CALCULATION
------------------------------------------------------------------------------

                         BASIS SET STATISTICS AND STARTUP INFO

 # of primitive gaussian shells          ...   92
 # of primitive gaussian functions       ...  230
 # of contracted shells                  ...   29
 # of contracted basis functions         ...  131
 Highest angular momentum                ...    5
 Maximum contraction depth               ...   16
 Integral package used                   ... LIBINT
 Integral threshhold            Thresh   ...  2.500e-11
 Primitive cut-off              TCut     ...  2.500e-12


------------------------------ INTEGRAL EVALUATION ----------------------------


 * One electron integrals 
 Pre-screening matrix                    ... done
 Shell pair data                         ... done (   0.000 sec)

-------------------------------------------------------------------------------
                                 ORCA SCF
-------------------------------------------------------------------------------

------------
SCF SETTINGS
------------
Hamiltonian:
 Ab initio Hamiltonian  Method          .... Hartree-Fock(GTOs)


General Settings:
 Integral files         IntName         .... 12_Mg
 Hartree-Fock type      HFTyp           .... RHF
 Total Charge           Charge          ....    0
 Multiplicity           Mult            ....    1
 Number of Electrons    NEL             ....   12
 Basis Dimension        Dim             ....  131
 Nuclear Repulsion      ENuc            ....      0.0000000000 Eh

Convergence Acceleration:
 DIIS                   CNVDIIS         .... on
   Start iteration      DIISMaxIt       ....    12
   Startup error        DIISStart       ....  0.200000
   # of expansion vecs  DIISMaxEq       ....     5
   Bias factor          DIISBfac        ....   1.050
   Max. coefficient     DIISMaxC        ....  10.000
 Newton-Raphson         CNVNR           .... off
 SOSCF                  CNVSOSCF        .... on
   Start iteration      SOSCFMaxIt      ....   150
   Startup grad/error   SOSCFStart      ....  0.003300
 Level Shifting         CNVShift        .... on
   Level shift para.    LevelShift      ....    0.2500
   Turn off err/grad.   ShiftErr        ....    0.0010
 Zerner damping         CNVZerner       .... off
 Static damping         CNVDamp         .... on
   Fraction old density DampFac         ....    0.7000
   Max. Damping (<1)    DampMax         ....    0.9800
   Min. Damping (>=0)   DampMin         ....    0.0000
   Turn off err/grad.   DampErr         ....    0.1000
 Fernandez-Rico         CNVRico         .... off

SCF Procedure:
 Maximum # iterations   MaxIter         ....   125
 SCF integral mode      SCFMode         .... Direct
   Integral package                     .... LIBINT
 Reset frequency        DirectResetFreq ....    20
 Integral Threshold     Thresh          ....  2.500e-11 Eh
 Primitive CutOff       TCut            ....  2.500e-12 Eh

Convergence Tolerance:
 Convergence Check Mode ConvCheckMode   .... Total+1el-Energy
 Convergence forced     ConvForced      .... 1
 Energy Change          TolE            ....  1.000e-08 Eh
 1-El. energy change                    ....  1.000e-05 Eh
 Orbital Gradient       TolG            ....  1.000e-05
 Orbital Rotation angle TolX            ....  1.000e-05
 DIIS Error             TolErr          ....  5.000e-07


Diagonalization of the overlap matrix:
Smallest eigenvalue                        ... 1.480e-04
Time for diagonalization                   ...    0.005 sec
Threshold for overlap eigenvalues          ... 1.000e-08
Number of eigenvalues below threshold      ... 0
Time for construction of square roots      ...    0.006 sec
Total time needed                          ...    0.011 sec

-------------------
DFT GRID GENERATION
-------------------

General Integration Accuracy     IntAcc      ...  4.340
Radial Grid Type                 RadialGrid  ... Gauss-Chebyshev
Angular Grid (max. acc.)         AngularGrid ... Lebedev-110
Angular grid pruning method      GridPruning ... 3 (G Style)
Weight generation scheme         WeightScheme... Becke
Basis function cutoff            BFCut       ...    1.0000e-11
Integration weight cutoff        WCut        ...    1.0000e-14
Grids for H and He will be reduced by one unit

# of grid points (after initial pruning)     ...   1842 (   0.0 sec)
# of grid points (after weights+screening)   ...   1842 (   0.0 sec)
Grid point division into batches done        ...    0.0 sec
Reduced shell lists constructed in    0.0 sec

Total number of grid points                  ...     1842
Total number of batches                      ...       29
Average number of points per batch           ...       63
Average number of grid points per atom       ...     1842
Average number of shells per batch           ...    27.10 (93.45%)
Average number of basis functions per batch  ...   124.90 (95.34%)
Average number of large shells per batch     ...    26.10 (96.31%)
Average number of large basis fcns per batch ...   122.30 (97.92%)
Maximum spatial batch extension              ...  21.07, 38.78, 38.78 au
Average spatial batch extension              ...   9.63, 11.36, 13.04 au

Time for grid setup =    0.031 sec

------------------------------
INITIAL GUESS: MODEL POTENTIAL
------------------------------
Loading Hartree-Fock densities                     ... done
Calculating cut-offs                               ... done
Setting up the integral package                    ... done
Initializing the effective Hamiltonian             ... done
Starting the Coulomb interaction                   ... done (   0.0 sec)
Reading the grid                                   ... done
Mapping shells                                     ... done
Starting the XC term evaluation                    ... done (   0.0 sec)
Transforming the Hamiltonian                       ... done (   0.0 sec)
Diagonalizing the Hamiltonian                      ... done (   0.0 sec)
Back transforming the eigenvectors                 ... done (   0.0 sec)
Now organizing SCF variables                       ... done
                      ------------------
                      INITIAL GUESS DONE (   0.2 sec)
                      ------------------
--------------
SCF ITERATIONS
--------------
ITER       Energy         Delta-E        Max-DP      RMS-DP      [F,P]     Damp
               ***  Starting incremental Fock matrix formation  ***
  0   -199.6015428403   0.000000000000 0.17596964  0.00276353  0.1042190 0.7000
  1   -199.6053133846  -0.003770544276 0.13241213  0.00207721  0.0729111 0.7000
                               ***Turning on DIIS***
  2   -199.6080000452  -0.002686660544 0.31158844  0.00490635  0.0508712 0.0000
  3   -199.6128812226  -0.004881177398 0.02502240  0.00032524  0.0069711 0.0000
  4   -199.6250648584  -0.012183635833 0.00677729  0.00014045  0.0033862 0.0000
                      *** Initiating the SOSCF procedure ***
                           *** Shutting down DIIS ***
                      *** Re-Reading the Fockian *** 
                      *** Removing any level shift *** 
ITER      Energy       Delta-E        Grad      Rot      Max-DP    RMS-DP
  5   -199.62239799   0.0026668652  0.001190  0.001190  0.006625  0.000077
               *** Restarting incremental Fock matrix formation ***
  6   -199.61460945   0.0077885395  0.000448  0.001398  0.007596  0.000069
  7   -199.61461231  -0.0000028544  0.000147  0.000777  0.004446  0.000039
  8   -199.61461270  -0.0000003932  0.000014  0.000010  0.000055  0.000001
                  ***Gradient check signals convergence***
              ***Rediagonalizing the Fockian in SOSCF/NRSCF***

               *****************************************************
               *                     SUCCESS                       *
               *           SCF CONVERGED AFTER   9 CYCLES          *
               *****************************************************


----------------
TOTAL SCF ENERGY
----------------

Total Energy       :         -199.61461270 Eh           -5431.78976 eV

Components:
Nuclear Repulsion  :            0.00000000 Eh               0.00000 eV
Electronic Energy  :         -199.61461270 Eh           -5431.78976 eV
One Electron Energy:         -279.43082253 Eh           -7603.69925 eV
Two Electron Energy:           79.81620983 Eh            2171.90949 eV

Virial components:
Potential Energy   :         -399.22928931 Eh          -10863.58126 eV
Kinetic Energy     :          199.61467661 Eh            5431.79150 eV
Virial Ratio       :            1.99999968


---------------
SCF CONVERGENCE
---------------

  Last Energy change         ...   -3.1753e-10  Tolerance :   1.0000e-08
  Last MAX-Density change    ...    1.4438e-05  Tolerance :   1.0000e-07
  Last RMS-Density change    ...    2.3097e-07  Tolerance :   5.0000e-09
  Last Orbital Gradient      ...    1.3082e-06  Tolerance :   1.0000e-05
  Last Orbital Rotation      ...    3.3381e-06  Tolerance :   1.0000e-05

             **** THE GBW FILE WAS UPDATED (12_Mg.gbw) ****
             **** DENSITY FILE WAS UPDATED (12_Mg.scfp) ****
             **** ENERGY FILE WAS UPDATED (12_Mg.en.tmp) ****
             **** THE GBW FILE WAS UPDATED (12_Mg.gbw) ****
             **** DENSITY FILE WAS UPDATED (12_Mg.scfp) ****
----------------
ORBITAL ENERGIES
----------------

  NO   OCC          E(Eh)            E(eV) 
   0   2.0000     -49.031736     -1334.2214 
   1   2.0000      -3.767733      -102.5252 
   2   2.0000      -2.282229       -62.1026 
   3   2.0000      -2.282229       -62.1026 
   4   2.0000      -2.282229       -62.1026 
   5   2.0000      -0.253053        -6.8859 
   6   0.0000       0.012795         0.3482 
   7   0.0000       0.012795         0.3482 
   8   0.0000       0.012795         0.3482 
   9   0.0000       0.023188         0.6310 
  10   0.0000       0.037964         1.0331 
  11   0.0000       0.037964         1.0331 
  12   0.0000       0.037964         1.0331 
  13   0.0000       0.105786         2.8786 
  14   0.0000       0.105786         2.8786 
  15   0.0000       0.105786         2.8786 
  16   0.0000       0.110252         3.0001 
  17   0.0000       0.110252         3.0001 
  18   0.0000       0.110252         3.0001 
  19   0.0000       0.110252         3.0001 
  20   0.0000       0.110252         3.0001 
  21   0.0000       0.134413         3.6576 
  22   0.0000       0.231857         6.3092 
  23   0.0000       0.231857         6.3092 
  24   0.0000       0.231857         6.3092 
  25   0.0000       0.231857         6.3092 
  26   0.0000       0.231857         6.3092 
  27   0.0000       0.231857         6.3092 
  28   0.0000       0.231857         6.3092 
  29   0.0000       0.273240         7.4352 
  30   0.0000       0.273240         7.4352 
  31   0.0000       0.273240         7.4352 
  32   0.0000       0.337765         9.1910 
  33   0.0000       0.337765         9.1910 
  34   0.0000       0.337765         9.1910 
  35   0.0000       0.337765         9.1910 
  36   0.0000       0.337765         9.1910 
  37   0.0000       0.475072        12.9274 
  38   0.0000       0.475072        12.9274 
  39   0.0000       0.475072        12.9274 
  40   0.0000       0.475072        12.9274 
  41   0.0000       0.475072        12.9274 
  42   0.0000       0.475072        12.9274 
  43   0.0000       0.475072        12.9274 
  44   0.0000       0.475072        12.9274 
  45   0.0000       0.475072        12.9274 
  46   0.0000       0.504574        13.7301 
  47   0.0000       0.654892        17.8205 
  48   0.0000       0.654892        17.8205 
  49   0.0000       0.654892        17.8205 
  50   0.0000       0.659354        17.9419 
  51   0.0000       0.659354        17.9419 
  52   0.0000       0.659354        17.9419 
  53   0.0000       0.659354        17.9419 
  54   0.0000       0.659354        17.9419 
  55   0.0000       0.659354        17.9419 
  56   0.0000       0.659354        17.9419 
  57   0.0000       0.822991        22.3947 
  58   0.0000       0.822991        22.3947 
  59   0.0000       0.822991        22.3947 
  60   0.0000       0.822991        22.3947 
  61   0.0000       0.822991        22.3947 
  62   0.0000       0.958591        26.0846 
  63   0.0000       0.958591        26.0846 
  64   0.0000       0.958591        26.0846 
  65   0.0000       0.958591        26.0846 
  66   0.0000       0.958591        26.0846 
  67   0.0000       0.958591        26.0846 
  68   0.0000       0.958591        26.0846 
  69   0.0000       0.958591        26.0846 
  70   0.0000       0.958591        26.0846 
  71   0.0000       0.958591        26.0846 
  72   0.0000       0.958591        26.0846 
  73   0.0000       1.284245        34.9461 
  74   0.0000       1.284245        34.9461 
  75   0.0000       1.284245        34.9461 
  76   0.0000       1.284245        34.9461 
  77   0.0000       1.284245        34.9461 
  78   0.0000       1.284245        34.9461 
  79   0.0000       1.284245        34.9461 
  80   0.0000       1.284245        34.9461 
  81   0.0000       1.284245        34.9461 
  82   0.0000       1.470071        40.0027 
  83   0.0000       1.470071        40.0027 
  84   0.0000       1.470071        40.0027 
  85   0.0000       1.470071        40.0027 
  86   0.0000       1.470071        40.0027 
  87   0.0000       1.470071        40.0027 
  88   0.0000       1.470071        40.0027 
  89   0.0000       1.736382        47.2493 
  90   0.0000       1.736382        47.2493 
  91   0.0000       1.736382        47.2493 
  92   0.0000       1.912834        52.0509 
  93   0.0000       1.912834        52.0509 
  94   0.0000       1.912834        52.0509 
  95   0.0000       1.912834        52.0509 
  96   0.0000       1.912834        52.0509 
  97   0.0000       2.278342        61.9968 
  98   0.0000       2.575127        70.0728 
  99   0.0000       2.575127        70.0728 
 100   0.0000       2.575127        70.0728 
 101   0.0000       2.575127        70.0728 
 102   0.0000       2.575127        70.0728 
 103   0.0000       2.575127        70.0728 
 104   0.0000       2.575127        70.0728 
 105   0.0000       2.575127        70.0728 
 106   0.0000       2.575127        70.0728 
 107   0.0000       2.575127        70.0728 
 108   0.0000       2.575127        70.0728 
 109   0.0000       2.894302        78.7580 
 110   0.0000       2.894302        78.7580 
 111   0.0000       2.894302        78.7580 
 112   0.0000       2.894302        78.7580 
 113   0.0000       2.894302        78.7580 
 114   0.0000       2.894302        78.7580 
 115   0.0000       2.894302        78.7580 
 116   0.0000       2.894302        78.7580 
 117   0.0000       2.894302        78.7580 
 118   0.0000       2.977132        81.0119 
 119   0.0000       2.977132        81.0119 
 120   0.0000       2.977132        81.0119 
 121   0.0000       2.977132        81.0119 
 122   0.0000       2.977132        81.0119 
 123   0.0000       2.977132        81.0119 
 124   0.0000       2.977132        81.0119 
 125   0.0000       4.175816       113.6297 
 126   0.0000       4.175816       113.6297 
 127   0.0000       4.175816       113.6297 
 128   0.0000       4.175816       113.6297 
 129   0.0000       4.175816       113.6297 
 130   0.0000      20.089693       546.6683 

                    ********************************
                    * MULLIKEN POPULATION ANALYSIS *
                    ********************************

-----------------------
MULLIKEN ATOMIC CHARGES
-----------------------
   0 Mg:    0.000000
Sum of atomic charges:    0.0000000

--------------------------------
MULLIKEN REDUCED ORBITAL CHARGES
--------------------------------
  0 Mgs       :     6.000000  s :     6.000000
      pz      :     2.000000  p :     6.000000
      px      :     2.000000
      py      :     2.000000
      dz2     :     0.000000  d :     0.000000
      dxz     :     0.000000
      dyz     :     0.000000
      dx2y2   :     0.000000
      dxy     :     0.000000
      f0      :     0.000000  f :     0.000000
      f+1     :     0.000000
      f-1     :     0.000000
      f+2     :     0.000000
      f-2     :     0.000000
      f+3     :     0.000000
      f-3     :     0.000000
      g0      :     0.000000  g :     0.000000
      g+1     :     0.000000
      g-1     :     0.000000
      g+2     :     0.000000
      g-2     :     0.000000
      g+3     :     0.000000
      g-3     :     0.000000
      g+4     :     0.000000
      g-4     :     0.000000
      h0      :     0.000000  h :     0.000000
      h+1     :     0.000000
      h-1     :     0.000000
      h+2     :     0.000000
      h-2     :     0.000000
      h+3     :     0.000000
      h-3     :     0.000000
      h+4     :     0.000000
      h-4     :     0.000000
      h+5     :     0.000000
      h-5     :     0.000000


                     *******************************
                     * LOEWDIN POPULATION ANALYSIS *
                     *******************************

----------------------
LOEWDIN ATOMIC CHARGES
----------------------
   0 Mg:    0.000000

-------------------------------
LOEWDIN REDUCED ORBITAL CHARGES
-------------------------------
  0 Mgs       :     6.000000  s :     6.000000
      pz      :     2.000000  p :     6.000000
      px      :     2.000000
      py      :     2.000000
      dz2     :     0.000000  d :     0.000000
      dxz     :     0.000000
      dyz     :     0.000000
      dx2y2   :     0.000000
      dxy     :     0.000000
      f0      :     0.000000  f :     0.000000
      f+1     :     0.000000
      f-1     :     0.000000
      f+2     :     0.000000
      f-2     :     0.000000
      f+3     :     0.000000
      f-3     :     0.000000
      g0      :     0.000000  g :     0.000000
      g+1     :     0.000000
      g-1     :     0.000000
      g+2     :     0.000000
      g-2     :     0.000000
      g+3     :     0.000000
      g-3     :     0.000000
      g+4     :     0.000000
      g-4     :     0.000000
      h0      :     0.000000  h :     0.000000
      h+1     :     0.000000
      h-1     :     0.000000
      h+2     :     0.000000
      h-2     :     0.000000
      h+3     :     0.000000
      h-3     :     0.000000
      h+4     :     0.000000
      h-4     :     0.000000
      h+5     :     0.000000
      h-5     :     0.000000


                      *****************************
                      * MAYER POPULATION ANALYSIS *
                      *****************************

  NA   - Mulliken gross atomic population
  ZA   - Total nuclear charge
  QA   - Mulliken gross atomic charge
  VA   - Mayer's total valence
  BVA  - Mayer's bonded valence
  FA   - Mayer's free valence

  ATOM       NA         ZA         QA         VA         BVA        FA
  0 Mg    12.0000    12.0000     0.0000    -0.0000     0.0000    -0.0000

  Mayer bond orders larger than 0.100000


--------------------------
ATOM BASIS FOR ELEMENT Mg
--------------------------
 NewGTO Mg
 S 53
    1    2968000.000000000000         0.000001971782
    2     444300.000000000000         0.000015336059
    3     101100.000000000000         0.000080684460
    4      28640.000000000000         0.000340767875
    5       9343.000000000000         0.001241928609
    6       3373.000000000000         0.004041202935
    7       1316.000000000000         0.011979590125
    8        545.800000000000         0.032425002603
    9        238.100000000000         0.078932476045
   10        108.200000000000         0.166573472216
   11         50.800000000000         0.282868405579
   12         24.480000000000         0.331886955989
   13         11.930000000000         0.203285135503
   14          5.543000000000         0.038289348817
   15          2.675000000000         0.000308913167
   16          1.263000000000         0.001389057260
   17    2968000.000000000000         0.000000000052
   18     444300.000000000000         0.000000000408
   19     101100.000000000000         0.000000002148
   20      28640.000000000000         0.000000009078
   21       9343.000000000000         0.000000033100
   22       3373.000000000000         0.000000108071
   23       1316.000000000000         0.000000322196
   24        545.800000000000         0.000000886111
   25        238.100000000000         0.000002225141
   26        108.200000000000         0.000005024241
   27         50.800000000000         0.000009736154
   28         24.480000000000         0.000015018296
   29         11.930000000000         0.000013292564
   30          5.543000000000        -0.000007535930
   31          2.675000000000        -0.000040355481
   32          1.263000000000        -0.000051638483
   33    2968000.000000000000        -0.000000000038
   34     444300.000000000000        -0.000000000292
   35     101100.000000000000        -0.000000001538
   36      28640.000000000000        -0.000000006485
   37       9343.000000000000        -0.000000023711
   38       3373.000000000000        -0.000000077175
   39       1316.000000000000        -0.000000231100
   40        545.800000000000        -0.000000633225
   41        238.100000000000        -0.000001602603
   42        108.200000000000        -0.000003609917
   43         50.800000000000        -0.000007124803
   44         24.480000000000        -0.000011063923
   45         11.930000000000        -0.000010366766
   46          5.543000000000         0.000006729193
   47          2.675000000000         0.000034649245
   48          1.263000000000         0.000064091856
   49          0.588300000000        -0.000147130249
   50          0.149600000000         0.000098602057
   51          0.067000000000        -0.000077347282
   52          0.029520000000         0.000036250586
   53          0.010800000000        -0.000008654763
 S 51
    1    2968000.000000000000         0.000000000045
    2     444300.000000000000         0.000000000352
    3     101100.000000000000         0.000000001852
    4      28640.000000000000         0.000000007823
    5       9343.000000000000         0.000000028513
    6       3373.000000000000         0.000000092779
    7       1316.000000000000         0.000000275032
    8        545.800000000000         0.000000744425
    9        238.100000000000         0.000001812161
   10        108.200000000000         0.000003824254
   11         50.800000000000         0.000006494196
   12         24.480000000000         0.000007619581
   13         11.930000000000         0.000004667094
   14          5.543000000000         0.000000879061
   15    2968000.000000000000         0.000000498049
   16     444300.000000000000         0.000003874426
   17     101100.000000000000         0.000020379226
   18      28640.000000000000         0.000086139802
   19       9343.000000000000         0.000314080843
   20       3373.000000000000         0.001025459316
   21       1316.000000000000         0.003057233749
   22        545.800000000000         0.008408082600
   23        238.100000000000         0.021113803143
   24        108.200000000000         0.047673756263
   25         50.800000000000         0.092383910410
   26         24.480000000000         0.142504825257
   27         11.930000000000         0.126129786409
   28          5.543000000000        -0.071506535637
   29          2.675000000000        -0.382922985672
   30          1.263000000000        -0.489984549188
   31    2968000.000000000000         0.000000000117
   32     444300.000000000000         0.000000000906
   33     101100.000000000000         0.000000004773
   34      28640.000000000000         0.000000020132
   35       9343.000000000000         0.000000073610
   36       3373.000000000000         0.000000239581
   37       1316.000000000000         0.000000717427
   38        545.800000000000         0.000001965781
   39        238.100000000000         0.000004975113
   40        108.200000000000         0.000011206607
   41         50.800000000000         0.000022118196
   42         24.480000000000         0.000034346777
   43         11.930000000000         0.000032182528
   44          5.543000000000        -0.000020890068
   45          2.675000000000        -0.000107564915
   46          1.263000000000        -0.000198966384
   47          0.588300000000        -0.204286255284
   48          0.149600000000        -0.007284072874
   49          0.067000000000         0.003201157713
   50          0.029520000000        -0.001233128135
   51          0.010800000000         0.000271055605
 S 51
    1    2968000.000000000000         0.000000000025
    2     444300.000000000000         0.000000000197
    3     101100.000000000000         0.000000001038
    4      28640.000000000000         0.000000004382
    5       9343.000000000000         0.000000015971
    6       3373.000000000000         0.000000051970
    7       1316.000000000000         0.000000154059
    8        545.800000000000         0.000000416988
    9        238.100000000000         0.000001015079
   10        108.200000000000         0.000002142150
   11         50.800000000000         0.000003637713
   12         24.480000000000         0.000004268096
   13         11.930000000000         0.000002614265
   14          5.543000000000         0.000000492405
   15    2968000.000000000000        -0.000000000098
   16     444300.000000000000        -0.000000000760
   17     101100.000000000000        -0.000000003999
   18      28640.000000000000        -0.000000016903
   19       9343.000000000000        -0.000000061632
   20       3373.000000000000        -0.000000201225
   21       1316.000000000000        -0.000000599919
   22        545.800000000000        -0.000001649912
   23        238.100000000000        -0.000004143147
   24        108.200000000000        -0.000009354989
   25         50.800000000000        -0.000018128432
   26         24.480000000000        -0.000027963625
   27         11.930000000000        -0.000024750363
   28          5.543000000000         0.000014031679
   29          2.675000000000         0.000075140718
   30          1.263000000000         0.000096149336
   31    2968000.000000000000         0.000000096078
   32     444300.000000000000         0.000000746807
   33     101100.000000000000         0.000003934397
   34      28640.000000000000         0.000016594686
   35       9343.000000000000         0.000060675009
   36       3373.000000000000         0.000197482489
   37       1316.000000000000         0.000591361586
   38        545.800000000000         0.001620356827
   39        238.100000000000         0.004100892701
   40        108.200000000000         0.009237397020
   41         50.800000000000         0.018231616415
   42         24.480000000000         0.028311408030
   43         11.930000000000         0.026527458255
   44          5.543000000000        -0.017219293724
   45          2.675000000000        -0.088663754993
   46          1.263000000000        -0.164004282505
   47          0.588300000000        -0.159395506619
   48          0.149600000000         0.321172578298
   49          0.067000000000         0.592796050721
   50          0.029520000000         0.234996886789
   51          0.010800000000         0.001148162706
 S 53
    1    2968000.000000000000        -0.000000010411
    2     444300.000000000000        -0.000000080974
    3     101100.000000000000        -0.000000426012
    4      28640.000000000000        -0.000001799245
    5       9343.000000000000        -0.000006557348
    6       3373.000000000000        -0.000021337437
    7       1316.000000000000        -0.000063251896
    8        545.800000000000        -0.000171203094
    9        238.100000000000        -0.000416761233
   10        108.200000000000        -0.000879503206
   11         50.800000000000        -0.001493537153
   12         24.480000000000        -0.001752353708
   13         11.930000000000        -0.001073339746
   14          5.543000000000        -0.000202166675
   15          2.675000000000        -0.000001631053
   16          1.263000000000        -0.000007334183
   17    2968000.000000000000         0.000000037161
   18     444300.000000000000         0.000000289082
   19     101100.000000000000         0.000001520551
   20      28640.000000000000         0.000006427131
   21       9343.000000000000         0.000023434449
   22       3373.000000000000         0.000076512383
   23       1316.000000000000         0.000228108747
   24        545.800000000000         0.000627350520
   25        238.100000000000         0.001575359808
   26        108.200000000000         0.003557072072
   27         50.800000000000         0.006893021515
   28         24.480000000000         0.010632682922
   29         11.930000000000         0.009410895551
   30          5.543000000000        -0.005335302288
   31          2.675000000000        -0.028570953180
   32          1.263000000000        -0.036559115378
   33    2968000.000000000000        -0.000000009876
   34     444300.000000000000        -0.000000076762
   35     101100.000000000000        -0.000000404404
   36      28640.000000000000        -0.000001705712
   37       9343.000000000000        -0.000006236581
   38       3373.000000000000        -0.000020298563
   39       1316.000000000000        -0.000060784075
   40        545.800000000000        -0.000166551045
   41        238.100000000000        -0.000421517011
   42        108.200000000000        -0.000949481068
   43         50.800000000000        -0.001873966722
   44         24.480000000000        -0.002910034706
   45         11.930000000000        -0.002726668490
   46          5.543000000000         0.001769913467
   47          2.675000000000         0.009113450095
   48          1.263000000000         0.016857450308
   49          0.588300000000        -0.073474408440
   50          0.149600000000         0.287050591481
   51          0.067000000000        -0.583319684864
   52          0.029520000000         1.714412558060
   53          0.010800000000        -1.917649107094
 S 53
    1    2968000.000000000000         0.000000041484
    2     444300.000000000000         0.000000322649
    3     101100.000000000000         0.000001697488
    4      28640.000000000000         0.000007169278
    5       9343.000000000000         0.000026128436
    6       3373.000000000000         0.000085021240
    7       1316.000000000000         0.000252033770
    8        545.800000000000         0.000682176565
    9        238.100000000000         0.001660628559
   10        108.200000000000         0.003504472163
   11         50.800000000000         0.005951154407
   12         24.480000000000         0.006982435937
   13         11.930000000000         0.004276834055
   14          5.543000000000         0.000805554182
   15          2.675000000000         0.000006499100
   16          1.263000000000         0.000029223816
   17    2968000.000000000000        -0.000000155335
   18     444300.000000000000        -0.000001208385
   19     101100.000000000000        -0.000006356025
   20      28640.000000000000        -0.000026865923
   21       9343.000000000000        -0.000097957872
   22       3373.000000000000        -0.000319827888
   23       1316.000000000000        -0.000953512828
   24        545.800000000000        -0.002622375415
   25        238.100000000000        -0.006585130155
   26        108.200000000000        -0.014868846123
   27         50.800000000000        -0.028813381948
   28         24.480000000000        -0.044445466113
   29         11.930000000000        -0.039338297055
   30          5.543000000000         0.022301990833
   31          2.675000000000         0.119428872341
   32          1.263000000000         0.152820030042
   33    2968000.000000000000         0.000000176134
   34     444300.000000000000         0.000001369078
   35     101100.000000000000         0.000007212702
   36      28640.000000000000         0.000030422071
   37       9343.000000000000         0.000111231960
   38       3373.000000000000         0.000362033143
   39       1316.000000000000         0.001084108744
   40        545.800000000000         0.002970505772
   41        238.100000000000         0.007517927681
   42        108.200000000000         0.016934381809
   43         50.800000000000         0.033422960245
   44         24.480000000000         0.051901654989
   45         11.930000000000         0.048631243795
   46          5.543000000000        -0.031567128031
   47          2.675000000000        -0.162542096701
   48          1.263000000000        -0.300659496640
   49          0.588300000000         0.064272697461
   50          0.149600000000        -0.780712173358
   51          0.067000000000         3.884244638540
   52          0.029520000000        -4.624993079789
   53          0.010800000000         1.628667780790
 S 53
    1    2968000.000000000000        -0.000000142750
    2     444300.000000000000        -0.000001110275
    3     101100.000000000000        -0.000005841260
    4      28640.000000000000        -0.000024670348
    5       9343.000000000000        -0.000089911090
    6       3373.000000000000        -0.000292568317
    7       1316.000000000000        -0.000867278524
    8        545.800000000000        -0.002347451632
    9        238.100000000000        -0.005714422663
   10        108.200000000000        -0.012059310343
   11         50.800000000000        -0.020478638307
   12         24.480000000000        -0.024027402129
   13         11.930000000000        -0.014717100535
   14          5.543000000000        -0.002772008856
   15          2.675000000000        -0.000022364184
   16          1.263000000000        -0.000100562667
   17    2968000.000000000000         0.000000508634
   18     444300.000000000000         0.000003956771
   19     101100.000000000000         0.000020812353
   20      28640.000000000000         0.000087970565
   21       9343.000000000000         0.000320756126
   22       3373.000000000000         0.001047253804
   23       1316.000000000000         0.003122210332
   24        545.800000000000         0.008586782864
   25        238.100000000000         0.021562543049
   26        108.200000000000         0.048686985229
   27         50.800000000000         0.094347381748
   28         24.480000000000         0.145533535977
   29         11.930000000000         0.128810472032
   30          5.543000000000        -0.073026291973
   31          2.675000000000        -0.391061397475
   32          1.263000000000        -0.500398382224
   33    2968000.000000000000        -0.000000285653
   34     444300.000000000000        -0.000002220356
   35     101100.000000000000        -0.000011697483
   36      28640.000000000000        -0.000049338192
   37       9343.000000000000        -0.000180394809
   38       3373.000000000000        -0.000587141502
   39       1316.000000000000        -0.001758196033
   40        545.800000000000        -0.004817534673
   41        238.100000000000        -0.012192495167
   42        108.200000000000        -0.027464000336
   43         50.800000000000        -0.054205001502
   44         24.480000000000        -0.084173552132
   45         11.930000000000        -0.078869634036
   46          5.543000000000         0.051195232551
   47          2.675000000000         0.263609043935
   48          1.263000000000         0.487606374397
   49          0.588300000000        -0.883354949880
   50          0.149600000000         4.682898159587
   51          0.067000000000        -6.513608976208
   52          0.029520000000         3.677655627343
   53          0.010800000000        -0.894014196792
 S 53
    1    2968000.000000000000        -0.000000974877
    2     444300.000000000000        -0.000007582366
    3     101100.000000000000        -0.000039891547
    4      28640.000000000000        -0.000168480495
    5       9343.000000000000        -0.000614027207
    6       3373.000000000000        -0.001998028336
    7       1316.000000000000        -0.005922880120
    8        545.800000000000        -0.016031383487
    9        238.100000000000        -0.039025341294
   10        108.200000000000        -0.082356299073
   11         50.800000000000        -0.139854171845
   12         24.480000000000        -0.164089641899
   13         11.930000000000        -0.100507068706
   14          5.543000000000        -0.018930799848
   15          2.675000000000        -0.000152731073
   16          1.263000000000        -0.000686769709
   17    2968000.000000000000         0.000004286298
   18     444300.000000000000         0.000033343994
   19     101100.000000000000         0.000175387206
   20      28640.000000000000         0.000741334312
   21       9343.000000000000         0.002703035063
   22       3373.000000000000         0.008825283523
   23       1316.000000000000         0.026311092213
   24        545.800000000000         0.072361440049
   25        238.100000000000         0.181709109321
   26        108.200000000000         0.410288744762
   27         50.800000000000         0.795072207634
   28         24.480000000000         1.226421630264
   29         11.930000000000         1.085495161259
   30          5.543000000000        -0.615397842508
   31          2.675000000000        -3.295502671625
   32          1.263000000000        -4.216893347548
   33    2968000.000000000000        -0.000003862053
   34     444300.000000000000        -0.000030019416
   35     101100.000000000000        -0.000158151067
   36      28640.000000000000        -0.000667056999
   37       9343.000000000000        -0.002438954811
   38       3373.000000000000        -0.007938208404
   39       1316.000000000000        -0.023770975967
   40        545.800000000000        -0.065133522535
   41        238.100000000000        -0.164843683046
   42        108.200000000000        -0.371315871326
   43         50.800000000000        -0.732856725787
   44         24.480000000000        -1.138034353001
   45         11.930000000000        -1.066324880771
   46          5.543000000000         0.692164366090
   47          2.675000000000         3.564019102911
   48          1.263000000000         6.592484108704
   49          0.588300000000        -4.193287367903
   50          0.149600000000         3.924954870337
   51          0.067000000000        -3.524879899308
   52          0.029520000000         1.688600336006
   53          0.010800000000        -0.399836601242
 S 53
    1    2968000.000000000000        -0.000012165140
    2     444300.000000000000        -0.000094617621
    3     101100.000000000000        -0.000497792259
    4      28640.000000000000        -0.002102407452
    5       9343.000000000000        -0.007662224519
    6       3373.000000000000        -0.024932676470
    7       1316.000000000000        -0.073909489242
    8        545.800000000000        -0.200049864481
    9        238.100000000000        -0.486983187914
   10        108.200000000000        -1.027694614266
   11         50.800000000000        -1.745189873822
   12         24.480000000000        -2.047615581742
   13         11.930000000000        -1.254191535646
   14          5.543000000000        -0.236230637682
   15          2.675000000000        -0.001905876089
   16          1.263000000000        -0.008569952021
   17    2968000.000000000000         0.000033307091
   18     444300.000000000000         0.000259102695
   19     101100.000000000000         0.001362863060
   20      28640.000000000000         0.005760609168
   21       9343.000000000000         0.021004192448
   22       3373.000000000000         0.068577709588
   23       1316.000000000000         0.204452858197
   24        545.800000000000         0.562291489895
   25        238.100000000000         1.411988010990
   26        108.200000000000         3.188187927467
   27         50.800000000000         6.178184622911
   28         24.480000000000         9.530026561803
   29         11.930000000000         8.434943957471
   30          5.543000000000        -4.782007786275
   31          2.675000000000       -25.608018661829
   32          1.263000000000       -32.767773022534
   33    2968000.000000000000        -0.000023591450
   34     444300.000000000000        -0.000183374371
   35     101100.000000000000        -0.000966069857
   36      28640.000000000000        -0.004074734819
   37       9343.000000000000        -0.014898418131
   38       3373.000000000000        -0.048490750002
   39       1316.000000000000        -0.145205617477
   40        545.800000000000        -0.397869795983
   41        238.100000000000        -1.006951873473
   42        108.200000000000        -2.268192540792
   43         50.800000000000        -4.476674139897
   44         24.480000000000        -6.951712086594
   45         11.930000000000        -6.513672932935
   46          5.543000000000         4.228103815114
   47          2.675000000000        21.770902266013
   48          1.263000000000        40.270358568962
   49          0.588300000000        -5.194832518087
   50          0.149600000000         2.859862918495
   51          0.067000000000        -2.446452667663
   52          0.029520000000         1.179755853178
   53          0.010800000000        -0.284861960593
 P 25
    1       1441.000000000000         0.000152420041
    2        341.400000000000         0.001327753602
    3        110.700000000000         0.007219987739
    4         41.970000000000         0.028522940411
    5         17.490000000000         0.086542004498
    6          7.753000000000         0.194966681268
    7          3.534000000000         0.312077701238
    8          1.614000000000         0.348505818012
    9          0.729900000000         0.218904729397
   10          0.302900000000         0.043561627115
   11       1441.000000000000        -0.000000012279
   12        341.400000000000        -0.000000107391
   13        110.700000000000        -0.000000583440
   14         41.970000000000        -0.000002325085
   15         17.490000000000        -0.000007111674
   16          7.753000000000        -0.000016357772
   17          3.534000000000        -0.000026297193
   18          1.614000000000        -0.000031263846
   19          0.729900000000        -0.000022540109
   20          0.302900000000         0.000026652463
   21          0.158300000000        -0.003820134140
   22          0.081900000000         0.003191955092
   23          0.041230000000        -0.001037913583
   24          0.019880000000         0.000368875057
   25          0.007100000000        -0.000069352375
 P 25
    1       1441.000000000000         0.000011716989
    2        341.400000000000         0.000102068429
    3        110.700000000000         0.000555022262
    4         41.970000000000         0.002192644568
    5         17.490000000000         0.006652745240
    6          7.753000000000         0.014987677583
    7          3.534000000000         0.023990355360
    8          1.614000000000         0.026790694708
    9          0.729900000000         0.016827867635
   10          0.302900000000         0.003348713831
   11       1441.000000000000        -0.000006420115
   12        341.400000000000        -0.000056151203
   13        110.700000000000        -0.000305062745
   14         41.970000000000        -0.001215714862
   15         17.490000000000        -0.003718473279
   16          7.753000000000        -0.008552970653
   17          3.534000000000        -0.013749984746
   18          1.614000000000        -0.016346893629
   19          0.729900000000        -0.011785522369
   20          0.302900000000         0.013935744598
   21          0.158300000000        -0.115551809198
   22          0.081900000000         0.147514110934
   23          0.041230000000        -0.439863393862
   24          0.019880000000         0.460905200197
   25          0.007100000000        -1.158194421133
 P 25
    1       1441.000000000000        -0.000025038118
    2        341.400000000000        -0.000218110762
    3        110.700000000000        -0.001186031072
    4         41.970000000000        -0.004685477984
    5         17.490000000000        -0.014216299263
    6          7.753000000000        -0.032027276272
    7          3.534000000000        -0.051265163313
    8          1.614000000000        -0.057249228654
    9          0.729900000000        -0.035959591659
   10          0.302900000000        -0.007155890726
   11       1441.000000000000         0.000034387070
   12        341.400000000000         0.000300754005
   13        110.700000000000         0.001633960420
   14         41.970000000000         0.006511545559
   15         17.490000000000         0.019916683530
   16          7.753000000000         0.045810954384
   17          3.534000000000         0.073646917485
   18          1.614000000000         0.087556339041
   19          0.729900000000         0.063124971369
   20          0.302900000000        -0.074641874262
   21          0.158300000000         0.148316188269
   22          0.081900000000        -0.657841371997
   23          0.041230000000         0.827353118633
   24          0.019880000000        -1.883635800192
   25          0.007100000000         1.141551980727
 P 25
    1       1441.000000000000         0.000076507790
    2        341.400000000000         0.000666470711
    3        110.700000000000         0.003624098897
    4         41.970000000000         0.014317192855
    5         17.490000000000         0.043440071418
    6          7.753000000000         0.097864229139
    7          3.534000000000         0.156648528172
    8          1.614000000000         0.174933752826
    9          0.729900000000         0.109880018771
   10          0.302900000000         0.021865915909
   11       1441.000000000000        -0.000056383923
   12        341.400000000000        -0.000493141478
   13        110.700000000000        -0.002679178474
   14         41.970000000000        -0.010676875941
   15         17.490000000000        -0.032657063869
   16          7.753000000000        -0.075115480997
   17          3.534000000000        -0.120757659501
   18          1.614000000000        -0.143564713067
   19          0.729900000000        -0.103504994626
   20          0.302900000000         0.122389074036
   21          0.158300000000        -0.729839790582
   22          0.081900000000         1.362172826342
   23          0.041230000000        -3.483484551347
   24          0.019880000000         3.206344380159
   25          0.007100000000        -0.935104048805
 P 25
    1       1441.000000000000        -0.000194360237
    2        341.400000000000        -0.001693100872
    3        110.700000000000        -0.009206653643
    4         41.970000000000        -0.036371368307
    5         17.490000000000        -0.110355071190
    6          7.753000000000        -0.248614093420
    7          3.534000000000        -0.397949609981
    8          1.614000000000        -0.444401358392
    9          0.729900000000        -0.279138981546
   10          0.302900000000        -0.055548129365
   11       1441.000000000000         0.000204255525
   12        341.400000000000         0.001786446682
   13        110.700000000000         0.009705550449
   14         41.970000000000         0.038677885439
   15         17.490000000000         0.118302973837
   16          7.753000000000         0.272112178204
   17          3.534000000000         0.437454827225
   18          1.614000000000         0.520075306278
   19          0.729900000000         0.374955590630
   20          0.302900000000        -0.443364764258
   21          0.158300000000         1.507934505445
   22          0.081900000000        -4.797285727203
   23          0.041230000000         5.673859747292
   24          0.019880000000        -2.833622857861
   25          0.007100000000         0.597746507456
 P 25
    1       1441.000000000000         0.000486784670
    2        341.400000000000         0.004240453515
    3        110.700000000000         0.023058512015
    4         41.970000000000         0.091093861642
    5         17.490000000000         0.276389645331
    6          7.753000000000         0.622666093762
    7          3.534000000000         0.996684161194
    8          1.614000000000         1.113024825288
    9          0.729900000000         0.699117161320
   10          0.302900000000         0.139122992796
   11       1441.000000000000        -0.000414572855
   12        341.400000000000        -0.003625910732
   13        110.700000000000        -0.019699137901
   14         41.970000000000        -0.078503635932
   15         17.490000000000        -0.240116890630
   16          7.753000000000        -0.552299980414
   17          3.534000000000        -0.887892243937
   18          1.614000000000        -1.055585175814
   19          0.729900000000        -0.761038946245
   20          0.302900000000         0.899887510480
   21          0.158300000000        -5.236274668810
   22          0.081900000000         7.318348139728
   23          0.041230000000        -5.000681330925
   24          0.019880000000         1.931696846451
   25          0.007100000000        -0.373139373093
 P 25
    1       1441.000000000000         0.002334444775
    2        341.400000000000         0.020335694959
    3        110.700000000000         0.110580357713
    4         41.970000000000         0.436853505519
    5         17.490000000000         1.325465660094
    6          7.753000000000         2.986083375151
    7          3.534000000000         4.779739950239
    8          1.614000000000         5.337668069962
    9          0.729900000000         3.352715289321
   10          0.302900000000         0.667184001264
   11       1441.000000000000        -0.002246420681
   12        341.400000000000        -0.019647501660
   13        110.700000000000        -0.106742518824
   14         41.970000000000        -0.425382870986
   15         17.490000000000        -1.301106771619
   16          7.753000000000        -2.992714267608
   17          3.534000000000        -4.811167627666
   18          1.614000000000        -5.719835104767
   19          0.729900000000        -4.123795389100
   20          0.302900000000         4.876165647946
   21          0.158300000000        -8.875619043646
   22          0.081900000000         7.401056096852
   23          0.041230000000        -4.068440160641
   24          0.019880000000         1.477190215276
   25          0.007100000000        -0.286437584993
 D 5
    1          1.083700000000         0.019292978096
    2          0.496800000000        -0.059235730424
    3          0.227800000000         0.189581022113
    4          0.104400000000        -0.320733076315
    5          0.037100000000         1.146593541993
 D 5
    1          1.083700000000        -0.026144792781
    2          0.496800000000         0.213873018647
    3          0.227800000000        -0.471863964072
    4          0.104400000000         1.635143629916
    5          0.037100000000        -0.800066212741
 D 5
    1          1.083700000000         0.196651952278
    2          0.496800000000        -0.449987548153
    3          0.227800000000         2.143663552700
    4          0.104400000000        -1.762506218960
    5          0.037100000000         0.507422729451
 D 5
    1          1.083700000000        -0.114468341570
    2          0.496800000000         2.079695693512
    3          0.227800000000        -2.427678144700
    4          0.104400000000         1.232436994563
    5          0.037100000000        -0.303099012542
 D 5
    1          1.083700000000         2.001450141075
    2          0.496800000000        -2.709688170869
    3          0.227800000000         1.822313697546
    4          0.104400000000        -0.775686887573
    5          0.037100000000         0.184662241992
 F 4
    1          0.491700000000         0.079935885435
    2          0.276400000000        -0.287334940011
    3          0.155400000000         0.455587721880
    4          0.057900000000        -1.176553075239
 F 4
    1          0.491700000000         0.280037088517
    2          0.276400000000        -0.966600871508
    3          0.155400000000         1.961594856371
    4          0.057900000000        -0.720582721378
 F 4
    1          0.491700000000        -0.571131409808
    2          0.276400000000         2.737708693699
    3          0.155400000000        -2.042447886387
    4          0.057900000000         0.455442998548
 F 4
    1          0.491700000000         2.431134078782
    2          0.276400000000        -3.147427954099
    3          0.155400000000         1.558748073159
    4          0.057900000000        -0.289724802576
 G 3
    1          0.442700000000         0.104932522818
    2          0.231100000000        -0.319732855164
    3          0.094700000000         1.146665011207
 G 3
    1          0.442700000000         0.362018534425
    2          0.231100000000        -1.527994688885
    3          0.094700000000         0.630571836826
 G 3
    1          0.442700000000         1.618151382257
    2          0.231100000000        -1.254838409303
    3          0.094700000000         0.354028326225
 H 2
    1          0.373100000000         0.184311892933
    2          0.157700000000        -1.090921944625
 H 2
    1          0.373100000000         1.190105166109
    2          0.157700000000        -0.510108313020
 end
  // -----------------------------------------------
  // The basis set
  // -----------------------------------------------
  BAS[ATNO] = new BFNGauss[NSH];
  // Basis function   1 L = s
  InitBFNGauss(BAS[ATNO][  0]);
  BAS[ATNO][  0].l  = 0;
  BAS[ATNO][  0].ng = 53;
  BAS[ATNO][  0].a[  0] =   2968000.000000000000;     BAS[ATNO][  0].d[  0] =         0.000001971782;
  BAS[ATNO][  0].a[  1] =    444300.000000000000;     BAS[ATNO][  0].d[  1] =         0.000015336059;
  BAS[ATNO][  0].a[  2] =    101100.000000000000;     BAS[ATNO][  0].d[  2] =         0.000080684460;
  BAS[ATNO][  0].a[  3] =     28640.000000000000;     BAS[ATNO][  0].d[  3] =         0.000340767875;
  BAS[ATNO][  0].a[  4] =      9343.000000000000;     BAS[ATNO][  0].d[  4] =         0.001241928609;
  BAS[ATNO][  0].a[  5] =      3373.000000000000;     BAS[ATNO][  0].d[  5] =         0.004041202935;
  BAS[ATNO][  0].a[  6] =      1316.000000000000;     BAS[ATNO][  0].d[  6] =         0.011979590125;
  BAS[ATNO][  0].a[  7] =       545.800000000000;     BAS[ATNO][  0].d[  7] =         0.032425002603;
  BAS[ATNO][  0].a[  8] =       238.100000000000;     BAS[ATNO][  0].d[  8] =         0.078932476045;
  BAS[ATNO][  0].a[  9] =       108.200000000000;     BAS[ATNO][  0].d[  9] =         0.166573472216;
  BAS[ATNO][  0].a[ 10] =        50.800000000000;     BAS[ATNO][  0].d[ 10] =         0.282868405579;
  BAS[ATNO][  0].a[ 11] =        24.480000000000;     BAS[ATNO][  0].d[ 11] =         0.331886955989;
  BAS[ATNO][  0].a[ 12] =        11.930000000000;     BAS[ATNO][  0].d[ 12] =         0.203285135503;
  BAS[ATNO][  0].a[ 13] =         5.543000000000;     BAS[ATNO][  0].d[ 13] =         0.038289348817;
  BAS[ATNO][  0].a[ 14] =         2.675000000000;     BAS[ATNO][  0].d[ 14] =         0.000308913167;
  BAS[ATNO][  0].a[ 15] =         1.263000000000;     BAS[ATNO][  0].d[ 15] =         0.001389057260;
  BAS[ATNO][  0].a[ 16] =   2968000.000000000000;     BAS[ATNO][  0].d[ 16] =         0.000000000052;
  BAS[ATNO][  0].a[ 17] =    444300.000000000000;     BAS[ATNO][  0].d[ 17] =         0.000000000408;
  BAS[ATNO][  0].a[ 18] =    101100.000000000000;     BAS[ATNO][  0].d[ 18] =         0.000000002148;
  BAS[ATNO][  0].a[ 19] =     28640.000000000000;     BAS[ATNO][  0].d[ 19] =         0.000000009078;
  BAS[ATNO][  0].a[ 20] =      9343.000000000000;     BAS[ATNO][  0].d[ 20] =         0.000000033100;
  BAS[ATNO][  0].a[ 21] =      3373.000000000000;     BAS[ATNO][  0].d[ 21] =         0.000000108071;
  BAS[ATNO][  0].a[ 22] =      1316.000000000000;     BAS[ATNO][  0].d[ 22] =         0.000000322196;
  BAS[ATNO][  0].a[ 23] =       545.800000000000;     BAS[ATNO][  0].d[ 23] =         0.000000886111;
  BAS[ATNO][  0].a[ 24] =       238.100000000000;     BAS[ATNO][  0].d[ 24] =         0.000002225141;
  BAS[ATNO][  0].a[ 25] =       108.200000000000;     BAS[ATNO][  0].d[ 25] =         0.000005024241;
  BAS[ATNO][  0].a[ 26] =        50.800000000000;     BAS[ATNO][  0].d[ 26] =         0.000009736154;
  BAS[ATNO][  0].a[ 27] =        24.480000000000;     BAS[ATNO][  0].d[ 27] =         0.000015018296;
  BAS[ATNO][  0].a[ 28] =        11.930000000000;     BAS[ATNO][  0].d[ 28] =         0.000013292564;
  BAS[ATNO][  0].a[ 29] =         5.543000000000;     BAS[ATNO][  0].d[ 29] =        -0.000007535930;
  BAS[ATNO][  0].a[ 30] =         2.675000000000;     BAS[ATNO][  0].d[ 30] =        -0.000040355481;
  BAS[ATNO][  0].a[ 31] =         1.263000000000;     BAS[ATNO][  0].d[ 31] =        -0.000051638483;
  BAS[ATNO][  0].a[ 32] =   2968000.000000000000;     BAS[ATNO][  0].d[ 32] =        -0.000000000038;
  BAS[ATNO][  0].a[ 33] =    444300.000000000000;     BAS[ATNO][  0].d[ 33] =        -0.000000000292;
  BAS[ATNO][  0].a[ 34] =    101100.000000000000;     BAS[ATNO][  0].d[ 34] =        -0.000000001538;
  BAS[ATNO][  0].a[ 35] =     28640.000000000000;     BAS[ATNO][  0].d[ 35] =        -0.000000006485;
  BAS[ATNO][  0].a[ 36] =      9343.000000000000;     BAS[ATNO][  0].d[ 36] =        -0.000000023711;
  BAS[ATNO][  0].a[ 37] =      3373.000000000000;     BAS[ATNO][  0].d[ 37] =        -0.000000077175;
  BAS[ATNO][  0].a[ 38] =      1316.000000000000;     BAS[ATNO][  0].d[ 38] =        -0.000000231100;
  BAS[ATNO][  0].a[ 39] =       545.800000000000;     BAS[ATNO][  0].d[ 39] =        -0.000000633225;
  BAS[ATNO][  0].a[ 40] =       238.100000000000;     BAS[ATNO][  0].d[ 40] =        -0.000001602603;
  BAS[ATNO][  0].a[ 41] =       108.200000000000;     BAS[ATNO][  0].d[ 41] =        -0.000003609917;
  BAS[ATNO][  0].a[ 42] =        50.800000000000;     BAS[ATNO][  0].d[ 42] =        -0.000007124803;
  BAS[ATNO][  0].a[ 43] =        24.480000000000;     BAS[ATNO][  0].d[ 43] =        -0.000011063923;
  BAS[ATNO][  0].a[ 44] =        11.930000000000;     BAS[ATNO][  0].d[ 44] =        -0.000010366766;
  BAS[ATNO][  0].a[ 45] =         5.543000000000;     BAS[ATNO][  0].d[ 45] =         0.000006729193;
  BAS[ATNO][  0].a[ 46] =         2.675000000000;     BAS[ATNO][  0].d[ 46] =         0.000034649245;
  BAS[ATNO][  0].a[ 47] =         1.263000000000;     BAS[ATNO][  0].d[ 47] =         0.000064091856;
  BAS[ATNO][  0].a[ 48] =         0.588300000000;     BAS[ATNO][  0].d[ 48] =        -0.000147130249;
  BAS[ATNO][  0].a[ 49] =         0.149600000000;     BAS[ATNO][  0].d[ 49] =         0.000098602057;
  BAS[ATNO][  0].a[ 50] =         0.067000000000;     BAS[ATNO][  0].d[ 50] =        -0.000077347282;
  BAS[ATNO][  0].a[ 51] =         0.029520000000;     BAS[ATNO][  0].d[ 51] =         0.000036250586;
  BAS[ATNO][  0].a[ 52] =         0.010800000000;     BAS[ATNO][  0].d[ 52] =        -0.000008654763;

  // Basis function   2 L = s
  InitBFNGauss(BAS[ATNO][  1]);
  BAS[ATNO][  1].l  = 0;
  BAS[ATNO][  1].ng = 51;
  BAS[ATNO][  1].a[  0] =   2968000.000000000000;     BAS[ATNO][  1].d[  0] =        -0.000000000045;
  BAS[ATNO][  1].a[  1] =    444300.000000000000;     BAS[ATNO][  1].d[  1] =        -0.000000000352;
  BAS[ATNO][  1].a[  2] =    101100.000000000000;     BAS[ATNO][  1].d[  2] =        -0.000000001852;
  BAS[ATNO][  1].a[  3] =     28640.000000000000;     BAS[ATNO][  1].d[  3] =        -0.000000007823;
  BAS[ATNO][  1].a[  4] =      9343.000000000000;     BAS[ATNO][  1].d[  4] =        -0.000000028513;
  BAS[ATNO][  1].a[  5] =      3373.000000000000;     BAS[ATNO][  1].d[  5] =        -0.000000092779;
  BAS[ATNO][  1].a[  6] =      1316.000000000000;     BAS[ATNO][  1].d[  6] =        -0.000000275032;
  BAS[ATNO][  1].a[  7] =       545.800000000000;     BAS[ATNO][  1].d[  7] =        -0.000000744425;
  BAS[ATNO][  1].a[  8] =       238.100000000000;     BAS[ATNO][  1].d[  8] =        -0.000001812161;
  BAS[ATNO][  1].a[  9] =       108.200000000000;     BAS[ATNO][  1].d[  9] =        -0.000003824254;
  BAS[ATNO][  1].a[ 10] =        50.800000000000;     BAS[ATNO][  1].d[ 10] =        -0.000006494196;
  BAS[ATNO][  1].a[ 11] =        24.480000000000;     BAS[ATNO][  1].d[ 11] =        -0.000007619581;
  BAS[ATNO][  1].a[ 12] =        11.930000000000;     BAS[ATNO][  1].d[ 12] =        -0.000004667094;
  BAS[ATNO][  1].a[ 13] =         5.543000000000;     BAS[ATNO][  1].d[ 13] =        -0.000000879061;
  BAS[ATNO][  1].a[ 14] =   2968000.000000000000;     BAS[ATNO][  1].d[ 14] =        -0.000000498049;
  BAS[ATNO][  1].a[ 15] =    444300.000000000000;     BAS[ATNO][  1].d[ 15] =        -0.000003874426;
  BAS[ATNO][  1].a[ 16] =    101100.000000000000;     BAS[ATNO][  1].d[ 16] =        -0.000020379226;
  BAS[ATNO][  1].a[ 17] =     28640.000000000000;     BAS[ATNO][  1].d[ 17] =        -0.000086139802;
  BAS[ATNO][  1].a[ 18] =      9343.000000000000;     BAS[ATNO][  1].d[ 18] =        -0.000314080843;
  BAS[ATNO][  1].a[ 19] =      3373.000000000000;     BAS[ATNO][  1].d[ 19] =        -0.001025459316;
  BAS[ATNO][  1].a[ 20] =      1316.000000000000;     BAS[ATNO][  1].d[ 20] =        -0.003057233749;
  BAS[ATNO][  1].a[ 21] =       545.800000000000;     BAS[ATNO][  1].d[ 21] =        -0.008408082600;
  BAS[ATNO][  1].a[ 22] =       238.100000000000;     BAS[ATNO][  1].d[ 22] =        -0.021113803143;
  BAS[ATNO][  1].a[ 23] =       108.200000000000;     BAS[ATNO][  1].d[ 23] =        -0.047673756263;
  BAS[ATNO][  1].a[ 24] =        50.800000000000;     BAS[ATNO][  1].d[ 24] =        -0.092383910410;
  BAS[ATNO][  1].a[ 25] =        24.480000000000;     BAS[ATNO][  1].d[ 25] =        -0.142504825257;
  BAS[ATNO][  1].a[ 26] =        11.930000000000;     BAS[ATNO][  1].d[ 26] =        -0.126129786409;
  BAS[ATNO][  1].a[ 27] =         5.543000000000;     BAS[ATNO][  1].d[ 27] =         0.071506535637;
  BAS[ATNO][  1].a[ 28] =         2.675000000000;     BAS[ATNO][  1].d[ 28] =         0.382922985672;
  BAS[ATNO][  1].a[ 29] =         1.263000000000;     BAS[ATNO][  1].d[ 29] =         0.489984549188;
  BAS[ATNO][  1].a[ 30] =   2968000.000000000000;     BAS[ATNO][  1].d[ 30] =        -0.000000000117;
  BAS[ATNO][  1].a[ 31] =    444300.000000000000;     BAS[ATNO][  1].d[ 31] =        -0.000000000906;
  BAS[ATNO][  1].a[ 32] =    101100.000000000000;     BAS[ATNO][  1].d[ 32] =        -0.000000004773;
  BAS[ATNO][  1].a[ 33] =     28640.000000000000;     BAS[ATNO][  1].d[ 33] =        -0.000000020132;
  BAS[ATNO][  1].a[ 34] =      9343.000000000000;     BAS[ATNO][  1].d[ 34] =        -0.000000073610;
  BAS[ATNO][  1].a[ 35] =      3373.000000000000;     BAS[ATNO][  1].d[ 35] =        -0.000000239581;
  BAS[ATNO][  1].a[ 36] =      1316.000000000000;     BAS[ATNO][  1].d[ 36] =        -0.000000717427;
  BAS[ATNO][  1].a[ 37] =       545.800000000000;     BAS[ATNO][  1].d[ 37] =        -0.000001965781;
  BAS[ATNO][  1].a[ 38] =       238.100000000000;     BAS[ATNO][  1].d[ 38] =        -0.000004975113;
  BAS[ATNO][  1].a[ 39] =       108.200000000000;     BAS[ATNO][  1].d[ 39] =        -0.000011206607;
  BAS[ATNO][  1].a[ 40] =        50.800000000000;     BAS[ATNO][  1].d[ 40] =        -0.000022118196;
  BAS[ATNO][  1].a[ 41] =        24.480000000000;     BAS[ATNO][  1].d[ 41] =        -0.000034346777;
  BAS[ATNO][  1].a[ 42] =        11.930000000000;     BAS[ATNO][  1].d[ 42] =        -0.000032182528;
  BAS[ATNO][  1].a[ 43] =         5.543000000000;     BAS[ATNO][  1].d[ 43] =         0.000020890068;
  BAS[ATNO][  1].a[ 44] =         2.675000000000;     BAS[ATNO][  1].d[ 44] =         0.000107564915;
  BAS[ATNO][  1].a[ 45] =         1.263000000000;     BAS[ATNO][  1].d[ 45] =         0.000198966384;
  BAS[ATNO][  1].a[ 46] =         0.588300000000;     BAS[ATNO][  1].d[ 46] =         0.204286255284;
  BAS[ATNO][  1].a[ 47] =         0.149600000000;     BAS[ATNO][  1].d[ 47] =         0.007284072874;
  BAS[ATNO][  1].a[ 48] =         0.067000000000;     BAS[ATNO][  1].d[ 48] =        -0.003201157713;
  BAS[ATNO][  1].a[ 49] =         0.029520000000;     BAS[ATNO][  1].d[ 49] =         0.001233128135;
  BAS[ATNO][  1].a[ 50] =         0.010800000000;     BAS[ATNO][  1].d[ 50] =        -0.000271055605;

  // Basis function   3 L = s
  InitBFNGauss(BAS[ATNO][  2]);
  BAS[ATNO][  2].l  = 0;
  BAS[ATNO][  2].ng = 51;
  BAS[ATNO][  2].a[  0] =   2968000.000000000000;     BAS[ATNO][  2].d[  0] =         0.000000000025;
  BAS[ATNO][  2].a[  1] =    444300.000000000000;     BAS[ATNO][  2].d[  1] =         0.000000000197;
  BAS[ATNO][  2].a[  2] =    101100.000000000000;     BAS[ATNO][  2].d[  2] =         0.000000001038;
  BAS[ATNO][  2].a[  3] =     28640.000000000000;     BAS[ATNO][  2].d[  3] =         0.000000004382;
  BAS[ATNO][  2].a[  4] =      9343.000000000000;     BAS[ATNO][  2].d[  4] =         0.000000015971;
  BAS[ATNO][  2].a[  5] =      3373.000000000000;     BAS[ATNO][  2].d[  5] =         0.000000051970;
  BAS[ATNO][  2].a[  6] =      1316.000000000000;     BAS[ATNO][  2].d[  6] =         0.000000154059;
  BAS[ATNO][  2].a[  7] =       545.800000000000;     BAS[ATNO][  2].d[  7] =         0.000000416988;
  BAS[ATNO][  2].a[  8] =       238.100000000000;     BAS[ATNO][  2].d[  8] =         0.000001015079;
  BAS[ATNO][  2].a[  9] =       108.200000000000;     BAS[ATNO][  2].d[  9] =         0.000002142150;
  BAS[ATNO][  2].a[ 10] =        50.800000000000;     BAS[ATNO][  2].d[ 10] =         0.000003637713;
  BAS[ATNO][  2].a[ 11] =        24.480000000000;     BAS[ATNO][  2].d[ 11] =         0.000004268096;
  BAS[ATNO][  2].a[ 12] =        11.930000000000;     BAS[ATNO][  2].d[ 12] =         0.000002614265;
  BAS[ATNO][  2].a[ 13] =         5.543000000000;     BAS[ATNO][  2].d[ 13] =         0.000000492405;
  BAS[ATNO][  2].a[ 14] =   2968000.000000000000;     BAS[ATNO][  2].d[ 14] =        -0.000000000098;
  BAS[ATNO][  2].a[ 15] =    444300.000000000000;     BAS[ATNO][  2].d[ 15] =        -0.000000000760;
  BAS[ATNO][  2].a[ 16] =    101100.000000000000;     BAS[ATNO][  2].d[ 16] =        -0.000000003999;
  BAS[ATNO][  2].a[ 17] =     28640.000000000000;     BAS[ATNO][  2].d[ 17] =        -0.000000016903;
  BAS[ATNO][  2].a[ 18] =      9343.000000000000;     BAS[ATNO][  2].d[ 18] =        -0.000000061632;
  BAS[ATNO][  2].a[ 19] =      3373.000000000000;     BAS[ATNO][  2].d[ 19] =        -0.000000201225;
  BAS[ATNO][  2].a[ 20] =      1316.000000000000;     BAS[ATNO][  2].d[ 20] =        -0.000000599919;
  BAS[ATNO][  2].a[ 21] =       545.800000000000;     BAS[ATNO][  2].d[ 21] =        -0.000001649912;
  BAS[ATNO][  2].a[ 22] =       238.100000000000;     BAS[ATNO][  2].d[ 22] =        -0.000004143147;
  BAS[ATNO][  2].a[ 23] =       108.200000000000;     BAS[ATNO][  2].d[ 23] =        -0.000009354989;
  BAS[ATNO][  2].a[ 24] =        50.800000000000;     BAS[ATNO][  2].d[ 24] =        -0.000018128432;
  BAS[ATNO][  2].a[ 25] =        24.480000000000;     BAS[ATNO][  2].d[ 25] =        -0.000027963625;
  BAS[ATNO][  2].a[ 26] =        11.930000000000;     BAS[ATNO][  2].d[ 26] =        -0.000024750363;
  BAS[ATNO][  2].a[ 27] =         5.543000000000;     BAS[ATNO][  2].d[ 27] =         0.000014031679;
  BAS[ATNO][  2].a[ 28] =         2.675000000000;     BAS[ATNO][  2].d[ 28] =         0.000075140718;
  BAS[ATNO][  2].a[ 29] =         1.263000000000;     BAS[ATNO][  2].d[ 29] =         0.000096149336;
  BAS[ATNO][  2].a[ 30] =   2968000.000000000000;     BAS[ATNO][  2].d[ 30] =         0.000000096078;
  BAS[ATNO][  2].a[ 31] =    444300.000000000000;     BAS[ATNO][  2].d[ 31] =         0.000000746807;
  BAS[ATNO][  2].a[ 32] =    101100.000000000000;     BAS[ATNO][  2].d[ 32] =         0.000003934397;
  BAS[ATNO][  2].a[ 33] =     28640.000000000000;     BAS[ATNO][  2].d[ 33] =         0.000016594686;
  BAS[ATNO][  2].a[ 34] =      9343.000000000000;     BAS[ATNO][  2].d[ 34] =         0.000060675009;
  BAS[ATNO][  2].a[ 35] =      3373.000000000000;     BAS[ATNO][  2].d[ 35] =         0.000197482489;
  BAS[ATNO][  2].a[ 36] =      1316.000000000000;     BAS[ATNO][  2].d[ 36] =         0.000591361586;
  BAS[ATNO][  2].a[ 37] =       545.800000000000;     BAS[ATNO][  2].d[ 37] =         0.001620356827;
  BAS[ATNO][  2].a[ 38] =       238.100000000000;     BAS[ATNO][  2].d[ 38] =         0.004100892701;
  BAS[ATNO][  2].a[ 39] =       108.200000000000;     BAS[ATNO][  2].d[ 39] =         0.009237397020;
  BAS[ATNO][  2].a[ 40] =        50.800000000000;     BAS[ATNO][  2].d[ 40] =         0.018231616415;
  BAS[ATNO][  2].a[ 41] =        24.480000000000;     BAS[ATNO][  2].d[ 41] =         0.028311408030;
  BAS[ATNO][  2].a[ 42] =        11.930000000000;     BAS[ATNO][  2].d[ 42] =         0.026527458255;
  BAS[ATNO][  2].a[ 43] =         5.543000000000;     BAS[ATNO][  2].d[ 43] =        -0.017219293724;
  BAS[ATNO][  2].a[ 44] =         2.675000000000;     BAS[ATNO][  2].d[ 44] =        -0.088663754993;
  BAS[ATNO][  2].a[ 45] =         1.263000000000;     BAS[ATNO][  2].d[ 45] =        -0.164004282505;
  BAS[ATNO][  2].a[ 46] =         0.588300000000;     BAS[ATNO][  2].d[ 46] =        -0.159395506619;
  BAS[ATNO][  2].a[ 47] =         0.149600000000;     BAS[ATNO][  2].d[ 47] =         0.321172578298;
  BAS[ATNO][  2].a[ 48] =         0.067000000000;     BAS[ATNO][  2].d[ 48] =         0.592796050721;
  BAS[ATNO][  2].a[ 49] =         0.029520000000;     BAS[ATNO][  2].d[ 49] =         0.234996886789;
  BAS[ATNO][  2].a[ 50] =         0.010800000000;     BAS[ATNO][  2].d[ 50] =         0.001148162706;

  // Basis function   4 L = s
  InitBFNGauss(BAS[ATNO][  3]);
  BAS[ATNO][  3].l  = 0;
  BAS[ATNO][  3].ng = 53;
  BAS[ATNO][  3].a[  0] =   2968000.000000000000;     BAS[ATNO][  3].d[  0] =         0.000000010411;
  BAS[ATNO][  3].a[  1] =    444300.000000000000;     BAS[ATNO][  3].d[  1] =         0.000000080974;
  BAS[ATNO][  3].a[  2] =    101100.000000000000;     BAS[ATNO][  3].d[  2] =         0.000000426012;
  BAS[ATNO][  3].a[  3] =     28640.000000000000;     BAS[ATNO][  3].d[  3] =         0.000001799245;
  BAS[ATNO][  3].a[  4] =      9343.000000000000;     BAS[ATNO][  3].d[  4] =         0.000006557348;
  BAS[ATNO][  3].a[  5] =      3373.000000000000;     BAS[ATNO][  3].d[  5] =         0.000021337437;
  BAS[ATNO][  3].a[  6] =      1316.000000000000;     BAS[ATNO][  3].d[  6] =         0.000063251896;
  BAS[ATNO][  3].a[  7] =       545.800000000000;     BAS[ATNO][  3].d[  7] =         0.000171203094;
  BAS[ATNO][  3].a[  8] =       238.100000000000;     BAS[ATNO][  3].d[  8] =         0.000416761233;
  BAS[ATNO][  3].a[  9] =       108.200000000000;     BAS[ATNO][  3].d[  9] =         0.000879503206;
  BAS[ATNO][  3].a[ 10] =        50.800000000000;     BAS[ATNO][  3].d[ 10] =         0.001493537153;
  BAS[ATNO][  3].a[ 11] =        24.480000000000;     BAS[ATNO][  3].d[ 11] =         0.001752353708;
  BAS[ATNO][  3].a[ 12] =        11.930000000000;     BAS[ATNO][  3].d[ 12] =         0.001073339746;
  BAS[ATNO][  3].a[ 13] =         5.543000000000;     BAS[ATNO][  3].d[ 13] =         0.000202166675;
  BAS[ATNO][  3].a[ 14] =         2.675000000000;     BAS[ATNO][  3].d[ 14] =         0.000001631053;
  BAS[ATNO][  3].a[ 15] =         1.263000000000;     BAS[ATNO][  3].d[ 15] =         0.000007334183;
  BAS[ATNO][  3].a[ 16] =   2968000.000000000000;     BAS[ATNO][  3].d[ 16] =        -0.000000037161;
  BAS[ATNO][  3].a[ 17] =    444300.000000000000;     BAS[ATNO][  3].d[ 17] =        -0.000000289082;
[...]
<pp|pd>:          980 b           18 skpd (  1.8%)    0.028 s ( 0.029 ms/b)
<pp|pf>:          784 b           15 skpd (  1.9%)    0.036 s ( 0.047 ms/b)
<pp|pg>:          588 b           13 skpd (  2.2%)    0.044 s ( 0.077 ms/b)
<pp|ph>:          392 b            9 skpd (  2.3%)    0.046 s ( 0.121 ms/b)
<pp|dd>:          420 b            9 skpd (  2.1%)    0.008 s ( 0.019 ms/b)
<pp|df>:          560 b           23 skpd (  4.1%)    0.017 s ( 0.031 ms/b)
<pp|dg>:          420 b           19 skpd (  4.5%)    0.019 s ( 0.047 ms/b)
<pp|dh>:          280 b           12 skpd (  4.3%)    0.018 s ( 0.067 ms/b)
<pp|ff>:          280 b            5 skpd (  1.8%)    0.014 s ( 0.050 ms/b)
<pp|fg>:          336 b           12 skpd (  3.6%)    0.024 s ( 0.074 ms/b)
<pp|fh>:          224 b            8 skpd (  3.6%)    0.023 s ( 0.106 ms/b)
<pp|gg>:          168 b            2 skpd (  1.2%)    0.018 s ( 0.106 ms/b)
<pp|gh>:          168 b            6 skpd (  3.6%)    0.024 s ( 0.150 ms/b)
<pp|hh>:           84 b            1 skpd (  1.2%)    0.017 s ( 0.203 ms/b)
<pd|pd>:          630 b           42 skpd (  6.7%)    0.012 s ( 0.020 ms/b)
<pd|pf>:          980 b           68 skpd (  6.9%)    0.026 s ( 0.029 ms/b)
<pd|pg>:          735 b           59 skpd (  8.0%)    0.033 s ( 0.048 ms/b)
<pd|ph>:          490 b           42 skpd (  8.6%)    0.033 s ( 0.075 ms/b)
<pd|dd>: done
<pd|df>:          700 b          668 skpd ( 95.4%)    0.002 s ( 0.053 ms/b)
<pd|dg>: done
<pd|dh>: done
<pd|ff>:          350 b          322 skpd ( 92.0%)    0.002 s ( 0.086 ms/b)
<pd|fg>:          420 b          400 skpd ( 95.2%)    0.003 s ( 0.131 ms/b)
<pd|fh>:          280 b          269 skpd ( 96.1%)    0.002 s ( 0.178 ms/b)
<pd|gg>: done
<pd|gh>: done
<pd|hh>:          105 b          101 skpd ( 96.2%)    0.001 s ( 0.359 ms/b)
<pf|pf>:          406 b           35 skpd (  8.6%)    0.020 s ( 0.053 ms/b)
<pf|pg>:          588 b           54 skpd (  9.2%)    0.050 s ( 0.095 ms/b)
<pf|ph>:          392 b           36 skpd (  9.2%)    0.053 s ( 0.148 ms/b)
<pf|dd>:          420 b          405 skpd ( 96.4%)    0.001 s ( 0.053 ms/b)
<pf|df>:          560 b          557 skpd ( 99.5%)    0.000 s ( 0.102 ms/b)
<pf|dg>: done
<pf|dh>: done
<pf|ff>:          280 b          266 skpd ( 95.0%)    0.002 s ( 0.172 ms/b)
<pf|fg>:          336 b          333 skpd ( 99.1%)    0.001 s ( 0.258 ms/b)
<pf|fh>:          224 b          223 skpd ( 99.6%)    0.000 s ( 0.362 ms/b)
<pf|gg>:          168 b          160 skpd ( 95.2%)    0.003 s ( 0.374 ms/b)
<pf|gh>: done
<pf|hh>:           84 b           80 skpd ( 95.2%)    0.003 s ( 0.714 ms/b)
<pg|pg>:          231 b           24 skpd ( 10.4%)    0.037 s ( 0.180 ms/b)
<pg|ph>:          294 b           28 skpd (  9.5%)    0.072 s ( 0.270 ms/b)
<pg|dd>: done
<pg|df>: done
<pg|dg>: done
<pg|dh>: done
<pg|ff>:          210 b          207 skpd ( 98.6%)    0.001 s ( 0.314 ms/b)
<pg|fg>: done
<pg|fh>: done
<pg|gg>: done
<pg|gh>: done
<pg|hh>: done
<ph|ph>:          105 b           12 skpd ( 11.4%)    0.046 s ( 0.493 ms/b)
<ph|dd>: done
<ph|df>: done
<ph|dg>: done
<ph|dh>: done
<ph|ff>: done
<ph|fg>: done
<ph|fh>: done
<ph|gg>: done
<ph|gh>: done
<ph|hh>: done
<dd|dd>: done
<dd|df>: done
<dd|dg>: done
<dd|dh>: done
<dd|ff>: done
<dd|fg>: done
<dd|fh>: done
<dd|gg>: done
<dd|gh>: done
<dd|hh>: done
<df|df>: done
<df|dg>: done
<df|dh>: done
<df|ff>: done
<df|fg>: done
<df|fh>: done
<df|gg>: done
<df|gh>: done
<df|hh>: done
<dg|dg>: done
<dg|dh>: done
<dg|ff>: done
<dg|fg>: done
<dg|fh>: done
<dg|gg>: done
<dg|gh>: done
<dg|hh>: done
<dh|dh>: done
<dh|ff>: done
<dh|fg>: done
<dh|fh>: done
<dh|gg>: done
<dh|gh>: done
<dh|hh>: done
<ff|ff>: done
<ff|fg>: done
<ff|fh>: done
<ff|gg>: done
<ff|gh>: done
<ff|hh>: done
<fg|fg>: done
<fg|fh>: done
<fg|gg>: done
<fg|gh>: done
<fg|hh>: done
<fh|fh>: done
<fh|gg>: done
<fh|gh>: done
<fh|hh>: done
<gg|gg>: done
<gg|gh>: done
<gg|hh>: done
<gh|gh>: done
<gh|hh>: done
<hh|hh>: done
Recanonicalizing the internal orbitals
Recanonicalizing the virtual orbitals
Time needed for Fock operator              ...            2.498 sec
Reference energy                           ...   -199.614612702

------------------------------
PARTIAL COULOMB TRANSFORMATION
------------------------------

Transformation type                        ... one-operator
Dimension of the basis                     ...  131
Number of internal MOs                     ...  126 (5-130)
Pair cutoff                                ... 0.000e+00 Eh
Number of AO pairs included in the trafo   ... 8646
Total Number of distinct AO pairs          ... 8646
Memory devoted for trafo                   ... 2500.0 MB 
Max. Number of MO pairs treated together   ... 37899      
Max. Number of MOs treated per batch       ...  289      
Number Format for Storage                  ... Double (8 Byte)
AO-integral source                         ... DIRECT
Integral package used                      ... LIBINT

Starting integral evaluation:
<ss|**>:        15660 b        0 skpd     0.677 s (  0.043 ms/b)
<sp|**>:        24360 b        0 skpd     1.233 s (  0.051 ms/b)
<sd|**>:        17400 b        0 skpd     0.589 s (  0.034 ms/b)
<sf|**>:        13920 b        0 skpd     0.826 s (  0.059 ms/b)
<sg|**>:        10440 b        0 skpd     1.049 s (  0.100 ms/b)
<sh|**>:         6960 b        0 skpd     1.168 s (  0.168 ms/b)
<pp|**>:        12180 b        0 skpd     0.938 s (  0.077 ms/b)
<pd|**>:        15225 b        0 skpd     0.895 s (  0.059 ms/b)
<pf|**>:        12180 b        0 skpd     1.168 s (  0.096 ms/b)
<pg|**>:         9135 b        0 skpd     1.442 s (  0.158 ms/b)
<ph|**>:         6090 b        0 skpd     1.425 s (  0.234 ms/b)
<dd|**>:         6525 b        0 skpd     0.421 s (  0.065 ms/b)
<df|**>:         8700 b        0 skpd     0.994 s (  0.114 ms/b)
<dg|**>:         6525 b        0 skpd     1.081 s (  0.166 ms/b)
<dh|**>:         4350 b        0 skpd     0.929 s (  0.214 ms/b)
<ff|**>:         4350 b        0 skpd     0.702 s (  0.161 ms/b)
<fg|**>:         5220 b        0 skpd     1.277 s (  0.245 ms/b)
<fh|**>:         3480 b        0 skpd     1.129 s (  0.325 ms/b)
<gg|**>:         2610 b        0 skpd     0.844 s (  0.323 ms/b)
<gh|**>:         2610 b        0 skpd     1.243 s (  0.476 ms/b)
<hh|**>:         1305 b        0 skpd     0.770 s (  0.590 ms/b)
Closing buffer AOJ ( 0.52 GB; CompressionRatio= 1.00)
Collecting buffer AOJ 
    ... done with AO integral generation
Number of MO pairs included in the trafo   ... 8001
    ... Now sorting integrals
IBATCH = 1 of  1
Closing buffer JAO ( 0.52 GB; CompressionRatio= 1.00)
Collecting buffer JAO 
TOTAL TIME for half transformation         ...    30.384 sec
AO-integral generation                     ...    14.004 sec
Half transformation                        ...     6.820 sec
J-integral sorting                         ...     9.474 sec

-------------------------- SECOND HALF TRANSFORMATION -------------------------
Formation of (pq|rs)                       ... ok (     6.664 sec)
Integral sorting                           ... ok (     2.511 sec)

------------------
CLOSED SHELL GUESS
------------------

Initial guess performed in     0.000 sec
E(0)                                       ...   -199.614612702
E(MP2)                                     ...     -0.024775101
Initial E(tot)                             ...   -199.639387803
<T|T>                                      ...      0.028183056
Number of pairs included                   ... 1
Total number of pairs                      ... 1

------------------------------------------------
                  RHF COUPLED CLUSTER ITERATIONS
------------------------------------------------

Number of amplitudes to be optimized       ... 15750

Iter       E(tot)           E(Corr)          Delta-E          Residual     Time
  0   -199.639387803     -0.024775101      0.000000000      0.007415641    0.50
                           *** Turning on DIIS ***
  1   -199.642319917     -0.027707215     -0.002932114      0.005021981    1.44
  2   -199.645555103     -0.030942401     -0.003235186      0.002626131    1.44
  3   -199.648170185     -0.033557483     -0.002615082      0.000733430    1.45
  4   -199.648548907     -0.033936205     -0.000378723      0.000272750    1.45
  5   -199.648594593     -0.033981892     -0.000045686      0.000061776    1.50
  6   -199.648600667     -0.033987965     -0.000006074      0.000015185    1.45
  7   -199.648602684     -0.033989983     -0.000002017      0.000005401    1.45
               --- The Coupled-Cluster iterations have converged ---

----------------------
COUPLED CLUSTER ENERGY
----------------------

E(0)                                       ...   -199.614612702
E(CORR)                                    ...     -0.033989983
E(TOT)                                     ...   -199.648602684
Singles Norm <S|S>**1/2                    ...      0.024314886  
T1 diagnostic                              ...      0.017193221  

------------------
LARGEST AMPLITUDES
------------------
   5-> 10   5-> 10       0.060610
   5-> 11   5-> 11       0.060610
   5-> 12   5-> 12       0.060610
   5-> 12   5-> 15       0.056073
   5-> 15   5-> 12       0.056073
   5-> 14   5-> 11       0.056052
   5-> 11   5-> 14       0.056052
   5-> 10   5-> 13       0.056043
   5-> 13   5-> 10       0.056043
   5-> 15   5-> 15       0.052588
   5-> 14   5-> 14       0.052588
   5-> 13   5-> 13       0.052588
   5-> 31   5-> 12       0.036161
   5-> 12   5-> 31       0.036161
   5-> 11   5-> 30       0.035816
   5-> 30   5-> 11       0.035816


        !!!!!!!!!!!!!!!!!!!!!!!!!!!!!!!!!!!!!!!!!!!!!!!!!!!!!!!!!!!!!!!!!!!!!!!!!! 
        !  Warning: Densities are linearized densities !                         !
        !!!!!!!!!!!!!!!!!!!!!!!!!!!!!!!!!!!!!!!!!!!!!!!!!!!!!!!!!!!!!!!!!!!!!!!!!! 

Trace of internal density part =     -0.147472287
Trace of external density part =      0.147472287
----------------------
RHF TRIPLES CORRECTION (Algorithm 1)
----------------------

Multiplier for the singles contribution    ...      1.000000000

Triples Correction (T)                     ...      0.000000000
Scaling of triples based on CCSD energies (Peterson et al. Molecular Physics 113, 1551 (2015))
E(T*) = f*E(T) where f = E(F12-CCSD)/E(CCSD) 
f = CCSD (with F12)/ CCSD (without F12)    ...      1.000000000
Scaled triples correction (T)              ...      0.000000000

Final correlation energy                   ...     -0.033989983
E(CCSD)                                    ...   -199.648602684
E(CCSD(T))                                 ...   -199.648602684

NORM  =      1.074327357 sqrt=     1.036497640
W(HF) =      0.930814982
------------------------------------------------------------------------------
                           ORCA POPULATION ANALYSIS
------------------------------------------------------------------------------
Input electron density              ... 12_Mg.mdcip
BaseName (.gbw .S,...)              ... 12_Mg

                    ********************************
                    * MULLIKEN POPULATION ANALYSIS *
                    ********************************

-----------------------
MULLIKEN ATOMIC CHARGES
-----------------------
   0 Mg:   -0.000000
Sum of atomic charges:   -0.0000000

--------------------------------
MULLIKEN REDUCED ORBITAL CHARGES
--------------------------------
  0 Mgs       :     5.857320  s :     5.857320
      pz      :     2.046915  p :     6.140746
      px      :     2.046915
      py      :     2.046915
      dz2     :     0.000344  d :     0.001718
      dxz     :     0.000344
      dyz     :     0.000344
      dx2y2   :     0.000344
      dxy     :     0.000344
      f0      :     0.000024  f :     0.000169
      f+1     :     0.000024
      f-1     :     0.000024
      f+2     :     0.000024
      f-2     :     0.000024
      f+3     :     0.000024
      f-3     :     0.000024
      g0      :     0.000004  g :     0.000037
      g+1     :     0.000004
      g-1     :     0.000004
      g+2     :     0.000004
      g-2     :     0.000004
      g+3     :     0.000004
      g-3     :     0.000004
      g+4     :     0.000004
      g-4     :     0.000004
      h0      :     0.000001  h :     0.000011
      h+1     :     0.000001
      h-1     :     0.000001
      h+2     :     0.000001
      h-2     :     0.000001
      h+3     :     0.000001
      h-3     :     0.000001
      h+4     :     0.000001
      h-4     :     0.000001
      h+5     :     0.000001
      h-5     :     0.000001


                     *******************************
                     * LOEWDIN POPULATION ANALYSIS *
                     *******************************

----------------------
LOEWDIN ATOMIC CHARGES
----------------------
   0 Mg:    0.000000

-------------------------------
LOEWDIN REDUCED ORBITAL CHARGES
-------------------------------
  0 Mgs       :     5.857320  s :     5.857320
      pz      :     2.046915  p :     6.140746
      px      :     2.046915
      py      :     2.046915
      dz2     :     0.000344  d :     0.001718
      dxz     :     0.000344
      dyz     :     0.000344
      dx2y2   :     0.000344
      dxy     :     0.000344
      f0      :     0.000024  f :     0.000169
      f+1     :     0.000024
      f-1     :     0.000024
      f+2     :     0.000024
      f-2     :     0.000024
      f+3     :     0.000024
      f-3     :     0.000024
      g0      :     0.000004  g :     0.000037
      g+1     :     0.000004
      g-1     :     0.000004
      g+2     :     0.000004
      g-2     :     0.000004
      g+3     :     0.000004
      g-3     :     0.000004
      g+4     :     0.000004
      g-4     :     0.000004
      h0      :     0.000001  h :     0.000011
      h+1     :     0.000001
      h-1     :     0.000001
      h+2     :     0.000001
      h-2     :     0.000001
      h+3     :     0.000001
      h-3     :     0.000001
      h+4     :     0.000001
      h-4     :     0.000001
      h+5     :     0.000001
      h-5     :     0.000001


                      *****************************
                      * MAYER POPULATION ANALYSIS *
                      *****************************

  NA   - Mulliken gross atomic population
  ZA   - Total nuclear charge
  QA   - Mulliken gross atomic charge
  VA   - Mayer's total valence
  BVA  - Mayer's bonded valence
  FA   - Mayer's free valence

  ATOM       NA         ZA         QA         VA         BVA        FA
  0 Mg    12.0000    12.0000    -0.0000     0.5571     0.0000     0.5571





------------------------------------------------------------------------------- 
                                     TIMINGS                                   
------------------------------------------------------------------------------- 


Total execution time                   ...       53.366 sec

Fock Matrix Formation                  ...        2.498 sec (  4.7%)
Initial Guess                          ...        0.000 sec (  0.0%)
DIIS Solver                            ...        0.005 sec (  0.0%)
State Vector Update                    ...        0.000 sec (  0.0%)
Sigma-vector construction              ...       10.675 sec ( 20.0%)
  <D|H|D>(2-ext Fock)                  ...        0.001 sec (  0.0% of sigma)
  <D|H|D>(2-ext)                       ...        0.005 sec (  0.0% of sigma)
  <D|H|D>(4-ext)                       ...        3.331 sec ( 31.2% of sigma)
  <D|H|D>(4-ext-corr)                  ...        0.361 sec (  3.4% of sigma)
  <S|H|D>(3-ext)                       ...        0.040 sec (  0.4% of sigma)
  Fock-dressing                        ...        6.862 sec ( 64.3% of sigma)
  (ij|ab),(ia|jb)-dressing             ...        0.050 sec (  0.5% of sigma)
Total Time for computing (T)           ...        0.007 sec (  0.0% of ALL)
  I/O of integral and amplitudes       ...        0.007 sec ( 99.9% of (T))


-------------------------   --------------------
FINAL SINGLE POINT ENERGY      -199.648602684349
-------------------------   --------------------


                            ***************************************
                            *     ORCA property calculations      *
                            ***************************************

                                    ---------------------
                                    Active property flags
                                    ---------------------
   (+) Dipole Moment


------------------------------------------------------------------------------
                       ORCA ELECTRIC PROPERTIES CALCULATION
------------------------------------------------------------------------------

Dipole Moment Calculation                       ... on
Quadrupole Moment Calculation                   ... off
Polarizability Calculation                      ... off
GBWName                                         ... 12_Mg.gbw
Electron density file                           ... 12_Mg.scfp
The origin for moment calculation is the CENTER OF MASS  = ( 0.000000,  0.000000  0.000000)

-------------
DIPOLE MOMENT
-------------
                                X             Y             Z
Electronic contribution:     -0.00000       0.00000      -0.00000
Nuclear contribution   :      0.00000       0.00000       0.00000
                        -----------------------------------------
Total Dipole Moment    :     -0.00000       0.00000      -0.00000
                        -----------------------------------------
Magnitude (a.u.)       :      0.00000
Magnitude (Debye)      :      0.00000



--------------------
Rotational spectrum 
--------------------
 
Rotational constants in cm-1:     0.000000     0.000000     0.000000 
Rotational constants in MHz :     0.000000     0.000000     0.000000 

 Dipole components along the rotational axes: 
x,y,z [a.u.] :    -0.000000     0.000000    -0.000000 
x,y,z [Debye]:    -0.000000     0.000000    -0.000000 

 

                           *** MDCI DENSITY ***

------------------------------------------------------------------------------
                       ORCA ELECTRIC PROPERTIES CALCULATION
------------------------------------------------------------------------------

Dipole Moment Calculation                       ... on
Quadrupole Moment Calculation                   ... off
Polarizability Calculation                      ... off
GBWName                                         ... 12_Mg.gbw
Electron density file                           ... 12_Mg.mdcip
The origin for moment calculation is the CENTER OF MASS  = ( 0.000000,  0.000000  0.000000)

-------------
DIPOLE MOMENT
-------------
                                X             Y             Z
Electronic contribution:     -0.00000      -0.00000      -0.00000
Nuclear contribution   :      0.00000       0.00000       0.00000
                        -----------------------------------------
Total Dipole Moment    :     -0.00000      -0.00000      -0.00000
                        -----------------------------------------
Magnitude (a.u.)       :      0.00000
Magnitude (Debye)      :      0.00000



--------------------
Rotational spectrum 
--------------------
 
Rotational constants in cm-1:     0.000000     0.000000     0.000000 
Rotational constants in MHz :     0.000000     0.000000     0.000000 

 Dipole components along the rotational axes: 
x,y,z [a.u.] :    -0.000000    -0.000000    -0.000000 
x,y,z [Debye]:    -0.000000    -0.000000    -0.000000 

 

Timings for individual modules:

Sum of individual times         ...       88.016 sec (=   1.467 min)
GTO integral calculation        ...        0.715 sec (=   0.012 min)   0.8 %
SCF iterations                  ...       33.602 sec (=   0.560 min)  38.2 %
MDCI module                     ...       53.700 sec (=   0.895 min)  61.0 %
                             ****ORCA TERMINATED NORMALLY****
TOTAL RUN TIME: 0 days 0 hours 1 minutes 28 seconds 541 msec
