
                                 *****************
                                 * O   R   C   A *
                                 *****************

           --- An Ab Initio, DFT and Semiempirical electronic structure package ---

                  #######################################################
                  #                        -***-                        #
                  #          Department of theory and spectroscopy      #
                  #               Directorship: Frank Neese             #
                  #        Max Planck Institute fuer Kohlenforschung    #
                  #                Kaiser Wilhelm Platz 1               #
                  #                 D-45470 Muelheim/Ruhr               #
                  #                      Germany                        #
                  #                                                     #
                  #                  All rights reserved                #
                  #                        -***-                        #
                  #######################################################


                         Program Version 4.2.0 -  RELEASE  -


 With contributions from (in alphabetic order):
   Daniel Aravena         : Magnetic Suceptibility
   Michael Atanasov       : Ab Initio Ligand Field Theory (pilot matlab implementation)
   Alexander A. Auer      : GIAO ZORA, VPT2
   Ute Becker             : Parallelization
   Giovanni Bistoni       : ED, misc. LED, open-shell LED, HFLED
   Martin Brehm           : Molecular dynamics
   Dmytro Bykov           : SCF Hessian
   Vijay G. Chilkuri      : MRCI spin determinant printing, contributions to CSF-ICE
   Dipayan Datta          : RHF DLPNO-CCSD density
   Achintya Kumar Dutta   : EOM-CC, STEOM-CC
   Dmitry Ganyushin       : Spin-Orbit,Spin-Spin,Magnetic field MRCI
   Miquel Garcia          : C-PCM Hessian, Gaussian charge scheme
   Yang Guo               : DLPNO-NEVPT2, CIM, IAO-localization
   Andreas Hansen         : Spin unrestricted coupled pair/coupled cluster methods
   Benjamin Helmich-Paris : CASSCF linear response (MC-RPA)
   Lee Huntington         : MR-EOM, pCC
   Robert Izsak           : Overlap fitted RIJCOSX, COSX-SCS-MP3, EOM
   Christian Kollmar      : KDIIS, OOCD, Brueckner-CCSD(T), CCSD density
   Simone Kossmann        : Meta GGA functionals, TD-DFT gradient, OOMP2, MP2 Hessian
   Martin Krupicka        : AUTO-CI
   Lucas Lang             : DCDCAS
   Dagmar Lenk            : GEPOL surface, SMD
   Dimitrios Liakos       : Extrapolation schemes; Compound Job, initial MDCI parallelization
   Dimitrios Manganas     : Further ROCIS development; embedding schemes
   Dimitrios Pantazis     : SARC Basis sets
   Taras Petrenko         : DFT Hessian,TD-DFT gradient, ASA, ECA, R-Raman, ABS, FL, XAS/XES, NRVS
   Peter Pinski           : DLPNO-MP2, DLPNO-MP2 Gradient
   Christoph Reimann      : Effective Core Potentials
   Marius Retegan         : Local ZFS, SOC
   Christoph Riplinger    : Optimizer, TS searches, QM/MM, DLPNO-CCSD(T), (RO)-DLPNO pert. Triples
   Tobias Risthaus        : Range-separated hybrids, TD-DFT gradient, RPA, STAB
   Michael Roemelt        : Original ROCIS implementation
   Masaaki Saitow         : Open-shell DLPNO-CCSD energy and density
   Barbara Sandhoefer     : DKH picture change effects
   Avijit Sen             : IP-ROCIS
   Kantharuban Sivalingam : CASSCF convergence, NEVPT2, FIC-MRCI
   Bernardo de Souza      : ESD, SOC TD-DFT
   Georgi Stoychev        : AutoAux, RI-MP2 NMR
   Willem Van den Heuvel  : Paramagnetic NMR
   Boris Wezisla          : Elementary symmetry handling
   Frank Wennmohs         : Technical directorship


 We gratefully acknowledge several colleagues who have allowed us to
 interface, adapt or use parts of their codes:
   Stefan Grimme, W. Hujo, H. Kruse,             : VdW corrections, initial TS optimization,
                  C. Bannwarth                     DFT functionals, gCP, sTDA/sTD-DF
   Ed Valeev, F. Pavosevic, A. Kumar             : LibInt (2-el integral package), F12 methods
   Garnet Chan, S. Sharma, J. Yang, R. Olivares  : DMRG
   Ulf Ekstrom                                   : XCFun DFT Library
   Mihaly Kallay                                 : mrcc  (arbitrary order and MRCC methods)
   Andreas Klamt, Michael Diedenhofen            : otool_cosmo (COSMO solvation model)
   Jiri Pittner, Ondrej Demel                    : Mk-CCSD
   Frank Weinhold                                : gennbo (NPA and NBO analysis)
   Christopher J. Cramer and Donald G. Truhlar   : smd solvation model
   Lars Goerigk                                  : TD-DFT with DH, B97 family of functionals
   V. Asgeirsson, H. Jonsson                     : NEB implementation
   FAccTs GmbH                                   : IRC, NEB, NEB-TS, Multilevel, MM, QM/MM, CI optimization
   S Lehtola, MJT Oliveira, MAL Marques          : LibXC Library


 Your calculation uses the libint2 library for the computation of 2-el integrals
 For citations please refer to: http://libint.valeyev.net

 Your ORCA version has been built with support for libXC version: 4.2.3
 For citations please refer to: https://tddft.org/programs/libxc/

 This ORCA versions uses:
   CBLAS   interface :  Fast vector & matrix operations
   LAPACKE interface :  Fast linear algebra routines
   SCALAPACK package :  Parallel linear algebra routines


----- Orbital basis set information -----
Your calculation utilizes the basis: aug-cc-pV(5+d)Z 
             Al - Ar: T.H. Dunning, Jr., K. A. Peterson and A. K. Wilson, J. Chem. Phys.
                      114, 9244 (2001)

================================================================================
                                        WARNINGS
                       Please study these warnings very carefully!
================================================================================


WARNING: your system is open-shell and RHF/RKS was chosen
  ===> : WILL SWITCH to UHF/UKS


WARNING: MDCI localization with Augmented Hessian Foster-Boys
  ===> : Switching off randomization!

WARNING: Post HF methods need fully converged wavefunctions
  ===> : Setting SCFConvForced true
         You can overwrite this default with %scf ConvForced false 


INFO   : the flag for use of LIBINT has been found!

================================================================================
                                       INPUT FILE
================================================================================
NAME = 13_Al.in
|  1> #
|  2> # 13_Al CCSD(T)/aug-cc-pv5(+d)z
|  3> #
|  4> ! CCSD(T) aug-cc-pv5(+d)z tightscf
|  5> 
|  6> *xyz 0 2
|  7>  Al 0.0 0.0 0.0
|  8> *
|  9> 
| 10> %maxcore 5000 
| 11> 
| 12> %pal
| 13> nprocs 3
| 14> end
| 15> 
| 16> 
| 17>                          ****END OF INPUT****
================================================================================

                       ****************************
                       * Single Point Calculation *
                       ****************************

---------------------------------
CARTESIAN COORDINATES (ANGSTROEM)
---------------------------------
  Al     0.000000    0.000000    0.000000

----------------------------
CARTESIAN COORDINATES (A.U.)
----------------------------
  NO LB      ZA    FRAG     MASS         X           Y           Z
   0 Al   13.0000    0    26.982    0.000000    0.000000    0.000000

--------------------------------
INTERNAL COORDINATES (ANGSTROEM)
--------------------------------
 Al     0   0   0     0.000000000000     0.00000000     0.00000000

---------------------------
INTERNAL COORDINATES (A.U.)
---------------------------
 Al     0   0   0     0.000000000000     0.00000000     0.00000000

---------------------
BASIS SET INFORMATION
---------------------
There are 1 groups of distinct atoms

 Group   1 Type Al  : 53s21p6d4f3g2h contracted to 8s7p6d4f3g2h pattern {16161611111/8811111/111111/1111/111/11}

Atom   0Al   basis set group =>   1


           ************************************************************
           *        Program running with 3 parallel MPI-processes     *
           *              working on a common directory               *
           ************************************************************
------------------------------------------------------------------------------
                           ORCA GTO INTEGRAL CALCULATION
------------------------------------------------------------------------------

                         BASIS SET STATISTICS AND STARTUP INFO

 # of primitive gaussian shells          ...   89
 # of primitive gaussian functions       ...  223
 # of contracted shells                  ...   30
 # of contracted basis functions         ...  136
 Highest angular momentum                ...    5
 Maximum contraction depth               ...   16
 Integral package used                   ... LIBINT
 Integral threshhold            Thresh   ...  2.500e-11
 Primitive cut-off              TCut     ...  2.500e-12


------------------------------ INTEGRAL EVALUATION ----------------------------


 * One electron integrals 
 Pre-screening matrix                    ... done
 Shell pair data                         ... done (   0.000 sec)



           ************************************************************
           *        Program running with 3 parallel MPI-processes     *
           *              working on a common directory               *
           ************************************************************
-------------------------------------------------------------------------------
                                 ORCA SCF
-------------------------------------------------------------------------------

------------
SCF SETTINGS
------------
Hamiltonian:
 Ab initio Hamiltonian  Method          .... Hartree-Fock(GTOs)


General Settings:
 Integral files         IntName         .... 13_Al
 Hartree-Fock type      HFTyp           .... UHF
 Total Charge           Charge          ....    0
 Multiplicity           Mult            ....    2
 Number of Electrons    NEL             ....   13
 Basis Dimension        Dim             ....  136
 Nuclear Repulsion      ENuc            ....      0.0000000000 Eh

Convergence Acceleration:
 DIIS                   CNVDIIS         .... on
   Start iteration      DIISMaxIt       ....    12
   Startup error        DIISStart       ....  0.200000
   # of expansion vecs  DIISMaxEq       ....     5
   Bias factor          DIISBfac        ....   1.050
   Max. coefficient     DIISMaxC        ....  10.000
 Newton-Raphson         CNVNR           .... off
 SOSCF                  CNVSOSCF        .... off
 Level Shifting         CNVShift        .... on
   Level shift para.    LevelShift      ....    0.2500
   Turn off err/grad.   ShiftErr        ....    0.0010
 Zerner damping         CNVZerner       .... off
 Static damping         CNVDamp         .... on
   Fraction old density DampFac         ....    0.7000
   Max. Damping (<1)    DampMax         ....    0.9800
   Min. Damping (>=0)   DampMin         ....    0.0000
   Turn off err/grad.   DampErr         ....    0.1000
 Fernandez-Rico         CNVRico         .... off

SCF Procedure:
 Maximum # iterations   MaxIter         ....   125
 SCF integral mode      SCFMode         .... Direct
   Integral package                     .... LIBINT
 Reset frequency        DirectResetFreq ....    20
 Integral Threshold     Thresh          ....  2.500e-11 Eh
 Primitive CutOff       TCut            ....  2.500e-12 Eh

Convergence Tolerance:
 Convergence Check Mode ConvCheckMode   .... Total+1el-Energy
 Convergence forced     ConvForced      .... 1
 Energy Change          TolE            ....  1.000e-08 Eh
 1-El. energy change                    ....  1.000e-05 Eh
 DIIS Error             TolErr          ....  5.000e-07


Diagonalization of the overlap matrix:
Smallest eigenvalue                        ... 1.699e-04
Time for diagonalization                   ...    0.003 sec
Threshold for overlap eigenvalues          ... 1.000e-08
Number of eigenvalues below threshold      ... 0
Time for construction of square roots      ...    0.006 sec
Total time needed                          ...    0.009 sec

-------------------
DFT GRID GENERATION
-------------------

General Integration Accuracy     IntAcc      ...  4.340
Radial Grid Type                 RadialGrid  ... Gauss-Chebyshev
Angular Grid (max. acc.)         AngularGrid ... Lebedev-110
Angular grid pruning method      GridPruning ... 3 (G Style)
Weight generation scheme         WeightScheme... Becke
Basis function cutoff            BFCut       ...    1.0000e-11
Integration weight cutoff        WCut        ...    1.0000e-14
Grids for H and He will be reduced by one unit

# of grid points (after initial pruning)     ...   1866 (   0.0 sec)
# of grid points (after weights+screening)   ...   1866 (   0.0 sec)
Grid point division into batches done        ...    0.0 sec
Reduced shell lists constructed in    0.0 sec

Total number of grid points                  ...     1866
Total number of batches                      ...       30
Average number of points per batch           ...       62
Average number of grid points per atom       ...     1866
Average number of shells per batch           ...    22.73 (75.76%)
Average number of basis functions per batch  ...   112.91 (83.02%)
Average number of large shells per batch     ...    19.45 (85.60%)
Average number of large basis fcns per batch ...   100.18 (88.73%)
Maximum spatial batch extension              ...  21.07, 38.78, 38.78 au
Average spatial batch extension              ...   5.73,  7.22,  8.87 au

Time for grid setup =    0.024 sec

------------------------------
INITIAL GUESS: MODEL POTENTIAL
------------------------------
Loading Hartree-Fock densities                     ... done
Calculating cut-offs                               ... done
Setting up the integral package                    ... done
Initializing the effective Hamiltonian             ... done
Starting the Coulomb interaction                   ... done (   0.0 sec)
Reading the grid                                   ... done
Mapping shells                                     ... done
Starting the XC term evaluation                    ... done (   0.0 sec)
Transforming the Hamiltonian                       ... done (   0.0 sec)
Diagonalizing the Hamiltonian                      ... done (   0.0 sec)
Back transforming the eigenvectors                 ... done (   0.0 sec)
Now organizing SCF variables                       ... done
                      ------------------
                      INITIAL GUESS DONE (   0.2 sec)
                      ------------------
--------------
SCF ITERATIONS
--------------
ITER       Energy         Delta-E        Max-DP      RMS-DP      [F,P]     Damp
               ***  Starting incremental Fock matrix formation  ***
  0   -241.8628940735   0.000000000000 0.19673854  0.00294882  0.1043862 0.7000
  1   -241.8673786332  -0.004484559704 0.14930158  0.00223105  0.0753925 0.7000
                               ***Turning on DIIS***
  2   -241.8708238026  -0.003445169383 0.36809710  0.00548950  0.0538790 0.0000
  3   -241.8786003728  -0.007776570247 0.04657963  0.00066195  0.0057597 0.0000
  4   -241.8815598598  -0.002959487009 0.00315807  0.00005067  0.0019846 0.0000
  5   -241.8834788965  -0.001919036661 0.00463056  0.00005130  0.0009856 0.0000
  6   -241.8805368678   0.002942028644 0.00271871  0.00002704  0.0005707 0.0000
  7   -241.8803864108   0.000150457046 0.00045949  0.00000575  0.0001591 0.0000
  8   -241.8806093258  -0.000222914970 0.00015786  0.00000230  0.0000427 0.0000
  9   -241.8807401870  -0.000130861282 0.00006775  0.00000090  0.0000132 0.0000
 10   -241.8807563021  -0.000016115043 0.00001650  0.00000021  0.0000027 0.0000
                            ***DIIS convergence achieved***

               *****************************************************
               *                     SUCCESS                       *
               *           SCF CONVERGED AFTER  11 CYCLES          *
               *****************************************************


----------------
TOTAL SCF ENERGY
----------------

Total Energy       :         -241.88076558 Eh           -6581.91025 eV

Components:
Nuclear Repulsion  :            0.00000000 Eh               0.00000 eV
Electronic Energy  :         -241.88076558 Eh           -6581.91025 eV
One Electron Energy:         -336.63659166 Eh           -9160.34736 eV
Two Electron Energy:           94.75582608 Eh            2578.43711 eV

Virial components:
Potential Energy   :         -483.76153724 Eh          -13163.82066 eV
Kinetic Energy     :          241.88077166 Eh            6581.91041 eV
Virial Ratio       :            1.99999997


---------------
SCF CONVERGENCE
---------------

  Last Energy change         ...   -9.2796e-06  Tolerance :   1.0000e-08
  Last MAX-Density change    ...    1.9941e-06  Tolerance :   1.0000e-07
  Last RMS-Density change    ...    2.7720e-08  Tolerance :   5.0000e-09
  Last DIIS Error            ...    2.9986e-07  Tolerance :   5.0000e-07

             **** THE GBW FILE WAS UPDATED (13_Al.gbw) ****
             **** DENSITY FILE WAS UPDATED (13_Al.scfp) ****
             **** ENERGY FILE WAS UPDATED (13_Al.en.tmp) ****
----------------------
UHF SPIN CONTAMINATION
----------------------

Expectation value of <S**2>     :     0.770645
Ideal value S*(S+1) for S=0.5   :     0.750000
Deviation                       :     0.020645

             **** THE GBW FILE WAS UPDATED (13_Al.gbw) ****
             **** DENSITY FILE WAS UPDATED (13_Al.scfp) ****
----------------
ORBITAL ENERGIES
----------------
                 SPIN UP ORBITALS
  NO   OCC          E(Eh)            E(eV) 
   0   1.0000     -58.500980     -1591.8926 
   1   1.0000      -4.910726      -133.6276 
   2   1.0000      -3.225217       -87.7626 
   3   1.0000      -3.217871       -87.5627 
   4   1.0000      -3.217871       -87.5627 
   5   1.0000      -0.425533       -11.5793 
   6   1.0000      -0.218529        -5.9465 
   7   0.0000       0.009256         0.2519 
   8   0.0000       0.009256         0.2519 
   9   0.0000       0.032835         0.8935 
  10   0.0000       0.034029         0.9260 
  11   0.0000       0.044523         1.2115 
  12   0.0000       0.044523         1.2115 
  13   0.0000       0.075473         2.0537 
  14   0.0000       0.075473         2.0537 
  15   0.0000       0.076721         2.0877 
  16   0.0000       0.076721         2.0877 
  17   0.0000       0.077433         2.1071 
  18   0.0000       0.175372         4.7721 
  19   0.0000       0.192978         5.2512 
  20   0.0000       0.192978         5.2512 
  21   0.0000       0.199538         5.4297 
  22   0.0000       0.199538         5.4297 
  23   0.0000       0.201876         5.4933 
  24   0.0000       0.203520         5.5381 
  25   0.0000       0.203520         5.5381 
  26   0.0000       0.207080         5.6349 
  27   0.0000       0.207080         5.6349 
  28   0.0000       0.207375         5.6430 
  29   0.0000       0.224447         6.1075 
  30   0.0000       0.226062         6.1515 
  31   0.0000       0.226062         6.1515 
  32   0.0000       0.234325         6.3763 
  33   0.0000       0.234325         6.3763 
  34   0.0000       0.523032        14.2324 
  35   0.0000       0.523032        14.2324 
  36   0.0000       0.529342        14.4041 
  37   0.0000       0.529342        14.4041 
  38   0.0000       0.533770        14.5246 
  39   0.0000       0.533770        14.5246 
  40   0.0000       0.536235        14.5917 
  41   0.0000       0.536235        14.5917 
  42   0.0000       0.537009        14.6128 
  43   0.0000       0.563269        15.3273 
  44   0.0000       0.563723        15.3397 
  45   0.0000       0.563723        15.3397 
  46   0.0000       0.566438        15.4135 
  47   0.0000       0.566438        15.4135 
  48   0.0000       0.568295        15.4641 
  49   0.0000       0.568295        15.4641 
  50   0.0000       0.573673        15.6104 
  51   0.0000       0.573673        15.6104 
  52   0.0000       0.576460        15.6863 
  53   0.0000       0.576460        15.6863 
  54   0.0000       0.577309        15.7094 
  55   0.0000       0.683022        18.5860 
  56   0.0000       0.688992        18.7484 
  57   0.0000       0.688992        18.7484 
  58   0.0000       0.773584        21.0503 
  59   0.0000       1.295697        35.2577 
  60   0.0000       1.295697        35.2577 
  61   0.0000       1.302356        35.4389 
  62   0.0000       1.302356        35.4389 
  63   0.0000       1.304506        35.4974 
  64   0.0000       1.304506        35.4974 
  65   0.0000       1.306286        35.5458 
  66   0.0000       1.306286        35.5458 
  67   0.0000       1.309730        35.6396 
  68   0.0000       1.309730        35.6396 
  69   0.0000       1.311458        35.6866 
  70   0.0000       1.313016        35.7290 
  71   0.0000       1.313016        35.7290 
  72   0.0000       1.315159        35.7873 
  73   0.0000       1.315159        35.7873 
  74   0.0000       1.316674        35.8285 
  75   0.0000       1.322210        35.9792 
  76   0.0000       1.322210        35.9792 
  77   0.0000       1.327328        36.1184 
  78   0.0000       1.327328        36.1184 
  79   0.0000       1.330434        36.2029 
  80   0.0000       1.330434        36.2029 
  81   0.0000       1.331475        36.2313 
  82   0.0000       1.405087        38.2344 
  83   0.0000       1.405087        38.2344 
  84   0.0000       1.414934        38.5023 
  85   0.0000       1.414934        38.5023 
  86   0.0000       1.422170        38.6992 
  87   0.0000       1.422170        38.6992 
  88   0.0000       1.426610        38.8200 
  89   0.0000       1.426610        38.8200 
  90   0.0000       1.428110        38.8608 
  91   0.0000       2.455418        66.8153 
  92   0.0000       2.455418        66.8153 
  93   0.0000       2.463172        67.0263 
  94   0.0000       2.658983        72.3546 
  95   0.0000       2.658983        72.3546 
  96   0.0000       2.673524        72.7503 
  97   0.0000       2.673524        72.7503 
  98   0.0000       2.678081        72.8743 
  99   0.0000       2.740931        74.5845 
 100   0.0000       2.740931        74.5845 
 101   0.0000       2.752992        74.9127 
 102   0.0000       2.752992        74.9127 
 103   0.0000       2.760396        75.1142 
 104   0.0000       2.760396        75.1142 
 105   0.0000       2.762891        75.1821 
 106   0.0000       3.021829        82.2281 
 107   0.0000       3.178974        86.5043 
 108   0.0000       3.178974        86.5043 
 109   0.0000       3.190166        86.8088 
 110   0.0000       3.190166        86.8088 
 111   0.0000       3.199023        87.0498 
 112   0.0000       3.199023        87.0498 
 113   0.0000       3.205432        87.2242 
 114   0.0000       3.205432        87.2242 
 115   0.0000       3.209310        87.3298 
 116   0.0000       3.209310        87.3298 
 117   0.0000       3.210608        87.3651 
 118   0.0000       3.282084        89.3100 
 119   0.0000       3.282084        89.3100 
 120   0.0000       3.293611        89.6237 
 121   0.0000       3.293611        89.6237 
 122   0.0000       3.301995        89.8519 
 123   0.0000       3.301995        89.8519 
 124   0.0000       3.307086        89.9904 
 125   0.0000       3.307086        89.9904 
 126   0.0000       3.308794        90.0369 
 127   0.0000       6.993191       190.2944 
 128   0.0000       6.993191       190.2944 
 129   0.0000       7.001316       190.5155 
 130   0.0000       7.001316       190.5155 
 131   0.0000       7.004093       190.5911 
 132   0.0000       9.781455       266.1669 
 133   0.0000       9.781455       266.1669 
 134   0.0000       9.785869       266.2870 
 135   0.0000      24.822393       675.4517 

                 SPIN DOWN ORBITALS
  NO   OCC          E(Eh)            E(eV) 
   0   1.0000     -58.497868     -1591.8079 
   1   1.0000      -4.907321      -133.5350 
   2   1.0000      -3.216331       -87.5208 
   3   1.0000      -3.216331       -87.5208 
   4   1.0000      -3.206990       -87.2666 
   5   1.0000      -0.363376        -9.8880 
   6   0.0000       0.012908         0.3512 
   7   0.0000       0.012908         0.3512 
   8   0.0000       0.025060         0.6819 
   9   0.0000       0.036619         0.9965 
  10   0.0000       0.047700         1.2980 
  11   0.0000       0.047700         1.2980 
  12   0.0000       0.072968         1.9856 
  13   0.0000       0.075806         2.0628 
  14   0.0000       0.075806         2.0628 
  15   0.0000       0.081117         2.2073 
  16   0.0000       0.081117         2.2073 
  17   0.0000       0.083374         2.2687 
  18   0.0000       0.196304         5.3417 
  19   0.0000       0.196304         5.3417 
  20   0.0000       0.199799         5.4368 
  21   0.0000       0.199799         5.4368 
  22   0.0000       0.206166         5.6101 
  23   0.0000       0.206166         5.6101 
  24   0.0000       0.210016         5.7148 
  25   0.0000       0.210758         5.7350 
  26   0.0000       0.210758         5.7350 
  27   0.0000       0.211234         5.7480 
  28   0.0000       0.223470         6.0809 
  29   0.0000       0.235585         6.4106 
  30   0.0000       0.235585         6.4106 
  31   0.0000       0.253364         6.8944 
  32   0.0000       0.253364         6.8944 
  33   0.0000       0.261548         7.1171 
  34   0.0000       0.523237        14.2380 
  35   0.0000       0.523237        14.2380 
  36   0.0000       0.532649        14.4941 
  37   0.0000       0.532649        14.4941 
  38   0.0000       0.539707        14.6862 
  39   0.0000       0.539707        14.6862 
  40   0.0000       0.544126        14.8064 
  41   0.0000       0.544126        14.8064 
  42   0.0000       0.545635        14.8475 
  43   0.0000       0.566815        15.4238 
  44   0.0000       0.566815        15.4238 
  45   0.0000       0.568665        15.4742 
  46   0.0000       0.568665        15.4742 
  47   0.0000       0.584343        15.9008 
  48   0.0000       0.584343        15.9008 
  49   0.0000       0.591563        16.0973 
  50   0.0000       0.591563        16.0973 
  51   0.0000       0.593899        16.1608 
  52   0.0000       0.593899        16.1608 
  53   0.0000       0.597359        16.2550 
  54   0.0000       0.601172        16.3587 
  55   0.0000       0.692116        18.8334 
  56   0.0000       0.692116        18.8334 
  57   0.0000       0.724879        19.7250 
  58   0.0000       0.784232        21.3400 
  59   0.0000       1.295214        35.2446 
  60   0.0000       1.295214        35.2446 
  61   0.0000       1.302584        35.4451 
  62   0.0000       1.302584        35.4451 
  63   0.0000       1.306144        35.5420 
  64   0.0000       1.306144        35.5420 
  65   0.0000       1.315748        35.8033 
  66   0.0000       1.315748        35.8033 
  67   0.0000       1.318672        35.8829 
  68   0.0000       1.318672        35.8829 
  69   0.0000       1.326618        36.0991 
  70   0.0000       1.326618        36.0991 
  71   0.0000       1.327703        36.1286 
  72   0.0000       1.327703        36.1286 
  73   0.0000       1.328945        36.1624 
  74   0.0000       1.328945        36.1624 
  75   0.0000       1.331418        36.2297 
  76   0.0000       1.335841        36.3501 
  77   0.0000       1.336992        36.3814 
  78   0.0000       1.336992        36.3814 
  79   0.0000       1.342766        36.5385 
  80   0.0000       1.342766        36.5385 
  81   0.0000       1.345089        36.6017 
  82   0.0000       1.404778        38.2260 
  83   0.0000       1.404778        38.2260 
  84   0.0000       1.421912        38.6922 
  85   0.0000       1.421912        38.6922 
  86   0.0000       1.434721        39.0407 
  87   0.0000       1.434721        39.0407 
  88   0.0000       1.442699        39.2578 
  89   0.0000       1.442699        39.2578 
  90   0.0000       1.445422        39.3319 
  91   0.0000       2.457297        66.8665 
  92   0.0000       2.457297        66.8665 
  93   0.0000       2.485694        67.6392 
  94   0.0000       2.659243        72.3617 
  95   0.0000       2.659243        72.3617 
  96   0.0000       2.680222        72.9326 
  97   0.0000       2.680222        72.9326 
  98   0.0000       2.686375        73.1000 
  99   0.0000       2.740294        74.5672 
 100   0.0000       2.740294        74.5672 
 101   0.0000       2.759723        75.0959 
 102   0.0000       2.759723        75.0959 
 103   0.0000       2.771789        75.4242 
 104   0.0000       2.771789        75.4242 
 105   0.0000       2.775902        75.5361 
 106   0.0000       3.028454        82.4084 
 107   0.0000       3.178154        86.4820 
 108   0.0000       3.178154        86.4820 
 109   0.0000       3.193905        86.9106 
 110   0.0000       3.193905        86.9106 
 111   0.0000       3.206443        87.2518 
 112   0.0000       3.206443        87.2518 
 113   0.0000       3.215561        87.4999 
 114   0.0000       3.215561        87.4999 
 115   0.0000       3.221100        87.6506 
 116   0.0000       3.221100        87.6506 
 117   0.0000       3.222957        87.7011 
 118   0.0000       3.281187        89.2856 
 119   0.0000       3.281187        89.2856 
 120   0.0000       3.298664        89.7612 
 121   0.0000       3.298664        89.7612 
 122   0.0000       3.311468        90.1096 
 123   0.0000       3.311468        90.1096 
 124   0.0000       3.319288        90.3224 
 125   0.0000       3.319288        90.3224 
 126   0.0000       3.321920        90.3940 
 127   0.0000       6.993508       190.3030 
 128   0.0000       6.993508       190.3030 
 129   0.0000       7.005623       190.6327 
 130   0.0000       7.005623       190.6327 
 131   0.0000       7.009769       190.7455 
 132   0.0000       9.782754       266.2023 
 133   0.0000       9.782754       266.2023 
 134   0.0000       9.798240       266.6237 
 135   0.0000      24.825365       675.5325 

                    ********************************
                    * MULLIKEN POPULATION ANALYSIS *
                    ********************************

--------------------------------------------
MULLIKEN ATOMIC CHARGES AND SPIN POPULATIONS
--------------------------------------------
   0 Al:    0.000000    1.000000
Sum of atomic charges         :    0.0000000
Sum of atomic spin populations:    1.0000000

-----------------------------------------------------
MULLIKEN REDUCED ORBITAL CHARGES AND SPIN POPULATIONS
-----------------------------------------------------
CHARGE
  0 Als       :     5.989520  s :     5.989520
      pz      :     1.999999  p :     6.999925
      px      :     1.999999
      py      :     2.999927
      dz2     :     0.002620  d :     0.010478
      dxz     :     0.000000
      dyz     :     0.000000
      dx2y2   :     0.007859
      dxy     :     0.000000
      f0      :     0.000000  f :     0.000075
      f+1     :     0.000000
      f-1     :     0.000027
      f+2     :     0.000001
      f-2     :     0.000000
      f+3     :     0.000001
      f-3     :     0.000046
      g0      :     0.000000  g :     0.000002
      g+1     :     0.000000
      g-1     :     0.000000
      g+2     :     0.000001
      g-2     :     0.000000
      g+3     :     0.000000
      g-3     :     0.000000
      g+4     :     0.000001
      g-4     :     0.000000
      h0      :     0.000000  h :     0.000000
      h+1     :     0.000000
      h-1     :     0.000000
      h+2     :     0.000000
      h-2     :     0.000000
      h+3     :     0.000000
      h-3     :     0.000000
      h+4     :     0.000000
      h-4     :     0.000000
      h+5     :     0.000000
      h-5     :     0.000000

SPIN
  0 Als       :    -0.002117  s :    -0.002117
      pz      :     0.000001  p :     0.999930
      px      :     0.000001
      py      :     0.999929
      dz2     :     0.000530  d :     0.002119
      dxz     :    -0.000000
      dyz     :     0.000000
      dx2y2   :     0.001589
      dxy     :     0.000000
      f0      :    -0.000000  f :     0.000070
      f+1     :    -0.000000
      f-1     :     0.000027
      f+2     :    -0.000000
      f-2     :    -0.000000
      f+3     :    -0.000001
      f-3     :     0.000044
      g0      :    -0.000000  g :    -0.000002
      g+1     :     0.000000
      g-1     :    -0.000000
      g+2     :    -0.000000
      g-2     :    -0.000000
      g+3     :    -0.000000
      g-3     :    -0.000000
      g+4     :    -0.000001
      g-4     :    -0.000000
      h0      :    -0.000000  h :     0.000000
      h+1     :    -0.000000
      h-1     :     0.000000
      h+2     :    -0.000000
      h-2     :    -0.000000
      h+3     :    -0.000000
      h-3     :     0.000000
      h+4     :    -0.000000
      h-4     :    -0.000000
      h+5     :    -0.000000
      h-5     :     0.000000


                     *******************************
                     * LOEWDIN POPULATION ANALYSIS *
                     *******************************

-------------------------------------------
LOEWDIN ATOMIC CHARGES AND SPIN POPULATIONS
-------------------------------------------
   0 Al:    0.000000    1.000000

----------------------------------------------------
LOEWDIN REDUCED ORBITAL CHARGES AND SPIN POPULATIONS
----------------------------------------------------
CHARGE
  0 Als       :     5.989520  s :     5.989520
      pz      :     1.999999  p :     6.999925
      px      :     1.999999
      py      :     2.999927
      dz2     :     0.002620  d :     0.010478
      dxz     :     0.000000
      dyz     :     0.000000
      dx2y2   :     0.007859
      dxy     :     0.000000
      f0      :     0.000000  f :     0.000075
      f+1     :     0.000000
      f-1     :     0.000027
      f+2     :     0.000001
      f-2     :     0.000000
      f+3     :     0.000001
      f-3     :     0.000046
      g0      :     0.000000  g :     0.000002
      g+1     :     0.000000
      g-1     :     0.000000
      g+2     :     0.000001
      g-2     :     0.000000
      g+3     :     0.000000
      g-3     :     0.000000
      g+4     :     0.000001
      g-4     :     0.000000
      h0      :     0.000000  h :     0.000000
      h+1     :     0.000000
      h-1     :     0.000000
      h+2     :     0.000000
      h-2     :     0.000000
      h+3     :     0.000000
      h-3     :     0.000000
      h+4     :     0.000000
      h-4     :     0.000000
      h+5     :     0.000000
      h-5     :     0.000000

SPIN
  0 Als       :    -0.002117  s :    -0.002117
      pz      :     0.000001  p :     0.999930
      px      :     0.000001
      py      :     0.999929
      dz2     :     0.000530  d :     0.002119
      dxz     :    -0.000000
      dyz     :     0.000000
      dx2y2   :     0.001589
      dxy     :     0.000000
      f0      :    -0.000000  f :     0.000070
      f+1     :    -0.000000
      f-1     :     0.000027
      f+2     :    -0.000000
      f-2     :    -0.000000
      f+3     :    -0.000001
      f-3     :     0.000044
      g0      :    -0.000000  g :    -0.000002
      g+1     :     0.000000
      g-1     :    -0.000000
      g+2     :    -0.000000
      g-2     :    -0.000000
      g+3     :    -0.000000
      g-3     :    -0.000000
      g+4     :    -0.000001
      g-4     :    -0.000000
      h0      :    -0.000000  h :     0.000000
      h+1     :    -0.000000
      h-1     :     0.000000
      h+2     :    -0.000000
      h-2     :    -0.000000
      h+3     :    -0.000000
      h-3     :     0.000000
      h+4     :    -0.000000
      h-4     :    -0.000000
      h+5     :    -0.000000
      h-5     :     0.000000


                      *****************************
                      * MAYER POPULATION ANALYSIS *
                      *****************************

  NA   - Mulliken gross atomic population
  ZA   - Total nuclear charge
  QA   - Mulliken gross atomic charge
  VA   - Mayer's total valence
  BVA  - Mayer's bonded valence
  FA   - Mayer's free valence

  ATOM       NA         ZA         QA         VA         BVA        FA
  0 Al    13.0000    13.0000     0.0000     1.0413     0.0000     1.0413

  Mayer bond orders larger than 0.100000


-------
TIMINGS
-------

Total SCF time: 0 days 0 hours 0 min 30 sec 

Total time                  ....      30.169 sec
Sum of individual times     ....      29.818 sec  ( 98.8%)

Fock matrix formation       ....      29.522 sec  ( 97.9%)
Diagonalization             ....       0.067 sec  (  0.2%)
Density matrix formation    ....       0.005 sec  (  0.0%)
Population analysis         ....       0.020 sec  (  0.1%)
Initial guess               ....       0.129 sec  (  0.4%)
Orbital Transformation      ....       0.000 sec  (  0.0%)
Orbital Orthonormalization  ....       0.000 sec  (  0.0%)
DIIS solution               ....       0.052 sec  (  0.2%)


           ************************************************************
           *        Program running with 3 parallel MPI-processes     *
           *              working on a common directory               *
           ************************************************************


------------------------------------------------------------------------------- 
                              ORCA-MATRIX DRIVEN CI                            
------------------------------------------------------------------------------- 

--------------------------------
AUTOMATIC CHOICE OF INCORE LEVEL
--------------------------------

Memory available                           ...   2500.00 MB
Memory needed for S+T                      ...      1.14 MB
Memory needed for J+K                      ...      2.29 MB
Memory needed for DIIS                     ...     16.00 MB
Memory needed for 3-ext                    ...     32.76 MB
Memory needed for 4-ext                    ...   1064.57 MB
Memory needed for triples                  ...     81.89 MB
 -> Final InCoreLevel    ... 5
 -> check shows that triples correction can be computed


Wavefunction type
-----------------
Correlation treatment                      ...      CCSD     
Single excitations                         ... ON
Orbital optimization                       ... OFF
Calculation of Z vector                    ... OFF
Calculation of Brueckner orbitals          ... OFF
Perturbative triple excitations            ... ON
Calculation of F12 correction              ... OFF
Frozen core treatment                      ... chemical core (10 el)
Reference Wavefunction                     ... UHF
  Alpha-MOs occ    :     5 ...    6 (  2 MO's/  2 electrons)
  Beta-MOs occ     :     5 ...    5 (  1 MO's/  1 electrons)
  Alpha-MOs virt   :     7 ...  135 (129 MO's              )
  Beta-MOs virt    :     6 ...  135 (130 MO's              )
Number of AO's                             ...    136
Number of electrons                        ...     13
Number of correlated electrons             ...      3

Algorithmic settings
--------------------
Integral transformation                    ... AO direct full transformation
K(C) Formation                             ... FULL-MO TRAFO
Maximum number of iterations               ...        50
Convergence tolerance (max. residuum)      ... 1.000e-05
Level shift for amplitude update           ... 2.000e-01
Maximum number of DIIS vectors             ...         7
DIIS turned on at iteration                ...         0
Damping before turning on DIIS             ...     0.500
Damping after turning on DIIS              ...     0.000
Pair specific amplitude update             ... OFF
Natural orbital iterations                 ... OFF
Perturbative natural orbital generation    ... OFF
Printlevel                                 ... 2

Memory handling:
----------------
Maximum memory for working arrays          ...   2500 MB
Data storage in matrix containers          ... UNCOMPRESSED
Data type for integral storage             ... DOUBLE
In-Core Storage of quantities:
   Amplitudes+Sigma Vector      ... YES
   J+K operators                ... YES
   DIIS vectors                 ... YES
   3-external integrals         ... YES
   4-external integrals         ... YES


Initializing the integral package          ... done
Warning: reference  - re-canonicalizations have been set to INT 1 VIRT 1

--------------------------
UNRESTRICTED FOCK OPERATOR
--------------------------

<ss|ss>:          666 b            0 skpd (  0.0%)    0.017 s ( 0.026 ms/b)
<ss|sp>:         2016 b            0 skpd (  0.0%)    0.087 s ( 0.043 ms/b)
<ss|sd>:         1728 b            0 skpd (  0.0%)    0.017 s ( 0.010 ms/b)
<ss|sf>:         1152 b            1 skpd (  0.1%)    0.016 s ( 0.014 ms/b)
<ss|sg>:          864 b            1 skpd (  0.1%)    0.020 s ( 0.023 ms/b)
<ss|sh>:          576 b            1 skpd (  0.2%)    0.015 s ( 0.026 ms/b)
<ss|pp>:         1008 b            0 skpd (  0.0%)    0.027 s ( 0.026 ms/b)
<ss|pd>:         1512 b            0 skpd (  0.0%)    0.011 s ( 0.007 ms/b)
<ss|pf>:         1008 b            0 skpd (  0.0%)    0.015 s ( 0.015 ms/b)
<ss|pg>:          756 b            0 skpd (  0.0%)    0.013 s ( 0.017 ms/b)
<ss|ph>:          504 b            0 skpd (  0.0%)    0.017 s ( 0.034 ms/b)
<ss|dd>:          756 b            0 skpd (  0.0%)    0.003 s ( 0.004 ms/b)
<ss|df>:          864 b            0 skpd (  0.0%)    0.006 s ( 0.007 ms/b)
<ss|dg>:          648 b            0 skpd (  0.0%)    0.006 s ( 0.010 ms/b)
<ss|dh>:          432 b            0 skpd (  0.0%)    0.006 s ( 0.014 ms/b)
<ss|ff>:          360 b            0 skpd (  0.0%)    0.004 s ( 0.012 ms/b)
<ss|fg>:          432 b            0 skpd (  0.0%)    0.006 s ( 0.015 ms/b)
<ss|fh>:          288 b            0 skpd (  0.0%)    0.006 s ( 0.022 ms/b)
<ss|gg>:          216 b            0 skpd (  0.0%)    0.005 s ( 0.022 ms/b)
<ss|gh>:          216 b            0 skpd (  0.0%)    0.006 s ( 0.029 ms/b)
<ss|hh>:          108 b            0 skpd (  0.0%)    0.004 s ( 0.038 ms/b)
<sp|sp>:         1596 b            0 skpd (  0.0%)    0.038 s ( 0.024 ms/b)
<sp|sd>:         2688 b            6 skpd (  0.2%)    0.019 s ( 0.007 ms/b)
<sp|sf>:         1792 b           13 skpd (  0.7%)    0.020 s ( 0.011 ms/b)
<sp|sg>:         1344 b           28 skpd (  2.1%)    0.025 s ( 0.019 ms/b)
<sp|sh>:          896 b           24 skpd (  2.7%)    0.019 s ( 0.021 ms/b)
<sp|pp>:         1568 b            0 skpd (  0.0%)    0.022 s ( 0.014 ms/b)
<sp|pd>:         2352 b            1 skpd (  0.0%)    0.015 s ( 0.006 ms/b)
<sp|pf>:         1568 b            2 skpd (  0.1%)    0.021 s ( 0.014 ms/b)
<sp|pg>:         1176 b            2 skpd (  0.2%)    0.018 s ( 0.015 ms/b)
<sp|ph>:          784 b            1 skpd (  0.1%)    0.023 s ( 0.029 ms/b)
<sp|dd>:         1176 b            1 skpd (  0.1%)    0.005 s ( 0.005 ms/b)
<sp|df>:         1344 b            3 skpd (  0.2%)    0.010 s ( 0.007 ms/b)
<sp|dg>:         1008 b            6 skpd (  0.6%)    0.010 s ( 0.010 ms/b)
<sp|dh>:          672 b            4 skpd (  0.6%)    0.009 s ( 0.014 ms/b)
<sp|ff>:          560 b            0 skpd (  0.0%)    0.007 s ( 0.012 ms/b)
<sp|fg>:          672 b            1 skpd (  0.1%)    0.010 s ( 0.015 ms/b)
<sp|fh>:          448 b            0 skpd (  0.0%)    0.011 s ( 0.024 ms/b)
<sp|gg>:          336 b            7 skpd (  2.1%)    0.007 s ( 0.021 ms/b)
<sp|gh>:          336 b            6 skpd (  1.8%)    0.010 s ( 0.029 ms/b)
<sp|hh>:          168 b            5 skpd (  3.0%)    0.006 s ( 0.036 ms/b)
<sd|sd>:         1176 b            5 skpd (  0.4%)    0.005 s ( 0.005 ms/b)
<sd|sf>:         1536 b           23 skpd (  1.5%)    0.010 s ( 0.006 ms/b)
<sd|sg>:         1152 b           26 skpd (  2.3%)    0.013 s ( 0.012 ms/b)
<sd|sh>:          768 b           21 skpd (  2.7%)    0.011 s ( 0.015 ms/b)
<sd|pp>:         1344 b            2 skpd (  0.1%)    0.010 s ( 0.007 ms/b)
<sd|pd>:         2016 b           17 skpd (  0.8%)    0.009 s ( 0.005 ms/b)
<sd|pf>:         1344 b           14 skpd (  1.0%)    0.011 s ( 0.008 ms/b)
<sd|pg>:         1008 b           37 skpd (  3.7%)    0.012 s ( 0.012 ms/b)
<sd|ph>:          672 b           23 skpd (  3.4%)    0.012 s ( 0.018 ms/b)
<sd|dd>:         1008 b            5 skpd (  0.5%)    0.004 s ( 0.004 ms/b)
<sd|df>:         1152 b           13 skpd (  1.1%)    0.007 s ( 0.006 ms/b)
<sd|dg>:          864 b           11 skpd (  1.3%)    0.007 s ( 0.009 ms/b)
<sd|dh>:          576 b            6 skpd (  1.0%)    0.007 s ( 0.012 ms/b)
<sd|ff>:          480 b            6 skpd (  1.2%)    0.005 s ( 0.011 ms/b)
<sd|fg>:          576 b           13 skpd (  2.3%)    0.008 s ( 0.013 ms/b)
<sd|fh>:          384 b            9 skpd (  2.3%)    0.007 s ( 0.020 ms/b)
<sd|gg>:          288 b            6 skpd (  2.1%)    0.005 s ( 0.019 ms/b)
<sd|gh>:          288 b            6 skpd (  2.1%)    0.007 s ( 0.025 ms/b)
<sd|hh>:          144 b            3 skpd (  2.1%)    0.005 s ( 0.034 ms/b)
<sf|sf>:          528 b           25 skpd (  4.7%)    0.006 s ( 0.012 ms/b)
<sf|sg>:          768 b           57 skpd (  7.4%)    0.012 s ( 0.017 ms/b)
<sf|sh>:          512 b           43 skpd (  8.4%)    0.013 s ( 0.027 ms/b)
<sf|pp>:          896 b            4 skpd (  0.4%)    0.014 s ( 0.015 ms/b)
<sf|pd>:         1344 b           25 skpd (  1.9%)    0.012 s ( 0.009 ms/b)
<sf|pf>:          896 b           25 skpd (  2.8%)    0.014 s ( 0.016 ms/b)
<sf|pg>:          672 b           25 skpd (  3.7%)    0.018 s ( 0.028 ms/b)
<sf|ph>:          448 b           16 skpd (  3.6%)    0.019 s ( 0.043 ms/b)
<sf|dd>:          672 b           12 skpd (  1.8%)    0.004 s ( 0.006 ms/b)
<sf|df>:          768 b           38 skpd (  4.9%)    0.008 s ( 0.011 ms/b)
<sf|dg>:          576 b           35 skpd (  6.1%)    0.009 s ( 0.016 ms/b)
<sf|dh>:          384 b           24 skpd (  6.2%)    0.008 s ( 0.022 ms/b)
<sf|ff>:          320 b           13 skpd (  4.1%)    0.007 s ( 0.023 ms/b)
<sf|fg>:          384 b           22 skpd (  5.7%)    0.010 s ( 0.028 ms/b)
<sf|fh>:          256 b           17 skpd (  6.6%)    0.010 s ( 0.042 ms/b)
<sf|gg>:          192 b           20 skpd ( 10.4%)    0.006 s ( 0.037 ms/b)
<sf|gh>:          192 b           24 skpd ( 12.5%)    0.008 s ( 0.046 ms/b)
<sf|hh>:           96 b           23 skpd ( 24.0%)    0.004 s ( 0.061 ms/b)
<sg|sg>:          300 b           29 skpd (  9.7%)    0.010 s ( 0.036 ms/b)
<sg|sh>:          384 b           41 skpd ( 10.7%)    0.018 s ( 0.054 ms/b)
<sg|pp>:          672 b            8 skpd (  1.2%)    0.019 s ( 0.029 ms/b)
<sg|pd>:         1008 b           73 skpd (  7.2%)    0.014 s ( 0.015 ms/b)
<sg|pf>:          672 b           33 skpd (  4.9%)    0.018 s ( 0.029 ms/b)
<sg|pg>:          504 b           82 skpd ( 16.3%)    0.017 s ( 0.041 ms/b)
<sg|ph>:          336 b           53 skpd ( 15.8%)    0.017 s ( 0.061 ms/b)
<sg|dd>:          504 b           14 skpd (  2.8%)    0.006 s ( 0.011 ms/b)
<sg|df>:          576 b           42 skpd (  7.3%)    0.011 s ( 0.020 ms/b)
<sg|dg>:          432 b           34 skpd (  7.9%)    0.013 s ( 0.032 ms/b)
<sg|dh>:          288 b           23 skpd (  8.0%)    0.011 s ( 0.043 ms/b)
<sg|ff>:          240 b           17 skpd (  7.1%)    0.009 s ( 0.039 ms/b)
<sg|fg>:          288 b           37 skpd ( 12.8%)    0.012 s ( 0.046 ms/b)
<sg|fh>:          192 b           25 skpd ( 13.0%)    0.011 s ( 0.068 ms/b)
<sg|gg>:          144 b           18 skpd ( 12.5%)    0.009 s ( 0.071 ms/b)
<sg|gh>:          144 b           18 skpd ( 12.5%)    0.012 s ( 0.091 ms/b)
<sg|hh>:           72 b            9 skpd ( 12.5%)    0.008 s ( 0.122 ms/b)
<sh|sh>:          136 b           17 skpd ( 12.5%)    0.014 s ( 0.115 ms/b)
<sh|pp>:          448 b            6 skpd (  1.3%)    0.025 s ( 0.056 ms/b)
<sh|pd>:          672 b           63 skpd (  9.4%)    0.018 s ( 0.029 ms/b)
<sh|pf>:          448 b           22 skpd (  4.9%)    0.024 s ( 0.057 ms/b)
<sh|pg>:          336 b           54 skpd ( 16.1%)    0.021 s ( 0.076 ms/b)
<sh|ph>:          224 b           74 skpd ( 33.0%)    0.011 s ( 0.072 ms/b)
<sh|dd>:          336 b           12 skpd (  3.6%)    0.007 s ( 0.020 ms/b)
<sh|df>:          384 b           38 skpd (  9.9%)    0.011 s ( 0.033 ms/b)
<sh|dg>:          288 b           29 skpd ( 10.1%)    0.014 s ( 0.053 ms/b)
<sh|dh>:          192 b           19 skpd (  9.9%)    0.013 s ( 0.074 ms/b)
<sh|ff>:          160 b           16 skpd ( 10.0%)    0.010 s ( 0.068 ms/b)
<sh|fg>:          192 b           24 skpd ( 12.5%)    0.013 s ( 0.080 ms/b)
<sh|fh>:          128 b           66 skpd ( 51.6%)    0.003 s ( 0.048 ms/b)
<sh|gg>:           96 b           12 skpd ( 12.5%)    0.010 s ( 0.118 ms/b)
<sh|gh>:           96 b           12 skpd ( 12.5%)    0.013 s ( 0.151 ms/b)
<sh|hh>: done
<pp|pp>:          406 b            0 skpd (  0.0%)    0.007 s ( 0.016 ms/b)
<pp|pd>:         1176 b            0 skpd (  0.0%)    0.009 s ( 0.008 ms/b)
<pp|pf>:          784 b            0 skpd (  0.0%)    0.011 s ( 0.014 ms/b)
<pp|pg>:          588 b            0 skpd (  0.0%)    0.013 s ( 0.023 ms/b)
<pp|ph>:          392 b            0 skpd (  0.0%)    0.013 s ( 0.034 ms/b)
<pp|dd>:          588 b            0 skpd (  0.0%)    0.004 s ( 0.006 ms/b)
<pp|df>:          672 b            0 skpd (  0.0%)    0.007 s ( 0.010 ms/b)
<pp|dg>:          504 b            0 skpd (  0.0%)    0.007 s ( 0.015 ms/b)
<pp|dh>:          336 b            0 skpd (  0.0%)    0.007 s ( 0.020 ms/b)
<pp|ff>:          280 b            0 skpd (  0.0%)    0.005 s ( 0.019 ms/b)
<pp|fg>:          336 b            0 skpd (  0.0%)    0.008 s ( 0.022 ms/b)
<pp|fh>:          224 b            0 skpd (  0.0%)    0.008 s ( 0.034 ms/b)
<pp|gg>:          168 b            0 skpd (  0.0%)    0.005 s ( 0.032 ms/b)
<pp|gh>:          168 b            0 skpd (  0.0%)    0.007 s ( 0.044 ms/b)
<pp|hh>:           84 b            0 skpd (  0.0%)    0.005 s ( 0.063 ms/b)
<pd|pd>:          903 b            0 skpd (  0.0%)    0.007 s ( 0.007 ms/b)
<pd|pf>:         1176 b            0 skpd (  0.0%)    0.014 s ( 0.012 ms/b)
<pd|pg>:          882 b            0 skpd (  0.0%)    0.017 s ( 0.020 ms/b)
<pd|ph>:          588 b            0 skpd (  0.0%)    0.017 s ( 0.029 ms/b)
<pd|dd>:          882 b            2 skpd (  0.2%)    0.007 s ( 0.008 ms/b)
<pd|df>:         1008 b            1 skpd (  0.1%)    0.012 s ( 0.012 ms/b)
<pd|dg>:          756 b            7 skpd (  0.9%)    0.013 s ( 0.018 ms/b)
<pd|dh>:          504 b            5 skpd (  1.0%)    0.012 s ( 0.023 ms/b)
<pd|ff>:          420 b            0 skpd (  0.0%)    0.009 s ( 0.022 ms/b)
<pd|fg>:          504 b            0 skpd (  0.0%)    0.013 s ( 0.027 ms/b)
<pd|fh>:          336 b            0 skpd (  0.0%)    0.013 s ( 0.039 ms/b)
<pd|gg>:          252 b            4 skpd (  1.6%)    0.009 s ( 0.036 ms/b)
<pd|gh>:          252 b            2 skpd (  0.8%)    0.013 s ( 0.051 ms/b)
<pd|hh>:          126 b            0 skpd (  0.0%)    0.009 s ( 0.068 ms/b)
<pf|pf>:          406 b            0 skpd (  0.0%)    0.009 s ( 0.023 ms/b)
<pf|pg>:          588 b            0 skpd (  0.0%)    0.022 s ( 0.038 ms/b)
<pf|ph>:          392 b            0 skpd (  0.0%)    0.022 s ( 0.057 ms/b)
<pf|dd>:          588 b            0 skpd (  0.0%)    0.006 s ( 0.011 ms/b)
<pf|df>:          672 b            0 skpd (  0.0%)    0.013 s ( 0.020 ms/b)
<pf|dg>:          504 b            0 skpd (  0.0%)    0.014 s ( 0.028 ms/b)
<pf|dh>:          336 b            0 skpd (  0.0%)    0.013 s ( 0.038 ms/b)
<pf|ff>:          280 b            0 skpd (  0.0%)    0.011 s ( 0.038 ms/b)
<pf|fg>:          336 b            0 skpd (  0.0%)    0.017 s ( 0.050 ms/b)
<pf|fh>:          224 b            0 skpd (  0.0%)    0.016 s ( 0.070 ms/b)
<pf|gg>:          168 b            0 skpd (  0.0%)    0.011 s ( 0.064 ms/b)
<pf|gh>:          168 b            0 skpd (  0.0%)    0.015 s ( 0.089 ms/b)
<pf|hh>:           84 b            0 skpd (  0.0%)    0.010 s ( 0.123 ms/b)
<pg|pg>:          231 b            0 skpd (  0.0%)    0.015 s ( 0.067 ms/b)
<pg|ph>:          294 b            0 skpd (  0.0%)    0.031 s ( 0.106 ms/b)
<pg|dd>:          441 b            2 skpd (  0.5%)    0.008 s ( 0.018 ms/b)
<pg|df>:          504 b            0 skpd (  0.0%)    0.015 s ( 0.030 ms/b)
<pg|dg>:          378 b           34 skpd (  9.0%)    0.016 s ( 0.045 ms/b)
<pg|dh>:          252 b           17 skpd (  6.7%)    0.015 s ( 0.063 ms/b)
<pg|ff>:          210 b            0 skpd (  0.0%)    0.012 s ( 0.057 ms/b)
<pg|fg>:          252 b            0 skpd (  0.0%)    0.019 s ( 0.077 ms/b)
<pg|fh>:          168 b            0 skpd (  0.0%)    0.019 s ( 0.116 ms/b)
<pg|gg>:          126 b            4 skpd (  3.2%)    0.013 s ( 0.107 ms/b)
<pg|gh>:          126 b            2 skpd (  1.6%)    0.019 s ( 0.152 ms/b)
<pg|hh>:           63 b            0 skpd (  0.0%)    0.013 s ( 0.200 ms/b)
<ph|ph>:          105 b            0 skpd (  0.0%)    0.019 s ( 0.180 ms/b)
<ph|dd>:          294 b            2 skpd (  0.7%)    0.008 s ( 0.028 ms/b)
<ph|df>:          336 b            0 skpd (  0.0%)    0.016 s ( 0.048 ms/b)
<ph|dg>:          252 b           18 skpd (  7.1%)    0.017 s ( 0.073 ms/b)
<ph|dh>:          168 b           25 skpd ( 14.9%)    0.016 s ( 0.111 ms/b)
<ph|ff>:          140 b            0 skpd (  0.0%)    0.013 s ( 0.092 ms/b)
<ph|fg>:          168 b            0 skpd (  0.0%)    0.019 s ( 0.111 ms/b)
<ph|fh>:          112 b            0 skpd (  0.0%)    0.020 s ( 0.176 ms/b)
<ph|gg>:           84 b            1 skpd (  1.2%)    0.014 s ( 0.163 ms/b)
<ph|gh>:           84 b            2 skpd (  2.4%)    0.019 s ( 0.232 ms/b)
<ph|hh>:           42 b            0 skpd (  0.0%)    0.014 s ( 0.343 ms/b)
<dd|dd>:          231 b            0 skpd (  0.0%)    0.003 s ( 0.012 ms/b)
<dd|df>:          504 b            1 skpd (  0.2%)    0.009 s ( 0.017 ms/b)
<dd|dg>:          378 b            1 skpd (  0.3%)    0.009 s ( 0.024 ms/b)
<dd|dh>:          252 b            1 skpd (  0.4%)    0.008 s ( 0.032 ms/b)
<dd|ff>:          210 b            0 skpd (  0.0%)    0.006 s ( 0.029 ms/b)
<dd|fg>:          252 b            0 skpd (  0.0%)    0.009 s ( 0.036 ms/b)
<dd|fh>:          168 b            0 skpd (  0.0%)    0.009 s ( 0.053 ms/b)
<dd|gg>:          126 b            0 skpd (  0.0%)    0.006 s ( 0.050 ms/b)
<dd|gh>:          126 b            0 skpd (  0.0%)    0.009 s ( 0.070 ms/b)
<dd|hh>:           63 b            0 skpd (  0.0%)    0.006 s ( 0.098 ms/b)
<df|df>:          300 b            1 skpd (  0.3%)    0.009 s ( 0.030 ms/b)
<df|dg>:          432 b            3 skpd (  0.7%)    0.016 s ( 0.038 ms/b)
<df|dh>:          288 b            3 skpd (  1.0%)    0.014 s ( 0.050 ms/b)
<df|ff>:          240 b            0 skpd (  0.0%)    0.012 s ( 0.052 ms/b)
<df|fg>:          288 b            0 skpd (  0.0%)    0.018 s ( 0.062 ms/b)
<df|fh>:          192 b            0 skpd (  0.0%)    0.017 s ( 0.090 ms/b)
<df|gg>:          144 b            0 skpd (  0.0%)    0.012 s ( 0.084 ms/b)
<df|gh>:          144 b            1 skpd (  0.7%)    0.017 s ( 0.117 ms/b)
<df|hh>:           72 b            3 skpd (  4.2%)    0.011 s ( 0.164 ms/b)
<dg|dg>:          171 b            2 skpd (  1.2%)    0.011 s ( 0.062 ms/b)
<dg|dh>:          216 b            3 skpd (  1.4%)    0.015 s ( 0.072 ms/b)
<dg|ff>:          180 b            0 skpd (  0.0%)    0.012 s ( 0.067 ms/b)
<dg|fg>:          216 b            3 skpd (  1.4%)    0.019 s ( 0.089 ms/b)
<dg|fh>:          144 b            2 skpd (  1.4%)    0.018 s ( 0.124 ms/b)
<dg|gg>:          108 b            0 skpd (  0.0%)    0.014 s ( 0.131 ms/b)
<dg|gh>:          108 b            0 skpd (  0.0%)    0.019 s ( 0.177 ms/b)
<dg|hh>:           54 b            0 skpd (  0.0%)    0.013 s ( 0.240 ms/b)
<dh|dh>:           78 b            2 skpd (  2.6%)    0.009 s ( 0.125 ms/b)
<dh|ff>:          120 b            0 skpd (  0.0%)    0.011 s ( 0.094 ms/b)
<dh|fg>:          144 b            2 skpd (  1.4%)    0.017 s ( 0.117 ms/b)
<dh|fh>:           96 b           26 skpd ( 27.1%)    0.014 s ( 0.200 ms/b)
<dh|gg>:           72 b            0 skpd (  0.0%)    0.012 s ( 0.168 ms/b)
<dh|gh>:           72 b            0 skpd (  0.0%)    0.019 s ( 0.265 ms/b)
<dh|hh>: done
<ff|ff>:           55 b            0 skpd (  0.0%)    0.004 s ( 0.079 ms/b)
<ff|fg>:          120 b            0 skpd (  0.0%)    0.012 s ( 0.102 ms/b)
<ff|fh>:           80 b            0 skpd (  0.0%)    0.012 s ( 0.152 ms/b)
<ff|gg>:           60 b            0 skpd (  0.0%)    0.009 s ( 0.144 ms/b)
<ff|gh>:           60 b            0 skpd (  0.0%)    0.012 s ( 0.206 ms/b)
<ff|hh>:           30 b            0 skpd (  0.0%)    0.009 s ( 0.297 ms/b)
<fg|fg>:           78 b            0 skpd (  0.0%)    0.014 s ( 0.178 ms/b)
<fg|fh>:           96 b            0 skpd (  0.0%)    0.023 s ( 0.238 ms/b)
<fg|gg>:           72 b            0 skpd (  0.0%)    0.017 s ( 0.238 ms/b)
<fg|gh>:           72 b            0 skpd (  0.0%)    0.024 s ( 0.340 ms/b)
<fg|hh>:           36 b            0 skpd (  0.0%)    0.016 s ( 0.450 ms/b)
<fh|fh>:           36 b            0 skpd (  0.0%)    0.014 s ( 0.379 ms/b)
<fh|gg>:           48 b            0 skpd (  0.0%)    0.015 s ( 0.313 ms/b)
<fh|gh>:           48 b            1 skpd (  2.1%)    0.023 s ( 0.495 ms/b)
<fh|hh>:           24 b            0 skpd (  0.0%)    0.017 s ( 0.718 ms/b)
<gg|gg>:           21 b            0 skpd (  0.0%)    0.011 s ( 0.504 ms/b)
<gg|gh>:           36 b            0 skpd (  0.0%)    0.022 s ( 0.606 ms/b)
<gg|hh>:           18 b            0 skpd (  0.0%)    0.014 s ( 0.803 ms/b)
<gh|gh>:           21 b            0 skpd (  0.0%)    0.023 s ( 1.110 ms/b)
<gh|hh>: done
<hh|hh>: done
Recanonicalizing the internal orbitals
Recanonicalizing the virtual orbitals
Time needed for Fock operator              ...            2.922 sec
Reference energy                           ...   -241.880766370
Warning: for UHF the TrafoType has to be JK
Warning: for UHF the K(C)-option cannot be MO but must be AOX

-------------------------------
PARTIAL EXCHANGE TRANSFORMATION
-------------------------------

Transformation type                        ... two-operators
Generation of integrals (i,mue|j,nue)      ... ON
Generation of integrals (mue,kappa|nue,tau)... ON
Generation of integrals (i,mue|a,nue)      ... ON
Dimension of the basis                     ...  136
Number of internal alpha-MOs               ...    2 (   5-   6)
Number of internal beta-MOs                ...    1 (   5-   5)
Number of external alpha-MOs               ...  129 (   7- 135)
Number of external beta-MOs                ...  130 (   6- 135)
Pair cutoff                                ... 0.000e+00 Eh
Number of AO pairs in the trafo            ... 9316
Total Number of distinct AO pairs          ... 9316
Memory devoted for trafo                   ... 2500.0 MB 
Max. Number of MO pairs treated together   ... 17716      
Number Format for Storage                  ... Double (8 Byte)
Integral package used                      ... LIBINT

Starting integral evaluation:
    ... done with AO integral generation
Closing buffer AOK[aa] ( 0.00 GB; CompressionRatio= 0.73)
Closing buffer AOK[bb] ( 0.00 GB; CompressionRatio= 0.40)
Closing buffer AOK[ab] ( 0.00 GB; CompressionRatio= 0.57)
Closing buffer AOK[ba] ( 0.00 GB; CompressionRatio= 0.57)
Collecting buffer AOK 
Closing buffer IAAO1[aa] ( 0.01 GB; CompressionRatio= 0.99)
Closing buffer IAAO1[bb] ( 0.00 GB; CompressionRatio= 0.99)
Closing buffer IAAO1[ab] ( 0.01 GB; CompressionRatio= 0.99)
Closing buffer IAAO1[ba] ( 0.00 GB; CompressionRatio= 0.99)
Closing buffer IAAO2[aa] ( 0.01 GB; CompressionRatio= 0.99)
Closing buffer IAAO2[bb] ( 0.00 GB; CompressionRatio= 0.99)
Closing buffer IAAO2[ab] ( 0.01 GB; CompressionRatio= 0.99)
Closing buffer IAAO2[ba] ( 0.00 GB; CompressionRatio= 0.99)
Collecting buffer IAAO 
Closing buffer PRQS    ( 0.40 GB; CompressionRatio= 1.00)
Collecting buffer PRQS 
Number of alpha/alpha MO pairs in trafo    ...    3
Number of beta /beta  MO pairs in trafo    ...    1
Number of alpha/ beta MO pairs in trafo    ...    2
------------------------
SORTING OF (i,mue|j,nue)
------------------------

SORTING OF ALPHA/ALPHA PAIRS
IBATCH = 1 of  1
Closing buffer KAO[aa] ( 0.00 GB; CompressionRatio= 1.00)
Collecting buffer KAO 
SORTING OF BETA /BETA  PAIRS
IBATCH = 1 of  1
Closing buffer KAO[bb] ( 0.00 GB; CompressionRatio= 1.00)
Collecting buffer KAO 
SORTING OF ALPHA/BETA  PAIRS
IBATCH = 1 of  1
Closing buffer KAO[ab] ( 0.00 GB; CompressionRatio= 0.999918907961)
Collecting buffer KAO[ab] 
------------------------
SORTING OF (i,mue|a,nue)
------------------------

Number of alpha/alpha (i,a) pairs in trafo  ...  258
Number of beta /beta  (i,a) pairs in trafo  ...  130
Number of alpha/ beta (i,a) pairs in trafo  ...  260
Number of beta /alpha (i,a) pairs in trafo  ...  129
Setting up the alpha/alpha list             ... done
Setting up the beta /beta  list             ... done
Setting up the alpha/beta  list             ... done
Setting up the beta /alpha list             ... done
    ... Now sorting (i,mue|a,nue)integrals
    ... Integrals (i,b|a,c) will be made on the fly
SORTING OF ALPHA/ALPHA PAIRS
IBATCH = 1 of  1
Closing buffer IPAQ[aa]  0.01 GB; CompressionRatio= 1.00)
SORTING OF BETA /BETA  PAIRS
IBATCH = 1 of  1
Closing buffer IPAQ[bb]( 0.01 GB; CompressionRatio= 1.00)
SORTING OF ALPHA/BETA  PAIRS (NMatSort_ab=87)
IBATCH = 1 of  1
Closing buffer IPAQ[ab]( 0.01 GB; CompressionRatio= 1.00)
SORTING OF BETA/ALPHA  PAIRS
IBATCH = 1 of  1
Closing buffer IPAQ[ba]( 0.01 GB; CompressionRatio= 1.00)
N(AO-Batches) Done                         ...    130500 
N(AO-Batches) Skipped                      ...         0 
N(IJ)-pairs Skipped                        ...         0 
TOTAL TIME for half transformation         ...    28.440 sec
AO-integral generation                     ...     9.255 sec
Half transformation                        ...     9.350 sec
K-integral sorting                         ...     0.802 sec
<ss|**>: 
------------------------------
PARTIAL COULOMB TRANSFORMATION
------------------------------

Transformation type                        ... two-operators
Dimension of the basis                     ...  136
Number of internal alpha-MOs               ...    2 (5-6)
Number of internal beta-MOs                ...    1 (5-5)
Pair cutoff                                ... 0.000e+00 Eh
Number of AO pairs included in the trafo   ... 9316
Total Number of distinct AO pairs          ... 9316
Memory devoted for trafo                   ... 2500.0 MB 
Max. Number of MO pairs treated together   ... 35173      
Max. Number of MOs treated per batch       ...  258      
Number Format for Storage                  ... Double (8 Byte)
AO-integral source                         ... DIRECT
Integral package used                      ... LIBINT

Starting integral evaluation:
<sp|**>:        16740 b        0 skpd     0.381 s (  0.023 ms/b)
       26040 b        0 skpd     0.423 s (  0.016 ms/b)
<sd|**>:        22320 b        0 skpd     0.294 s (  0.013 ms/b)
<sf|**>: <sg|**>:        14880 b        0 skpd     0.370 s (  0.025 ms/b)
       11160 b        0 skpd     0.503 s (  0.045 ms/b)
<sh|**>: <pp|**>:         7440 b        0 skpd     0.530 s (  0.071 ms/b)
       13020 b        0 skpd     0.348 s (  0.027 ms/b)
<pd|**>:        19530 b        0 skpd     0.397 s (  0.020 ms/b)
<pf|**>:        13020 b        0 skpd     0.428 s (  0.033 ms/b)
<pg|**>:         9765 b        0 skpd     0.497 s (  0.051 ms/b)
<ph|**>:         6510 b        0 skpd     0.629 s (  0.097 ms/b)
<dd|**>:         9765 b        0 skpd     0.261 s (  0.027 ms/b)
<df|**>:        11160 b        0 skpd     0.411 s (  0.037 ms/b)
<dg|**>:         8370 b        0 skpd     0.440 s (  0.053 ms/b)
<dh|**>:         5580 b        0 skpd     0.500 s (  0.090 ms/b)
<ff|**>:         4650 b        0 skpd     0.270 s (  0.058 ms/b)
<fg|**>:         5580 b        0 skpd     0.512 s (  0.092 ms/b)
<fh|**>:         3720 b        0 skpd     0.524 s (  0.141 ms/b)
<gg|**>:         2790 b        0 skpd     0.329 s (  0.118 ms/b)
<gh|**>:         2790 b        0 skpd     0.506 s (  0.182 ms/b)
<hh|**>:         1395 b        0 skpd     0.302 s (  0.217 ms/b)
Closing buffer AOJ[aa] ( 0.00 GB; CompressionRatio= 0.67)
Closing buffer AOJ[bb] ( 0.00 GB; CompressionRatio= 0.00)
Collecting buffer AOJ 
    ... done with AO integral generation
Number of Alpha-MO pairs included          ...    3
Number of Beta-MO pairs included           ...    1
    ... Now sorting integrals
SORTING ALPHA/ALPHA PAIRS
IBATCH = 1 of  1
Closing buffer JAO[aa] ( 0.00 GB; CompressionRatio= 1.00)
SORTING BETA/BETA PAIRS
IBATCH = 1 of  1
Closing buffer JAO[bb] ( 0.00 GB; CompressionRatio= 1.00)
Collecting buffer JAO 
TOTAL TIME for half transformation         ...     8.912 sec
AO-integral generation                     ...     7.164 sec
Half transformation                        ...     1.698 sec
J-integral sorting                         ...     0.041 sec

-------------------------- SECOND HALF TRANSFORMATION -------------------------
Formation of (ij|kl),(ij|ka), (ij|ab)      ... ok (     0.019 sec)
Formation of (ik|jl),(ik|ja), (ia|jb)      ... ok (     0.026 sec)


-----------------------
SPIN UNRESTRICTED GUESS
-----------------------

Entering MDCI_UHF_Guess, Tailored=0
Spin-components of the MP2 energy:
EMP2(aa)=     -0.002687366
EMP2(bb)=      0.000000000
EMP2(ab)=     -0.036545775

Initial guess performed in     0.001 sec
E(0)                                       ...   -241.880766370
E(MP2)                                     ...     -0.039233141
Initial E(tot)                             ...   -241.919999511
<T|T>                                      ...      0.031138602
Number of pairs included                   ... 3

------------------------------------------------
                  UHF COUPLED CLUSTER ITERATIONS
------------------------------------------------

Number of amplitudes to be optimized       ...        42054

Iter       E(tot)           E(Corr)          Delta-E          Residual     Time      <S|S>**1/2
  0   -241.919999511     -0.039233141     -0.000000000      0.009583988    2.31      0.000000692
                           *** Turning on DIIS ***
  1   -241.925828784     -0.045062414     -0.005829273      0.006137499    3.24      0.013124612
  2   -241.930911730     -0.050145360     -0.005082946      0.003209558    3.14      0.025354494
  3   -241.933021521     -0.052255151     -0.002109791      0.000974421    3.14      0.033080215
  4   -241.933202246     -0.052435876     -0.000180725      0.000198029    3.14      0.035485690
  5   -241.933260467     -0.052494097     -0.000058221      0.000048473    3.14      0.035941393
  6   -241.933255213     -0.052488843      0.000005254      0.000025126    3.17      0.035951181
  7   -241.933256408     -0.052490038     -0.000001195      0.000011865    3.14      0.035959497
  8   -241.933256708     -0.052490338     -0.000000300      0.000004462    3.15      0.035962791
               --- The Coupled-Cluster iterations have converged ---

----------------------
COUPLED CLUSTER ENERGY
----------------------

E(0)                                       ...   -241.880766370
E(CORR)                                    ...     -0.052490338
E(TOT)                                     ...   -241.933256708
Singles norm <S|S>**1/2                    ...      0.035962791 ( 0.030127591, 0.005835200)  
T1 diagnostic                              ...      0.020763127                              

------------------
LARGEST AMPLITUDES
------------------
   6a-> 29a   5b-> 12b       0.051836
   5a-> 11a   5b-> 11b       0.046309
   5a-> 12a   5b-> 10b       0.046309
   5a->  7a   5b-> 11b       0.044866
   5a->  8a   5b-> 10b       0.044866
   5a->  7a   5b->  7b       0.042476
   5a->  8a   5b->  6b       0.042476
   5a-> 12a   5b->  6b       0.042331
   5a-> 11a   5b->  7b       0.042331
   5a->  7a   5b-> 18b       0.038262
   5a->  8a   5b-> 19b       0.038262
   6a-> 29a   5b-> 28b       0.036994
   6a-> 31a   5b-> 11b       0.034558
   6a-> 30a   5b-> 10b       0.034558
   6a-> 30a   5b->  6b       0.033114
   6a-> 31a   5b->  7b       0.033114

----------------------
UHF TRIPLES CORRECTION (Algorithm 1)
----------------------

Multiplier for the singles contribution    ...      1.000000000

SPIN-CASE Alpha-Alpha-Alpha:

SPIN-CASE Beta-Beta-Beta:

SPIN-CASE Alpha-Alpha-Beta:
10% done
20% done
30% done
40% done
50% done
60% done
70% done
80% done
90% done


SPIN-CASE Beta-Beta-Alpha:

Triples Correction (T)                     ...     -0.001321506
    alpha-alpha-alpha ...  0.000000000 ( -0.0%)
    alpha-alpha-beta  ... -0.001321506 (100.0%)
    alpha-beta -beta  ...  0.000000000 ( -0.0%)
    beta -beta -beta  ...  0.000000000 ( -0.0%)
Scaling of triples based on CCSD energies (Peterson et al. Molecular Physics 113, 1551 (2015))
E(T*) = f*E(T) where f = E(F12-CCSD)/E(CCSD) 
f = CCSD (with F12)/ CCSD (without F12)    ...      1.000000000
Scaled triples correction (T)              ...     -0.001321506

Final correlation energy                   ...     -0.053811844
E(CCSD)                                    ...   -241.933256708
E(CCSD(T))                                 ...   -241.934578214



        !!!!!!!!!!!!!!!!!!!!!!!!!!!!!!!!!!!!!!!!!!!!!!!!!!!!!!!!!!!!!!!!!!!!!!!!!! 
        !  Warning: Densities are linearized densities                           !
        !!!!!!!!!!!!!!!!!!!!!!!!!!!!!!!!!!!!!!!!!!!!!!!!!!!!!!!!!!!!!!!!!!!!!!!!!! 

NORM  =      1.073863518 sqrt=     1.036273862
W(HF) =      0.931217034
------------------------------------------------------------------------------
                           ORCA POPULATION ANALYSIS
------------------------------------------------------------------------------
Input electron density              ... 13_Al.mdcip
Input spin density                  ... 13_Al.mdcir
BaseName (.gbw .S,...)              ... 13_Al

                    ********************************
                    * MULLIKEN POPULATION ANALYSIS *
                    ********************************

------------------------------------------
MULLIKEN ATOMIC CHARGES AND SPIN DENSITIES
------------------------------------------
   0 Al:    0.000000    1.000000
Sum of atomic charges       :    0.0000000
Sum of atomic spin densities:    1.0000000

---------------------------------------------------
MULLIKEN REDUCED ORBITAL CHARGES AND SPIN DENSITIES
---------------------------------------------------
CHARGE
  0 Als       :     5.889015  s :     5.889015
      pz      :     2.044512  p :     7.072468
      px      :     2.044512
      py      :     2.983443
      dz2     :     0.003892  d :     0.036940
      dxz     :     0.000539
      dyz     :     0.010955
      dx2y2   :     0.010599
      dxy     :     0.010955
      f0      :     0.000137  f :     0.001371
      f+1     :     0.000053
      f-1     :     0.000237
      f+2     :     0.000204
      f-2     :     0.000167
      f+3     :     0.000288
      f-3     :     0.000284
      g0      :     0.000014  g :     0.000170
      g+1     :     0.000008
      g-1     :     0.000022
      g+2     :     0.000017
      g-2     :     0.000017
      g+3     :     0.000020
      g-3     :     0.000020
      g+4     :     0.000025
      g-4     :     0.000026
      h0      :     0.000003  h :     0.000036
      h+1     :     0.000002
      h-1     :     0.000004
      h+2     :     0.000003
      h-2     :     0.000003
      h+3     :     0.000003
      h-3     :     0.000003
      h+4     :     0.000004
      h-4     :     0.000004
      h+5     :     0.000004
      h-5     :     0.000004

SPIN
  0 Als       :     0.025502  s :     0.025502
      pz      :    -0.003186  p :     0.956724
      px      :    -0.003186
      py      :     0.963097
      dz2     :     0.001755  d :     0.016976
      dxz     :    -0.000035
      dyz     :     0.004961
      dx2y2   :     0.005334
      dxy     :     0.004961
      f0      :     0.000066  f :     0.000733
      f+1     :     0.000009
      f-1     :     0.000132
      f+2     :     0.000111
      f-2     :     0.000081
      f+3     :     0.000168
      f-3     :     0.000166
      g0      :     0.000004  g :     0.000054
      g+1     :     0.000001
      g-1     :     0.000007
      g+2     :     0.000005
      g-2     :     0.000005
      g+3     :     0.000007
      g-3     :     0.000007
      g+4     :     0.000009
      g-4     :     0.000009
      h0      :     0.000001  h :     0.000011
      h+1     :     0.000000
      h-1     :     0.000001
      h+2     :     0.000001
      h-2     :     0.000001
      h+3     :     0.000001
      h-3     :     0.000001
      h+4     :     0.000001
      h-4     :     0.000001
      h+5     :     0.000001
      h-5     :     0.000001


                     *******************************
                     * LOEWDIN POPULATION ANALYSIS *
                     *******************************

-----------------------------------------
LOEWDIN ATOMIC CHARGES AND SPIN DENSITIES
-----------------------------------------
   0 Al:    0.000000    1.000000

--------------------------------------------------
LOEWDIN REDUCED ORBITAL CHARGES AND SPIN DENSITIES
--------------------------------------------------
CHARGE
  0 Als       :     5.889015  s :     5.889015
      pz      :     2.044512  p :     7.072468
      px      :     2.044512
      py      :     2.983443
      dz2     :     0.003892  d :     0.036940
      dxz     :     0.000539
      dyz     :     0.010955
      dx2y2   :     0.010599
      dxy     :     0.010955
      f0      :     0.000137  f :     0.001371
      f+1     :     0.000053
      f-1     :     0.000237
      f+2     :     0.000204
      f-2     :     0.000167
      f+3     :     0.000288
      f-3     :     0.000284
      g0      :     0.000014  g :     0.000170
      g+1     :     0.000008
      g-1     :     0.000022
      g+2     :     0.000017
      g-2     :     0.000017
      g+3     :     0.000020
      g-3     :     0.000020
      g+4     :     0.000025
      g-4     :     0.000026
      h0      :     0.000003  h :     0.000036
      h+1     :     0.000002
      h-1     :     0.000004
      h+2     :     0.000003
      h-2     :     0.000003
      h+3     :     0.000003
      h-3     :     0.000003
      h+4     :     0.000004
      h-4     :     0.000004
      h+5     :     0.000004
      h-5     :     0.000004

SPIN
  0 Als       :     0.025502  s :     0.025502
      pz      :    -0.003186  p :     0.956724
      px      :    -0.003186
      py      :     0.963097
      dz2     :     0.001755  d :     0.016976
      dxz     :    -0.000035
      dyz     :     0.004961
      dx2y2   :     0.005334
      dxy     :     0.004961
      f0      :     0.000066  f :     0.000733
      f+1     :     0.000009
      f-1     :     0.000132
      f+2     :     0.000111
      f-2     :     0.000081
      f+3     :     0.000168
      f-3     :     0.000166
      g0      :     0.000004  g :     0.000054
      g+1     :     0.000001
      g-1     :     0.000007
      g+2     :     0.000005
      g-2     :     0.000005
      g+3     :     0.000007
      g-3     :     0.000007
      g+4     :     0.000009
      g-4     :     0.000009
      h0      :     0.000001  h :     0.000011
      h+1     :     0.000000
      h-1     :     0.000001
      h+2     :     0.000001
      h-2     :     0.000001
      h+3     :     0.000001
      h-3     :     0.000001
      h+4     :     0.000001
      h-4     :     0.000001
      h+5     :     0.000001
      h-5     :     0.000001


                      *****************************
                      * MAYER POPULATION ANALYSIS *
                      *****************************

  NA   - Mulliken gross atomic population
  ZA   - Total nuclear charge
  QA   - Mulliken gross atomic charge
  VA   - Mayer's total valence
  BVA  - Mayer's bonded valence
  FA   - Mayer's free valence

  ATOM       NA         ZA         QA         VA         BVA        FA
  0 Al    13.0000    13.0000     0.0000     1.4885     0.0000     1.4885





------------------------------------------------------------------------------- 
                                     TIMINGS                                   
------------------------------------------------------------------------------- 


Total execution time                   ...       68.650 sec

Fock Matrix Formation                  ...        2.922 sec (  4.3%)
Initial Guess                          ...        0.001 sec (  0.0%)
DIIS Solver                            ...        0.021 sec (  0.0%)
State Vector Update                    ...        0.001 sec (  0.0%)
Sigma-vector construction              ...       27.552 sec ( 40.1%)
  <D|H|D>(2-ext Fock)                  ...        0.002 sec (  0.0% of sigma)
  <D|H|D>(2-ext)                       ...        0.008 sec (  0.0% of sigma)
  <D|H|D>(4-ext)                       ...        8.993 sec ( 32.6% of sigma)
  <S|H|0>                              ...        0.035 sec (  0.1% of sigma)
  <D|H|S>(1-ext)                       ...        0.005 sec (  0.0% of sigma)
  Fock-dressing                        ...       17.907 sec ( 65.0% of sigma)
  (ij|ab),(ia|jb)-dressing             ...        0.416 sec (  1.5% of sigma)
Total Time for computing (T)           ...        0.314 sec (  0.5% of ALL)
  I/O of integral and amplitudes       ...        0.101 sec ( 32.2% of (T))
  External N**7 contributions          ...        0.056 sec ( 17.7% of (T))
  Internal N**7 contributions          ...        0.012 sec (  3.8% of (T))
  N**6 triples energy contributions    ...        0.059 sec ( 18.9% of (T))


-------------------------   --------------------
FINAL SINGLE POINT ENERGY      -241.934578214205
-------------------------   --------------------


                            ***************************************
                            *     ORCA property calculations      *
                            ***************************************

                                    ---------------------
                                    Active property flags
                                    ---------------------
   (+) Dipole Moment


------------------------------------------------------------------------------
                       ORCA ELECTRIC PROPERTIES CALCULATION
------------------------------------------------------------------------------

Dipole Moment Calculation                       ... on
Quadrupole Moment Calculation                   ... off
Polarizability Calculation                      ... off
GBWName                                         ... 13_Al.gbw
Electron density file                           ... 13_Al.scfp
The origin for moment calculation is the CENTER OF MASS  = ( 0.000000,  0.000000  0.000000)

-------------
DIPOLE MOMENT
-------------
                                X             Y             Z
Electronic contribution:      0.00000       0.00000       0.00000
Nuclear contribution   :      0.00000       0.00000       0.00000
                        -----------------------------------------
Total Dipole Moment    :      0.00000       0.00000       0.00000
                        -----------------------------------------
Magnitude (a.u.)       :      0.00000
Magnitude (Debye)      :      0.00000



--------------------
Rotational spectrum 
--------------------
 
Rotational constants in cm-1:     0.000000     0.000000     0.000000 
Rotational constants in MHz :     0.000000     0.000000     0.000000 

 Dipole components along the rotational axes: 
x,y,z [a.u.] :     0.000000     0.000000     0.000000 
x,y,z [Debye]:     0.000000     0.000000     0.000000 

 

                           *** MDCI DENSITY ***

------------------------------------------------------------------------------
                       ORCA ELECTRIC PROPERTIES CALCULATION
------------------------------------------------------------------------------

Dipole Moment Calculation                       ... on
Quadrupole Moment Calculation                   ... off
Polarizability Calculation                      ... off
GBWName                                         ... 13_Al.gbw
Electron density file                           ... 13_Al.mdcip
The origin for moment calculation is the CENTER OF MASS  = ( 0.000000,  0.000000  0.000000)

-------------
DIPOLE MOMENT
-------------
                                X             Y             Z
Electronic contribution:     -0.00000      -0.00000      -0.00000
Nuclear contribution   :      0.00000       0.00000       0.00000
                        -----------------------------------------
Total Dipole Moment    :     -0.00000      -0.00000      -0.00000
                        -----------------------------------------
Magnitude (a.u.)       :      0.00000
Magnitude (Debye)      :      0.00000



--------------------
Rotational spectrum 
--------------------
 
Rotational constants in cm-1:     0.000000     0.000000     0.000000 
Rotational constants in MHz :     0.000000     0.000000     0.000000 

 Dipole components along the rotational axes: 
x,y,z [a.u.] :    -0.000000    -0.000000    -0.000000 
x,y,z [Debye]:    -0.000000    -0.000000    -0.000000 

 

Timings for individual modules:

Sum of individual times         ...      101.449 sec (=   1.691 min)
GTO integral calculation        ...        1.065 sec (=   0.018 min)   1.0 %
SCF iterations                  ...       30.529 sec (=   0.509 min)  30.1 %
MDCI module                     ...       69.854 sec (=   1.164 min)  68.9 %
                             ****ORCA TERMINATED NORMALLY****
TOTAL RUN TIME: 0 days 0 hours 1 minutes 42 seconds 314 msec
