
                                 *****************
                                 * O   R   C   A *
                                 *****************

           --- An Ab Initio, DFT and Semiempirical electronic structure package ---

                  #######################################################
                  #                        -***-                        #
                  #          Department of theory and spectroscopy      #
                  #               Directorship: Frank Neese             #
                  #        Max Planck Institute fuer Kohlenforschung    #
                  #                Kaiser Wilhelm Platz 1               #
                  #                 D-45470 Muelheim/Ruhr               #
                  #                      Germany                        #
                  #                                                     #
                  #                  All rights reserved                #
                  #                        -***-                        #
                  #######################################################


                         Program Version 4.2.0 -  RELEASE  -


 With contributions from (in alphabetic order):
   Daniel Aravena         : Magnetic Suceptibility
   Michael Atanasov       : Ab Initio Ligand Field Theory (pilot matlab implementation)
   Alexander A. Auer      : GIAO ZORA, VPT2
   Ute Becker             : Parallelization
   Giovanni Bistoni       : ED, misc. LED, open-shell LED, HFLED
   Martin Brehm           : Molecular dynamics
   Dmytro Bykov           : SCF Hessian
   Vijay G. Chilkuri      : MRCI spin determinant printing, contributions to CSF-ICE
   Dipayan Datta          : RHF DLPNO-CCSD density
   Achintya Kumar Dutta   : EOM-CC, STEOM-CC
   Dmitry Ganyushin       : Spin-Orbit,Spin-Spin,Magnetic field MRCI
   Miquel Garcia          : C-PCM Hessian, Gaussian charge scheme
   Yang Guo               : DLPNO-NEVPT2, CIM, IAO-localization
   Andreas Hansen         : Spin unrestricted coupled pair/coupled cluster methods
   Benjamin Helmich-Paris : CASSCF linear response (MC-RPA)
   Lee Huntington         : MR-EOM, pCC
   Robert Izsak           : Overlap fitted RIJCOSX, COSX-SCS-MP3, EOM
   Christian Kollmar      : KDIIS, OOCD, Brueckner-CCSD(T), CCSD density
   Simone Kossmann        : Meta GGA functionals, TD-DFT gradient, OOMP2, MP2 Hessian
   Martin Krupicka        : AUTO-CI
   Lucas Lang             : DCDCAS
   Dagmar Lenk            : GEPOL surface, SMD
   Dimitrios Liakos       : Extrapolation schemes; Compound Job, initial MDCI parallelization
   Dimitrios Manganas     : Further ROCIS development; embedding schemes
   Dimitrios Pantazis     : SARC Basis sets
   Taras Petrenko         : DFT Hessian,TD-DFT gradient, ASA, ECA, R-Raman, ABS, FL, XAS/XES, NRVS
   Peter Pinski           : DLPNO-MP2, DLPNO-MP2 Gradient
   Christoph Reimann      : Effective Core Potentials
   Marius Retegan         : Local ZFS, SOC
   Christoph Riplinger    : Optimizer, TS searches, QM/MM, DLPNO-CCSD(T), (RO)-DLPNO pert. Triples
   Tobias Risthaus        : Range-separated hybrids, TD-DFT gradient, RPA, STAB
   Michael Roemelt        : Original ROCIS implementation
   Masaaki Saitow         : Open-shell DLPNO-CCSD energy and density
   Barbara Sandhoefer     : DKH picture change effects
   Avijit Sen             : IP-ROCIS
   Kantharuban Sivalingam : CASSCF convergence, NEVPT2, FIC-MRCI
   Bernardo de Souza      : ESD, SOC TD-DFT
   Georgi Stoychev        : AutoAux, RI-MP2 NMR
   Willem Van den Heuvel  : Paramagnetic NMR
   Boris Wezisla          : Elementary symmetry handling
   Frank Wennmohs         : Technical directorship


 We gratefully acknowledge several colleagues who have allowed us to
 interface, adapt or use parts of their codes:
   Stefan Grimme, W. Hujo, H. Kruse,             : VdW corrections, initial TS optimization,
                  C. Bannwarth                     DFT functionals, gCP, sTDA/sTD-DF
   Ed Valeev, F. Pavosevic, A. Kumar             : LibInt (2-el integral package), F12 methods
   Garnet Chan, S. Sharma, J. Yang, R. Olivares  : DMRG
   Ulf Ekstrom                                   : XCFun DFT Library
   Mihaly Kallay                                 : mrcc  (arbitrary order and MRCC methods)
   Andreas Klamt, Michael Diedenhofen            : otool_cosmo (COSMO solvation model)
   Jiri Pittner, Ondrej Demel                    : Mk-CCSD
   Frank Weinhold                                : gennbo (NPA and NBO analysis)
   Christopher J. Cramer and Donald G. Truhlar   : smd solvation model
   Lars Goerigk                                  : TD-DFT with DH, B97 family of functionals
   V. Asgeirsson, H. Jonsson                     : NEB implementation
   FAccTs GmbH                                   : IRC, NEB, NEB-TS, Multilevel, MM, QM/MM, CI optimization
   S Lehtola, MJT Oliveira, MAL Marques          : LibXC Library


 Your calculation uses the libint2 library for the computation of 2-el integrals
 For citations please refer to: http://libint.valeyev.net

 Your ORCA version has been built with support for libXC version: 4.2.3
 For citations please refer to: https://tddft.org/programs/libxc/

 This ORCA versions uses:
   CBLAS   interface :  Fast vector & matrix operations
   LAPACKE interface :  Fast linear algebra routines
   SCALAPACK package :  Parallel linear algebra routines


----- Orbital basis set information -----
Your calculation utilizes the basis: aug-cc-pV(5+d)Z 
             Al - Ar: T.H. Dunning, Jr., K. A. Peterson and A. K. Wilson, J. Chem. Phys.
                      114, 9244 (2001)

================================================================================
                                        WARNINGS
                       Please study these warnings very carefully!
================================================================================


WARNING: your system is open-shell and RHF/RKS was chosen
  ===> : WILL SWITCH to UHF/UKS


WARNING: MDCI localization with Augmented Hessian Foster-Boys
  ===> : Switching off randomization!

WARNING: Post HF methods need fully converged wavefunctions
  ===> : Setting SCFConvForced true
         You can overwrite this default with %scf ConvForced false 


INFO   : the flag for use of LIBINT has been found!

================================================================================
                                       INPUT FILE
================================================================================
NAME = 14_Si.in
|  1> #
|  2> # 14_Si CCSD(T)/aug-cc-pv5(+d)z
|  3> #
|  4> ! CCSD(T) aug-cc-pv5(+d)z tightscf
|  5> 
|  6> *xyz 0 3
|  7>  Si 0.0 0.0 0.0
|  8> *
|  9> 
| 10> %maxcore 5000 
| 11> 
| 12> %pal
| 13> nprocs 6
| 14> end
| 15> 
| 16> 
| 17>                          ****END OF INPUT****
================================================================================

                       ****************************
                       * Single Point Calculation *
                       ****************************

---------------------------------
CARTESIAN COORDINATES (ANGSTROEM)
---------------------------------
  Si     0.000000    0.000000    0.000000

----------------------------
CARTESIAN COORDINATES (A.U.)
----------------------------
  NO LB      ZA    FRAG     MASS         X           Y           Z
   0 Si   14.0000    0    28.086    0.000000    0.000000    0.000000

--------------------------------
INTERNAL COORDINATES (ANGSTROEM)
--------------------------------
 Si     0   0   0     0.000000000000     0.00000000     0.00000000

---------------------------
INTERNAL COORDINATES (A.U.)
---------------------------
 Si     0   0   0     0.000000000000     0.00000000     0.00000000

---------------------
BASIS SET INFORMATION
---------------------
There are 1 groups of distinct atoms

 Group   1 Type Si  : 53s21p6d4f3g2h contracted to 8s7p6d4f3g2h pattern {16161611111/8811111/111111/1111/111/11}

Atom   0Si   basis set group =>   1


           ************************************************************
           *        Program running with 6 parallel MPI-processes     *
           *              working on a common directory               *
           ************************************************************
------------------------------------------------------------------------------
                           ORCA GTO INTEGRAL CALCULATION
------------------------------------------------------------------------------

                         BASIS SET STATISTICS AND STARTUP INFO

 # of primitive gaussian shells          ...   89
 # of primitive gaussian functions       ...  223
 # of contracted shells                  ...   30
 # of contracted basis functions         ...  136
 Highest angular momentum                ...    5
 Maximum contraction depth               ...   16
 Integral package used                   ... LIBINT
 Integral threshhold            Thresh   ...  2.500e-11
 Primitive cut-off              TCut     ...  2.500e-12


------------------------------ INTEGRAL EVALUATION ----------------------------


 * One electron integrals 
 Pre-screening matrix                    ... done
 Shell pair data                         ... done (   0.000 sec)



           ************************************************************
           *        Program running with 6 parallel MPI-processes     *
           *              working on a common directory               *
           ************************************************************
-------------------------------------------------------------------------------
                                 ORCA SCF
-------------------------------------------------------------------------------

------------
SCF SETTINGS
------------
Hamiltonian:
 Ab initio Hamiltonian  Method          .... Hartree-Fock(GTOs)


General Settings:
 Integral files         IntName         .... 14_Si
 Hartree-Fock type      HFTyp           .... UHF
 Total Charge           Charge          ....    0
 Multiplicity           Mult            ....    3
 Number of Electrons    NEL             ....   14
 Basis Dimension        Dim             ....  136
 Nuclear Repulsion      ENuc            ....      0.0000000000 Eh

Convergence Acceleration:
 DIIS                   CNVDIIS         .... on
   Start iteration      DIISMaxIt       ....    12
   Startup error        DIISStart       ....  0.200000
   # of expansion vecs  DIISMaxEq       ....     5
   Bias factor          DIISBfac        ....   1.050
   Max. coefficient     DIISMaxC        ....  10.000
 Newton-Raphson         CNVNR           .... off
 SOSCF                  CNVSOSCF        .... off
 Level Shifting         CNVShift        .... on
   Level shift para.    LevelShift      ....    0.2500
   Turn off err/grad.   ShiftErr        ....    0.0010
 Zerner damping         CNVZerner       .... off
 Static damping         CNVDamp         .... on
   Fraction old density DampFac         ....    0.7000
   Max. Damping (<1)    DampMax         ....    0.9800
   Min. Damping (>=0)   DampMin         ....    0.0000
   Turn off err/grad.   DampErr         ....    0.1000
 Fernandez-Rico         CNVRico         .... off

SCF Procedure:
 Maximum # iterations   MaxIter         ....   125
 SCF integral mode      SCFMode         .... Direct
   Integral package                     .... LIBINT
 Reset frequency        DirectResetFreq ....    20
 Integral Threshold     Thresh          ....  2.500e-11 Eh
 Primitive CutOff       TCut            ....  2.500e-12 Eh

Convergence Tolerance:
 Convergence Check Mode ConvCheckMode   .... Total+1el-Energy
 Convergence forced     ConvForced      .... 1
 Energy Change          TolE            ....  1.000e-08 Eh
 1-El. energy change                    ....  1.000e-05 Eh
 DIIS Error             TolErr          ....  5.000e-07


Diagonalization of the overlap matrix:
Smallest eigenvalue                        ... 1.571e-04
Time for diagonalization                   ...    0.004 sec
Threshold for overlap eigenvalues          ... 1.000e-08
Number of eigenvalues below threshold      ... 0
Time for construction of square roots      ...    0.007 sec
Total time needed                          ...    0.011 sec

-------------------
DFT GRID GENERATION
-------------------

General Integration Accuracy     IntAcc      ...  4.340
Radial Grid Type                 RadialGrid  ... Gauss-Chebyshev
Angular Grid (max. acc.)         AngularGrid ... Lebedev-110
Angular grid pruning method      GridPruning ... 3 (G Style)
Weight generation scheme         WeightScheme... Becke
Basis function cutoff            BFCut       ...    1.0000e-11
Integration weight cutoff        WCut        ...    1.0000e-14
Grids for H and He will be reduced by one unit

# of grid points (after initial pruning)     ...   1866 (   0.0 sec)
# of grid points (after weights+screening)   ...   1866 (   0.0 sec)
Grid point division into batches done        ...    0.0 sec
Reduced shell lists constructed in    0.0 sec

Total number of grid points                  ...     1866
Total number of batches                      ...       30
Average number of points per batch           ...       62
Average number of grid points per atom       ...     1866
Average number of shells per batch           ...    18.00 (60.00%)
Average number of basis functions per batch  ...    95.67 (70.34%)
Average number of large shells per batch     ...    15.50 (86.11%)
Average number of large basis fcns per batch ...    80.17 (83.80%)
Maximum spatial batch extension              ...  19.45, 35.80, 35.80 au
Average spatial batch extension              ...   2.82,  4.19,  5.45 au

Time for grid setup =    0.024 sec

------------------------------
INITIAL GUESS: MODEL POTENTIAL
------------------------------
Loading Hartree-Fock densities                     ... done
Calculating cut-offs                               ... done
Setting up the integral package                    ... done
Initializing the effective Hamiltonian             ... done
Starting the Coulomb interaction                   ... done (   0.0 sec)
Reading the grid                                   ... done
Mapping shells                                     ... done
Starting the XC term evaluation                    ... done (   0.0 sec)
Transforming the Hamiltonian                       ... done (   0.0 sec)
Diagonalizing the Hamiltonian                      ... done (   0.0 sec)
Back transforming the eigenvectors                 ... done (   0.0 sec)
Now organizing SCF variables                       ... done
                      ------------------
                      INITIAL GUESS DONE (   0.2 sec)
                      ------------------
--------------
SCF ITERATIONS
--------------
ITER       Energy         Delta-E        Max-DP      RMS-DP      [F,P]     Damp
               ***  Starting incremental Fock matrix formation  ***
  0   -288.8397451239   0.000000000000 0.17764770  0.00257297  0.1153493 0.7000
  1   -288.8445748671  -0.004829743209 0.13295253  0.00192418  0.0833783 0.7000
                               ***Turning on DIIS***
  2   -288.8482745721  -0.003699705067 0.32531916  0.00470628  0.0597444 0.0000
  3   -288.8561659334  -0.007891361234 0.03580224  0.00051739  0.0059100 0.0000
  4   -288.8604474795  -0.004281546105 0.00345945  0.00005504  0.0018768 0.0000
  5   -288.8574656628   0.002981816718 0.00235731  0.00003689  0.0011100 0.0000
  6   -288.8569203538   0.000545308989 0.00161842  0.00002464  0.0006014 0.0000
  7   -288.8584725234  -0.001552169591 0.00025365  0.00000437  0.0000972 0.0000
  8   -288.8587883003  -0.000315776932 0.00010193  0.00000156  0.0000243 0.0000
  9   -288.8588236468  -0.000035346488 0.00004433  0.00000051  0.0000069 0.0000
 10   -288.8588351044  -0.000011457644 0.00000691  0.00000010  0.0000015 0.0000
                            ***DIIS convergence achieved***

               *****************************************************
               *                     SUCCESS                       *
               *           SCF CONVERGED AFTER  11 CYCLES          *
               *****************************************************


----------------
TOTAL SCF ENERGY
----------------

Total Energy       :         -288.85884195 Eh           -7860.24870 eV

Components:
Nuclear Repulsion  :            0.00000000 Eh               0.00000 eV
Electronic Energy  :         -288.85884195 Eh           -7860.24870 eV
One Electron Energy:         -400.57063940 Eh          -10900.08125 eV
Two Electron Energy:          111.71179746 Eh            3039.83255 eV

Virial components:
Potential Energy   :         -577.71750677 Eh          -15720.49257 eV
Kinetic Energy     :          288.85866483 Eh            7860.24388 eV
Virial Ratio       :            2.00000061


---------------
SCF CONVERGENCE
---------------

  Last Energy change         ...   -6.8421e-06  Tolerance :   1.0000e-08
  Last MAX-Density change    ...    9.3682e-07  Tolerance :   1.0000e-07
  Last RMS-Density change    ...    1.5698e-08  Tolerance :   5.0000e-09
  Last DIIS Error            ...    2.0951e-07  Tolerance :   5.0000e-07

             **** THE GBW FILE WAS UPDATED (14_Si.gbw) ****
             **** DENSITY FILE WAS UPDATED (14_Si.scfp) ****
             **** ENERGY FILE WAS UPDATED (14_Si.en.tmp) ****
----------------------
UHF SPIN CONTAMINATION
----------------------

Expectation value of <S**2>     :     2.015682
Ideal value S*(S+1) for S=1.0   :     2.000000
Deviation                       :     0.015682

             **** THE GBW FILE WAS UPDATED (14_Si.gbw) ****
             **** DENSITY FILE WAS UPDATED (14_Si.scfp) ****
----------------
ORBITAL ENERGIES
----------------
                 SPIN UP ORBITALS
  NO   OCC          E(Eh)            E(eV) 
   0   1.0000     -68.816330     -1872.5875 
   1   1.0000      -6.160626      -167.6391 
   2   1.0000      -4.268950      -116.1640 
   3   1.0000      -4.268950      -116.1640 
   4   1.0000      -4.258121      -115.8694 
   5   1.0000      -0.619870       -16.8675 
   6   1.0000      -0.301410        -8.2018 
   7   1.0000      -0.301410        -8.2018 
   8   0.0000      -0.010097        -0.2748 
   9   0.0000       0.046935         1.2772 
  10   0.0000       0.050819         1.3828 
  11   0.0000       0.050819         1.3828 
  12   0.0000       0.058462         1.5908 
  13   0.0000       0.110927         3.0185 
  14   0.0000       0.110927         3.0185 
  15   0.0000       0.111097         3.0231 
  16   0.0000       0.111180         3.0254 
  17   0.0000       0.111180         3.0254 
  18   0.0000       0.247537         6.7358 
  19   0.0000       0.247537         6.7358 
  20   0.0000       0.263623         7.1735 
  21   0.0000       0.273671         7.4470 
  22   0.0000       0.283189         7.7060 
  23   0.0000       0.283189         7.7060 
  24   0.0000       0.283300         7.7090 
  25   0.0000       0.285356         7.7649 
  26   0.0000       0.285356         7.7649 
  27   0.0000       0.289762         7.8848 
  28   0.0000       0.289762         7.8848 
  29   0.0000       0.296772         8.0756 
  30   0.0000       0.296772         8.0756 
  31   0.0000       0.308921         8.4062 
  32   0.0000       0.308921         8.4062 
  33   0.0000       0.314189         8.5495 
  34   0.0000       0.723728        19.6936 
  35   0.0000       0.724738        19.7211 
  36   0.0000       0.724738        19.7211 
  37   0.0000       0.727891        19.8069 
  38   0.0000       0.727891        19.8069 
  39   0.0000       0.733359        19.9557 
  40   0.0000       0.733359        19.9557 
  41   0.0000       0.740375        20.1466 
  42   0.0000       0.740375        20.1466 
  43   0.0000       0.750689        20.4273 
  44   0.0000       0.750689        20.4273 
  45   0.0000       0.753225        20.4963 
  46   0.0000       0.753225        20.4963 
  47   0.0000       0.754517        20.5315 
  48   0.0000       0.756215        20.5777 
  49   0.0000       0.757558        20.6142 
  50   0.0000       0.757558        20.6142 
  51   0.0000       0.761422        20.7193 
  52   0.0000       0.761422        20.7193 
  53   0.0000       0.767277        20.8787 
  54   0.0000       0.767277        20.8787 
  55   0.0000       0.911164        24.7940 
  56   0.0000       0.911164        24.7940 
  57   0.0000       0.918621        24.9969 
  58   0.0000       1.042290        28.3621 
  59   0.0000       1.688713        45.9522 
  60   0.0000       1.690666        46.0054 
  61   0.0000       1.690666        46.0054 
  62   0.0000       1.696500        46.1641 
  63   0.0000       1.696500        46.1641 
  64   0.0000       1.706126        46.4261 
  65   0.0000       1.706126        46.4261 
  66   0.0000       1.759238        47.8713 
  67   0.0000       1.763664        47.9917 
  68   0.0000       1.763664        47.9917 
  69   0.0000       1.777354        48.3643 
  70   0.0000       1.777354        48.3643 
  71   0.0000       1.821876        49.5758 
  72   0.0000       1.822972        49.6056 
  73   0.0000       1.822972        49.6056 
  74   0.0000       1.826274        49.6954 
  75   0.0000       1.826274        49.6954 
  76   0.0000       1.831822        49.8464 
  77   0.0000       1.831822        49.8464 
  78   0.0000       1.838741        50.0347 
  79   0.0000       1.839681        50.0603 
  80   0.0000       1.839681        50.0603 
  81   0.0000       1.840179        50.0738 
  82   0.0000       1.840179        50.0738 
  83   0.0000       1.844526        50.1921 
  84   0.0000       1.844526        50.1921 
  85   0.0000       1.849941        50.3395 
  86   0.0000       1.849941        50.3395 
  87   0.0000       1.851921        50.3933 
  88   0.0000       1.851921        50.3933 
  89   0.0000       1.863018        50.6953 
  90   0.0000       1.863018        50.6953 
  91   0.0000       3.119528        84.8867 
  92   0.0000       3.127377        85.1002 
  93   0.0000       3.127377        85.1002 
  94   0.0000       3.543839        96.4328 
  95   0.0000       3.546605        96.5080 
  96   0.0000       3.546605        96.5080 
  97   0.0000       3.554990        96.7362 
  98   0.0000       3.554990        96.7362 
  99   0.0000       3.569241        97.1240 
 100   0.0000       3.569241        97.1240 
 101   0.0000       3.672989        99.9471 
 102   0.0000       3.679694       100.1296 
 103   0.0000       3.679694       100.1296 
 104   0.0000       3.696936       100.5988 
 105   0.0000       3.696936       100.5988 
 106   0.0000       3.883257       105.6688 
 107   0.0000       4.196018       114.1795 
 108   0.0000       4.197908       114.2309 
 109   0.0000       4.197908       114.2309 
 110   0.0000       4.203612       114.3861 
 111   0.0000       4.203612       114.3861 
 112   0.0000       4.213236       114.6480 
 113   0.0000       4.213236       114.6480 
 114   0.0000       4.226967       115.0216 
 115   0.0000       4.226967       115.0216 
 116   0.0000       4.238035       115.3228 
 117   0.0000       4.239468       115.3618 
 118   0.0000       4.239468       115.3618 
 119   0.0000       4.243781       115.4792 
 120   0.0000       4.243781       115.4792 
 121   0.0000       4.251024       115.6762 
 122   0.0000       4.251024       115.6762 
 123   0.0000       4.261275       115.9552 
 124   0.0000       4.261275       115.9552 
 125   0.0000       4.274646       116.3190 
 126   0.0000       4.274646       116.3190 
 127   0.0000       9.738359       264.9942 
 128   0.0000       9.741402       265.0770 
 129   0.0000       9.741402       265.0770 
 130   0.0000       9.750755       265.3315 
 131   0.0000       9.750755       265.3315 
 132   0.0000      12.919641       351.5613 
 133   0.0000      12.923489       351.6660 
 134   0.0000      12.923489       351.6660 
 135   0.0000      34.440402       937.1710 

                 SPIN DOWN ORBITALS
  NO   OCC          E(Eh)            E(eV) 
   0   1.0000     -68.806004     -1872.3066 
   1   1.0000      -6.149761      -167.3435 
   2   1.0000      -4.253112      -115.7331 
   3   1.0000      -4.239860      -115.3725 
   4   1.0000      -4.239860      -115.3725 
   5   1.0000      -0.462782       -12.5929 
   6   0.0000       0.005048         0.1374 
   7   0.0000       0.030710         0.8357 
   8   0.0000       0.030710         0.8357 
   9   0.0000       0.053109         1.4452 
  10   0.0000       0.063361         1.7241 
  11   0.0000       0.086537         2.3548 
  12   0.0000       0.086537         2.3548 
  13   0.0000       0.115714         3.1487 
  14   0.0000       0.117380         3.1941 
  15   0.0000       0.117380         3.1941 
  16   0.0000       0.123742         3.3672 
  17   0.0000       0.123742         3.3672 
  18   0.0000       0.270938         7.3726 
  19   0.0000       0.286256         7.7894 
  20   0.0000       0.286256         7.7894 
  21   0.0000       0.286635         7.7997 
  22   0.0000       0.290715         7.9108 
  23   0.0000       0.290715         7.9108 
  24   0.0000       0.293946         7.9987 
  25   0.0000       0.297556         8.0969 
  26   0.0000       0.297556         8.0969 
  27   0.0000       0.299554         8.1513 
  28   0.0000       0.299554         8.1513 
  29   0.0000       0.340095         9.2545 
  30   0.0000       0.345257         9.3949 
  31   0.0000       0.345257         9.3949 
  32   0.0000       0.367171         9.9912 
  33   0.0000       0.367171         9.9912 
  34   0.0000       0.730687        19.8830 
  35   0.0000       0.732071        19.9207 
  36   0.0000       0.732071        19.9207 
  37   0.0000       0.736223        20.0336 
  38   0.0000       0.736223        20.0336 
  39   0.0000       0.743235        20.2245 
  40   0.0000       0.743235        20.2245 
  41   0.0000       0.753470        20.5030 
  42   0.0000       0.753470        20.5030 
  43   0.0000       0.771382        20.9904 
  44   0.0000       0.774937        21.0871 
  45   0.0000       0.774937        21.0871 
  46   0.0000       0.778494        21.1839 
  47   0.0000       0.785225        21.3671 
  48   0.0000       0.785225        21.3671 
  49   0.0000       0.786538        21.4028 
  50   0.0000       0.786538        21.4028 
  51   0.0000       0.802806        21.8455 
  52   0.0000       0.802806        21.8455 
  53   0.0000       0.815534        22.1918 
  54   0.0000       0.815534        22.1918 
  55   0.0000       0.927801        25.2468 
  56   0.0000       0.964810        26.2538 
  57   0.0000       0.964810        26.2538 
  58   0.0000       1.069954        29.1149 
  59   0.0000       1.707581        46.4656 
  60   0.0000       1.712422        46.5974 
  61   0.0000       1.712422        46.5974 
  62   0.0000       1.727111        46.9971 
  63   0.0000       1.727111        46.9971 
  64   0.0000       1.752433        47.6861 
  65   0.0000       1.752433        47.6861 
  66   0.0000       1.771522        48.2056 
  67   0.0000       1.779730        48.4289 
  68   0.0000       1.779730        48.4289 
  69   0.0000       1.808270        49.2055 
  70   0.0000       1.808270        49.2055 
  71   0.0000       1.831494        49.8375 
  72   0.0000       1.832988        49.8781 
  73   0.0000       1.832988        49.8781 
  74   0.0000       1.837493        50.0007 
  75   0.0000       1.837493        50.0007 
  76   0.0000       1.845083        50.2073 
  77   0.0000       1.845083        50.2073 
  78   0.0000       1.853898        50.4471 
  79   0.0000       1.855906        50.5018 
  80   0.0000       1.855906        50.5018 
  81   0.0000       1.856390        50.5149 
  82   0.0000       1.856390        50.5149 
  83   0.0000       1.863979        50.7215 
  84   0.0000       1.863979        50.7215 
  85   0.0000       1.870364        50.8952 
  86   0.0000       1.870364        50.8952 
  87   0.0000       1.876621        51.0654 
  88   0.0000       1.876621        51.0654 
  89   0.0000       1.896172        51.5975 
  90   0.0000       1.896172        51.5975 
  91   0.0000       3.125961        85.0617 
  92   0.0000       3.161156        86.0194 
  93   0.0000       3.161156        86.0194 
  94   0.0000       3.555209        96.7422 
  95   0.0000       3.559781        96.8666 
  96   0.0000       3.559781        96.8666 
  97   0.0000       3.573649        97.2439 
  98   0.0000       3.573649        97.2439 
  99   0.0000       3.597493        97.8928 
 100   0.0000       3.597493        97.8928 
 101   0.0000       3.678164       100.0879 
 102   0.0000       3.689041       100.3839 
 103   0.0000       3.689041       100.3839 
 104   0.0000       3.714421       101.0745 
 105   0.0000       3.714421       101.0745 
 106   0.0000       3.902649       106.1965 
 107   0.0000       4.208677       114.5239 
 108   0.0000       4.211594       114.6033 
 109   0.0000       4.211594       114.6033 
 110   0.0000       4.220422       114.8435 
 111   0.0000       4.220422       114.8435 
 112   0.0000       4.235390       115.2508 
 113   0.0000       4.235390       115.2508 
 114   0.0000       4.249581       115.6370 
 115   0.0000       4.251597       115.6918 
 116   0.0000       4.251597       115.6918 
 117   0.0000       4.256959       115.8377 
 118   0.0000       4.256959       115.8377 
 119   0.0000       4.257676       115.8572 
 120   0.0000       4.257676       115.8572 
 121   0.0000       4.267902       116.1355 
 122   0.0000       4.267902       116.1355 
 123   0.0000       4.282425       116.5307 
 124   0.0000       4.282425       116.5307 
 125   0.0000       4.301471       117.0490 
 126   0.0000       4.301471       117.0490 
 127   0.0000       9.744067       265.1496 
 128   0.0000       9.749124       265.2872 
 129   0.0000       9.749124       265.2872 
 130   0.0000       9.764640       265.7094 
 131   0.0000       9.764640       265.7094 
 132   0.0000      12.923817       351.6749 
 133   0.0000      12.943798       352.2186 
 134   0.0000      12.943798       352.2186 
 135   0.0000      34.449107       937.4079 

                    ********************************
                    * MULLIKEN POPULATION ANALYSIS *
                    ********************************

--------------------------------------------
MULLIKEN ATOMIC CHARGES AND SPIN POPULATIONS
--------------------------------------------
   0 Si:   -0.000000    2.000000
Sum of atomic charges         :   -0.0000000
Sum of atomic spin populations:    2.0000000

-----------------------------------------------------
MULLIKEN REDUCED ORBITAL CHARGES AND SPIN POPULATIONS
-----------------------------------------------------
CHARGE
  0 Sis       :     5.992212  s :     5.992212
      pz      :     2.058430  p :     7.999944
      px      :     2.941541
      py      :     2.999972
      dz2     :     0.006482  d :     0.007787
      dxz     :     0.001285
      dyz     :     0.000000
      dx2y2   :     0.000020
      dxy     :     0.000000
      f0      :     0.000009  f :     0.000056
      f+1     :     0.000016
      f-1     :     0.000024
      f+2     :     0.000003
      f-2     :     0.000004
      f+3     :     0.000000
      f-3     :     0.000000
      g0      :     0.000001  g :     0.000001
      g+1     :     0.000000
      g-1     :     0.000000
      g+2     :     0.000000
      g-2     :     0.000000
      g+3     :     0.000000
      g-3     :     0.000000
      g+4     :     0.000000
      g-4     :     0.000000
      h0      :     0.000000  h :     0.000000
      h+1     :     0.000000
      h-1     :     0.000000
      h+2     :     0.000000
      h-2     :     0.000000
      h+3     :     0.000000
      h-3     :     0.000000
      h+4     :     0.000000
      h-4     :     0.000000
      h+5     :     0.000000
      h-5     :     0.000000

SPIN
  0 Sis       :    -0.000187  s :    -0.000187
      pz      :     0.058433  p :     1.999949
      px      :     0.941542
      py      :     0.999974
      dz2     :     0.000156  d :     0.000188
      dxz     :     0.000031
      dyz     :     0.000000
      dx2y2   :     0.000000
      dxy     :     0.000000
      f0      :     0.000007  f :     0.000051
      f+1     :     0.000015
      f-1     :     0.000022
      f+2     :     0.000003
      f-2     :     0.000004
      f+3     :     0.000000
      f-3     :     0.000000
      g0      :    -0.000001  g :    -0.000001
      g+1     :    -0.000000
      g-1     :    -0.000000
      g+2     :    -0.000000
      g-2     :    -0.000000
      g+3     :    -0.000000
      g-3     :    -0.000000
      g+4     :    -0.000000
      g-4     :    -0.000000
      h0      :     0.000000  h :     0.000000
      h+1     :     0.000000
      h-1     :     0.000000
      h+2     :     0.000000
      h-2     :     0.000000
      h+3     :     0.000000
      h-3     :     0.000000
      h+4     :     0.000000
      h-4     :     0.000000
      h+5     :     0.000000
      h-5     :     0.000000


                     *******************************
                     * LOEWDIN POPULATION ANALYSIS *
                     *******************************

-------------------------------------------
LOEWDIN ATOMIC CHARGES AND SPIN POPULATIONS
-------------------------------------------
   0 Si:   -0.000000    2.000000

----------------------------------------------------
LOEWDIN REDUCED ORBITAL CHARGES AND SPIN POPULATIONS
----------------------------------------------------
CHARGE
  0 Sis       :     5.992212  s :     5.992212
      pz      :     2.058430  p :     7.999944
      px      :     2.941541
      py      :     2.999972
      dz2     :     0.006482  d :     0.007787
      dxz     :     0.001285
      dyz     :     0.000000
      dx2y2   :     0.000020
      dxy     :     0.000000
      f0      :     0.000009  f :     0.000056
      f+1     :     0.000016
      f-1     :     0.000024
      f+2     :     0.000003
      f-2     :     0.000004
      f+3     :     0.000000
      f-3     :     0.000000
      g0      :     0.000001  g :     0.000001
      g+1     :     0.000000
      g-1     :     0.000000
      g+2     :     0.000000
      g-2     :     0.000000
      g+3     :     0.000000
      g-3     :     0.000000
      g+4     :     0.000000
      g-4     :     0.000000
      h0      :     0.000000  h :     0.000000
      h+1     :     0.000000
      h-1     :     0.000000
      h+2     :     0.000000
      h-2     :     0.000000
      h+3     :     0.000000
      h-3     :     0.000000
      h+4     :     0.000000
      h-4     :     0.000000
      h+5     :     0.000000
      h-5     :     0.000000

SPIN
  0 Sis       :    -0.000187  s :    -0.000187
      pz      :     0.058433  p :     1.999949
      px      :     0.941542
      py      :     0.999974
      dz2     :     0.000156  d :     0.000188
      dxz     :     0.000031
      dyz     :     0.000000
      dx2y2   :     0.000000
      dxy     :     0.000000
      f0      :     0.000007  f :     0.000051
      f+1     :     0.000015
      f-1     :     0.000022
      f+2     :     0.000003
      f-2     :     0.000004
      f+3     :     0.000000
      f-3     :     0.000000
      g0      :    -0.000001  g :    -0.000001
      g+1     :    -0.000000
      g-1     :    -0.000000
      g+2     :    -0.000000
      g-2     :    -0.000000
      g+3     :    -0.000000
      g-3     :    -0.000000
      g+4     :    -0.000000
      g-4     :    -0.000000
      h0      :     0.000000  h :     0.000000
      h+1     :     0.000000
      h-1     :     0.000000
      h+2     :     0.000000
      h-2     :     0.000000
      h+3     :     0.000000
      h-3     :     0.000000
      h+4     :     0.000000
      h-4     :     0.000000
      h+5     :     0.000000
      h-5     :     0.000000


                      *****************************
                      * MAYER POPULATION ANALYSIS *
                      *****************************

  NA   - Mulliken gross atomic population
  ZA   - Total nuclear charge
  QA   - Mulliken gross atomic charge
  VA   - Mayer's total valence
  BVA  - Mayer's bonded valence
  FA   - Mayer's free valence

  ATOM       NA         ZA         QA         VA         BVA        FA
  0 Si    14.0000    14.0000    -0.0000     2.0314     0.0000     2.0314

  Mayer bond orders larger than 0.100000


-------
TIMINGS
-------

Total SCF time: 0 days 0 hours 0 min 16 sec 

Total time                  ....      16.460 sec
Sum of individual times     ....      15.977 sec  ( 97.1%)

Fock matrix formation       ....      15.518 sec  ( 94.3%)
Diagonalization             ....       0.081 sec  (  0.5%)
Density matrix formation    ....       0.008 sec  (  0.0%)
Population analysis         ....       0.028 sec  (  0.2%)
Initial guess               ....       0.154 sec  (  0.9%)
Orbital Transformation      ....       0.000 sec  (  0.0%)
Orbital Orthonormalization  ....       0.000 sec  (  0.0%)
DIIS solution               ....       0.164 sec  (  1.0%)


           ************************************************************
           *        Program running with 6 parallel MPI-processes     *
           *              working on a common directory               *
           ************************************************************


------------------------------------------------------------------------------- 
                              ORCA-MATRIX DRIVEN CI                            
------------------------------------------------------------------------------- 

--------------------------------
AUTOMATIC CHOICE OF INCORE LEVEL
--------------------------------

Memory available                           ...   2500.00 MB
Memory needed for S+T                      ...      2.25 MB
Memory needed for J+K                      ...      4.51 MB
Memory needed for DIIS                     ...     31.50 MB
Memory needed for 3-ext                    ...     48.00 MB
Memory needed for 4-ext                    ...   1032.00 MB
Memory needed for triples                  ...     80.00 MB
 -> Final InCoreLevel    ... 5
 -> check shows that triples correction can be computed


Wavefunction type
-----------------
Correlation treatment                      ...      CCSD     
Single excitations                         ... ON
Orbital optimization                       ... OFF
Calculation of Z vector                    ... OFF
Calculation of Brueckner orbitals          ... OFF
Perturbative triple excitations            ... ON
Calculation of F12 correction              ... OFF
Frozen core treatment                      ... chemical core (10 el)
Reference Wavefunction                     ... UHF
  Alpha-MOs occ    :     5 ...    7 (  3 MO's/  3 electrons)
  Beta-MOs occ     :     5 ...    5 (  1 MO's/  1 electrons)
  Alpha-MOs virt   :     8 ...  135 (128 MO's              )
  Beta-MOs virt    :     6 ...  135 (130 MO's              )
Number of AO's                             ...    136
Number of electrons                        ...     14
Number of correlated electrons             ...      4

Algorithmic settings
--------------------
Integral transformation                    ... AO direct full transformation
K(C) Formation                             ... FULL-MO TRAFO
Maximum number of iterations               ...        50
Convergence tolerance (max. residuum)      ... 1.000e-05
Level shift for amplitude update           ... 2.000e-01
Maximum number of DIIS vectors             ...         7
DIIS turned on at iteration                ...         0
Damping before turning on DIIS             ...     0.500
Damping after turning on DIIS              ...     0.000
Pair specific amplitude update             ... OFF
Natural orbital iterations                 ... OFF
Perturbative natural orbital generation    ... OFF
Printlevel                                 ... 2

Memory handling:
----------------
Maximum memory for working arrays          ...   2500 MB
Data storage in matrix containers          ... UNCOMPRESSED
Data type for integral storage             ... DOUBLE
In-Core Storage of quantities:
   Amplitudes+Sigma Vector      ... YES
   J+K operators                ... YES
   DIIS vectors                 ... YES
   3-external integrals         ... YES
   4-external integrals         ... YES


Initializing the integral package          ... done
Warning: reference  - re-canonicalizations have been set to INT 1 VIRT 1

--------------------------
UNRESTRICTED FOCK OPERATOR
--------------------------

<ss|ss>:          666 b            0 skpd (  0.0%)    0.013 s ( 0.020 ms/b)
<ss|sp>:         2016 b            0 skpd (  0.0%)    0.058 s ( 0.029 ms/b)
<ss|sd>:         1728 b            0 skpd (  0.0%)    0.010 s ( 0.006 ms/b)
<ss|sf>:         1152 b            0 skpd (  0.0%)    0.010 s ( 0.009 ms/b)
<ss|sg>:          864 b            1 skpd (  0.1%)    0.011 s ( 0.013 ms/b)
<ss|sh>:          576 b            0 skpd (  0.0%)    0.009 s ( 0.015 ms/b)
<ss|pp>:         1008 b            0 skpd (  0.0%)    0.023 s ( 0.023 ms/b)
<ss|pd>:         1512 b            0 skpd (  0.0%)    0.007 s ( 0.005 ms/b)
<ss|pf>:         1008 b            0 skpd (  0.0%)    0.010 s ( 0.010 ms/b)
<ss|pg>:          756 b            0 skpd (  0.0%)    0.011 s ( 0.015 ms/b)
<ss|ph>:          504 b            0 skpd (  0.0%)    0.009 s ( 0.018 ms/b)
<ss|dd>:          756 b            0 skpd (  0.0%)    0.002 s ( 0.002 ms/b)
<ss|df>:          864 b            0 skpd (  0.0%)    0.003 s ( 0.003 ms/b)
<ss|dg>:          648 b            0 skpd (  0.0%)    0.003 s ( 0.005 ms/b)
<ss|dh>:          432 b            0 skpd (  0.0%)    0.003 s ( 0.007 ms/b)
<ss|ff>:          360 b            0 skpd (  0.0%)    0.002 s ( 0.006 ms/b)
<ss|fg>:          432 b            0 skpd (  0.0%)    0.003 s ( 0.008 ms/b)
<ss|fh>:          288 b            0 skpd (  0.0%)    0.004 s ( 0.015 ms/b)
<ss|gg>:          216 b            0 skpd (  0.0%)    0.002 s ( 0.011 ms/b)
<ss|gh>:          216 b            0 skpd (  0.0%)    0.003 s ( 0.015 ms/b)
<ss|hh>:          108 b            0 skpd (  0.0%)    0.004 s ( 0.040 ms/b)
<sp|sp>:         1596 b            0 skpd (  0.0%)    0.027 s ( 0.017 ms/b)
<sp|sd>:         2688 b            2 skpd (  0.1%)    0.011 s ( 0.004 ms/b)
<sp|sf>:         1792 b            4 skpd (  0.2%)    0.012 s ( 0.007 ms/b)
<sp|sg>:         1344 b           14 skpd (  1.0%)    0.014 s ( 0.010 ms/b)
<sp|sh>:          896 b           12 skpd (  1.3%)    0.011 s ( 0.012 ms/b)
<sp|pp>:         1568 b            0 skpd (  0.0%)    0.017 s ( 0.011 ms/b)
<sp|pd>:         2352 b            0 skpd (  0.0%)    0.010 s ( 0.004 ms/b)
<sp|pf>:         1568 b            0 skpd (  0.0%)    0.014 s ( 0.009 ms/b)
<sp|pg>:         1176 b            1 skpd (  0.1%)    0.015 s ( 0.013 ms/b)
<sp|ph>:          784 b            0 skpd (  0.0%)    0.012 s ( 0.016 ms/b)
<sp|dd>:         1176 b            0 skpd (  0.0%)    0.003 s ( 0.003 ms/b)
<sp|df>:         1344 b            2 skpd (  0.1%)    0.005 s ( 0.004 ms/b)
<sp|dg>:         1008 b            3 skpd (  0.3%)    0.005 s ( 0.005 ms/b)
<sp|dh>:          672 b            2 skpd (  0.3%)    0.005 s ( 0.007 ms/b)
<sp|ff>:          560 b            0 skpd (  0.0%)    0.004 s ( 0.007 ms/b)
<sp|fg>:          672 b            0 skpd (  0.0%)    0.005 s ( 0.008 ms/b)
<sp|fh>:          448 b            0 skpd (  0.0%)    0.007 s ( 0.015 ms/b)
<sp|gg>:          336 b            4 skpd (  1.2%)    0.004 s ( 0.011 ms/b)
<sp|gh>:          336 b            6 skpd (  1.8%)    0.005 s ( 0.015 ms/b)
<sp|hh>:          168 b            3 skpd (  1.8%)    0.007 s ( 0.040 ms/b)
<sd|sd>:         1176 b            2 skpd (  0.2%)    0.003 s ( 0.003 ms/b)
<sd|sf>:         1536 b           10 skpd (  0.7%)    0.007 s ( 0.005 ms/b)
<sd|sg>:         1152 b           16 skpd (  1.4%)    0.008 s ( 0.007 ms/b)
<sd|sh>:          768 b           13 skpd (  1.7%)    0.007 s ( 0.009 ms/b)
<sd|pp>:         1344 b            1 skpd (  0.1%)    0.009 s ( 0.007 ms/b)
<sd|pd>:         2016 b           15 skpd (  0.7%)    0.006 s ( 0.003 ms/b)
<sd|pf>:         1344 b            9 skpd (  0.7%)    0.010 s ( 0.007 ms/b)
<sd|pg>:         1008 b           28 skpd (  2.8%)    0.010 s ( 0.010 ms/b)
<sd|ph>:          672 b           18 skpd (  2.7%)    0.008 s ( 0.012 ms/b)
<sd|dd>:         1008 b            3 skpd (  0.3%)    0.003 s ( 0.003 ms/b)
<sd|df>:         1152 b           10 skpd (  0.9%)    0.005 s ( 0.004 ms/b)
<sd|dg>:          864 b            9 skpd (  1.0%)    0.005 s ( 0.006 ms/b)
<sd|dh>:          576 b            5 skpd (  0.9%)    0.005 s ( 0.008 ms/b)
<sd|ff>:          480 b            4 skpd (  0.8%)    0.004 s ( 0.008 ms/b)
<sd|fg>:          576 b           12 skpd (  2.1%)    0.005 s ( 0.009 ms/b)
<sd|fh>:          384 b            8 skpd (  2.1%)    0.005 s ( 0.014 ms/b)
<sd|gg>:          288 b            1 skpd (  0.3%)    0.004 s ( 0.014 ms/b)
<sd|gh>:          288 b            6 skpd (  2.1%)    0.005 s ( 0.018 ms/b)
<sd|hh>:          144 b            0 skpd (  0.0%)    0.005 s ( 0.037 ms/b)
<sf|sf>:          528 b           13 skpd (  2.5%)    0.006 s ( 0.012 ms/b)
<sf|sg>:          768 b           27 skpd (  3.5%)    0.012 s ( 0.016 ms/b)
<sf|sh>:          512 b           23 skpd (  4.5%)    0.010 s ( 0.020 ms/b)
<sf|pp>:          896 b            3 skpd (  0.3%)    0.011 s ( 0.012 ms/b)
<sf|pd>:         1344 b           20 skpd (  1.5%)    0.007 s ( 0.005 ms/b)
<sf|pf>:          896 b           17 skpd (  1.9%)    0.013 s ( 0.015 ms/b)
<sf|pg>:          672 b           18 skpd (  2.7%)    0.013 s ( 0.019 ms/b)
<sf|ph>:          448 b           13 skpd (  2.9%)    0.012 s ( 0.028 ms/b)
<sf|dd>:          672 b            9 skpd (  1.3%)    0.003 s ( 0.004 ms/b)
<sf|df>:          768 b           29 skpd (  3.8%)    0.005 s ( 0.007 ms/b)
<sf|dg>:          576 b           26 skpd (  4.5%)    0.006 s ( 0.010 ms/b)
<sf|dh>:          384 b           19 skpd (  4.9%)    0.005 s ( 0.014 ms/b)
<sf|ff>:          320 b           13 skpd (  4.1%)    0.004 s ( 0.013 ms/b)
<sf|fg>:          384 b           23 skpd (  6.0%)    0.006 s ( 0.016 ms/b)
<sf|fh>:          256 b           21 skpd (  8.2%)    0.006 s ( 0.027 ms/b)
<sf|gg>:          192 b           19 skpd (  9.9%)    0.004 s ( 0.021 ms/b)
<sf|gh>:          192 b           22 skpd ( 11.5%)    0.005 s ( 0.027 ms/b)
<sf|hh>:           96 b           26 skpd ( 27.1%)    0.004 s ( 0.057 ms/b)
<sg|sg>:          300 b           17 skpd (  5.7%)    0.008 s ( 0.028 ms/b)
<sg|sh>:          384 b           23 skpd (  6.0%)    0.011 s ( 0.032 ms/b)
<sg|pp>:          672 b            5 skpd (  0.7%)    0.015 s ( 0.023 ms/b)
<sg|pd>:         1008 b           61 skpd (  6.1%)    0.009 s ( 0.010 ms/b)
<sg|pf>:          672 b           22 skpd (  3.3%)    0.013 s ( 0.020 ms/b)
<sg|pg>:          504 b           70 skpd ( 13.9%)    0.013 s ( 0.030 ms/b)
<sg|ph>:          336 b           46 skpd ( 13.7%)    0.010 s ( 0.036 ms/b)
<sg|dd>:          504 b           13 skpd (  2.6%)    0.003 s ( 0.007 ms/b)
<sg|df>:          576 b           35 skpd (  6.1%)    0.006 s ( 0.011 ms/b)
<sg|dg>:          432 b           30 skpd (  6.9%)    0.007 s ( 0.017 ms/b)
<sg|dh>:          288 b           21 skpd (  7.3%)    0.007 s ( 0.024 ms/b)
<sg|ff>:          240 b           17 skpd (  7.1%)    0.005 s ( 0.021 ms/b)
<sg|fg>:          288 b           36 skpd ( 12.5%)    0.006 s ( 0.024 ms/b)
<sg|fh>:          192 b           24 skpd ( 12.5%)    0.008 s ( 0.048 ms/b)
<sg|gg>:          144 b           18 skpd ( 12.5%)    0.005 s ( 0.037 ms/b)
<sg|gh>:          144 b           18 skpd ( 12.5%)    0.006 s ( 0.048 ms/b)
<sg|hh>:           72 b            9 skpd ( 12.5%)    0.008 s ( 0.126 ms/b)
<sh|sh>:          136 b           12 skpd (  8.8%)    0.011 s ( 0.088 ms/b)
<sh|pp>:          448 b            4 skpd (  0.9%)    0.020 s ( 0.044 ms/b)
<sh|pd>:          672 b           44 skpd (  6.5%)    0.013 s ( 0.021 ms/b)
<sh|pf>:          448 b           18 skpd (  4.0%)    0.017 s ( 0.040 ms/b)
<sh|pg>:          336 b           49 skpd ( 14.6%)    0.015 s ( 0.052 ms/b)
<sh|ph>:          224 b           65 skpd ( 29.0%)    0.009 s ( 0.058 ms/b)
<sh|dd>:          336 b            9 skpd (  2.7%)    0.004 s ( 0.012 ms/b)
<sh|df>:          384 b           27 skpd (  7.0%)    0.007 s ( 0.019 ms/b)
<sh|dg>:          288 b           22 skpd (  7.6%)    0.008 s ( 0.031 ms/b)
<sh|dh>:          192 b           17 skpd (  8.9%)    0.007 s ( 0.043 ms/b)
<sh|ff>:          160 b           16 skpd ( 10.0%)    0.005 s ( 0.036 ms/b)
<sh|fg>:          192 b           24 skpd ( 12.5%)    0.007 s ( 0.042 ms/b)
<sh|fh>:          128 b           71 skpd ( 55.5%)    0.002 s ( 0.031 ms/b)
<sh|gg>:           96 b           12 skpd ( 12.5%)    0.005 s ( 0.061 ms/b)
<sh|gh>:           96 b           12 skpd ( 12.5%)    0.007 s ( 0.083 ms/b)
<sh|hh>: done
<pp|pp>:          406 b            0 skpd (  0.0%)    0.006 s ( 0.015 ms/b)
<pp|pd>:         1176 b            0 skpd (  0.0%)    0.005 s ( 0.004 ms/b)
<pp|pf>:          784 b            0 skpd (  0.0%)    0.007 s ( 0.009 ms/b)
<pp|pg>:          588 b            0 skpd (  0.0%)    0.009 s ( 0.014 ms/b)
<pp|ph>:          392 b            0 skpd (  0.0%)    0.008 s ( 0.019 ms/b)
<pp|dd>:          588 b            0 skpd (  0.0%)    0.002 s ( 0.004 ms/b)
<pp|df>:          672 b            0 skpd (  0.0%)    0.003 s ( 0.005 ms/b)
<pp|dg>:          504 b            0 skpd (  0.0%)    0.004 s ( 0.008 ms/b)
<pp|dh>:          336 b            0 skpd (  0.0%)    0.003 s ( 0.010 ms/b)
<pp|ff>:          280 b            0 skpd (  0.0%)    0.003 s ( 0.009 ms/b)
<pp|fg>:          336 b            0 skpd (  0.0%)    0.004 s ( 0.011 ms/b)
<pp|fh>:          224 b            0 skpd (  0.0%)    0.005 s ( 0.023 ms/b)
<pp|gg>:          168 b            0 skpd (  0.0%)    0.003 s ( 0.017 ms/b)
<pp|gh>:          168 b            0 skpd (  0.0%)    0.004 s ( 0.022 ms/b)
<pp|hh>:           84 b            0 skpd (  0.0%)    0.005 s ( 0.063 ms/b)
<pd|pd>:          903 b            0 skpd (  0.0%)    0.004 s ( 0.005 ms/b)
<pd|pf>:         1176 b            0 skpd (  0.0%)    0.009 s ( 0.008 ms/b)
<pd|pg>:          882 b            0 skpd (  0.0%)    0.011 s ( 0.012 ms/b)
<pd|ph>:          588 b            0 skpd (  0.0%)    0.010 s ( 0.017 ms/b)
<pd|dd>:          882 b            2 skpd (  0.2%)    0.004 s ( 0.005 ms/b)
<pd|df>:         1008 b            1 skpd (  0.1%)    0.006 s ( 0.006 ms/b)
<pd|dg>:          756 b            6 skpd (  0.8%)    0.007 s ( 0.009 ms/b)
<pd|dh>:          504 b            4 skpd (  0.8%)    0.006 s ( 0.012 ms/b)
<pd|ff>:          420 b            0 skpd (  0.0%)    0.005 s ( 0.011 ms/b)
<pd|fg>:          504 b            0 skpd (  0.0%)    0.007 s ( 0.014 ms/b)
<pd|fh>:          336 b            0 skpd (  0.0%)    0.009 s ( 0.026 ms/b)
<pd|gg>:          252 b            0 skpd (  0.0%)    0.005 s ( 0.019 ms/b)
<pd|gh>:          252 b            0 skpd (  0.0%)    0.006 s ( 0.026 ms/b)
<pd|hh>:          126 b            0 skpd (  0.0%)    0.009 s ( 0.068 ms/b)
<pf|pf>:          406 b            0 skpd (  0.0%)    0.006 s ( 0.014 ms/b)
<pf|pg>:          588 b            0 skpd (  0.0%)    0.014 s ( 0.024 ms/b)
<pf|ph>:          392 b            0 skpd (  0.0%)    0.013 s ( 0.033 ms/b)
<pf|dd>:          588 b            0 skpd (  0.0%)    0.004 s ( 0.006 ms/b)
<pf|df>:          672 b            0 skpd (  0.0%)    0.007 s ( 0.010 ms/b)
<pf|dg>:          504 b            0 skpd (  0.0%)    0.007 s ( 0.014 ms/b)
<pf|dh>:          336 b            0 skpd (  0.0%)    0.007 s ( 0.019 ms/b)
<pf|ff>:          280 b            0 skpd (  0.0%)    0.006 s ( 0.021 ms/b)
<pf|fg>:          336 b            0 skpd (  0.0%)    0.008 s ( 0.024 ms/b)
<pf|fh>:          224 b            0 skpd (  0.0%)    0.011 s ( 0.047 ms/b)
<pf|gg>:          168 b            0 skpd (  0.0%)    0.006 s ( 0.033 ms/b)
<pf|gh>:          168 b            0 skpd (  0.0%)    0.008 s ( 0.045 ms/b)
<pf|hh>:           84 b            0 skpd (  0.0%)    0.010 s ( 0.122 ms/b)
<pg|pg>:          231 b            0 skpd (  0.0%)    0.011 s ( 0.047 ms/b)
<pg|ph>:          294 b            0 skpd (  0.0%)    0.017 s ( 0.059 ms/b)
<pg|dd>:          441 b            2 skpd (  0.5%)    0.005 s ( 0.010 ms/b)
<pg|df>:          504 b            0 skpd (  0.0%)    0.008 s ( 0.015 ms/b)
<pg|dg>:          378 b           29 skpd (  7.7%)    0.009 s ( 0.026 ms/b)
<pg|dh>:          252 b           12 skpd (  4.8%)    0.008 s ( 0.033 ms/b)
<pg|ff>:          210 b            0 skpd (  0.0%)    0.006 s ( 0.029 ms/b)
<pg|fg>:          252 b            0 skpd (  0.0%)    0.010 s ( 0.038 ms/b)
<pg|fh>:          168 b            0 skpd (  0.0%)    0.012 s ( 0.073 ms/b)
<pg|gg>:          126 b            4 skpd (  3.2%)    0.007 s ( 0.060 ms/b)
<pg|gh>:          126 b            0 skpd (  0.0%)    0.010 s ( 0.079 ms/b)
<pg|hh>:           63 b            0 skpd (  0.0%)    0.013 s ( 0.200 ms/b)
<ph|ph>:          105 b            0 skpd (  0.0%)    0.013 s ( 0.121 ms/b)
<ph|dd>:          294 b            2 skpd (  0.7%)    0.005 s ( 0.016 ms/b)
<ph|df>:          336 b            0 skpd (  0.0%)    0.008 s ( 0.024 ms/b)
<ph|dg>:          252 b           13 skpd (  5.2%)    0.009 s ( 0.038 ms/b)
<ph|dh>:          168 b           17 skpd ( 10.1%)    0.009 s ( 0.058 ms/b)
<ph|ff>:          140 b            0 skpd (  0.0%)    0.007 s ( 0.046 ms/b)
<ph|fg>:          168 b            0 skpd (  0.0%)    0.010 s ( 0.057 ms/b)
<ph|fh>:          112 b            0 skpd (  0.0%)    0.013 s ( 0.119 ms/b)
<ph|gg>:           84 b            0 skpd (  0.0%)    0.007 s ( 0.082 ms/b)
<ph|gh>:           84 b            0 skpd (  0.0%)    0.010 s ( 0.120 ms/b)
<ph|hh>:           42 b            0 skpd (  0.0%)    0.014 s ( 0.337 ms/b)
<dd|dd>:          231 b            0 skpd (  0.0%)    0.001 s ( 0.006 ms/b)
<dd|df>:          504 b            1 skpd (  0.2%)    0.004 s ( 0.009 ms/b)
<dd|dg>:          378 b            1 skpd (  0.3%)    0.005 s ( 0.012 ms/b)
<dd|dh>:          252 b            1 skpd (  0.4%)    0.004 s ( 0.016 ms/b)
<dd|ff>:          210 b            0 skpd (  0.0%)    0.003 s ( 0.016 ms/b)
<dd|fg>:          252 b            0 skpd (  0.0%)    0.005 s ( 0.018 ms/b)
<dd|fh>:          168 b            0 skpd (  0.0%)    0.006 s ( 0.035 ms/b)
<dd|gg>:          126 b            0 skpd (  0.0%)    0.003 s ( 0.026 ms/b)
<dd|gh>:          126 b            0 skpd (  0.0%)    0.004 s ( 0.036 ms/b)
<dd|hh>:           63 b            0 skpd (  0.0%)    0.006 s ( 0.098 ms/b)
<df|df>:          300 b            2 skpd (  0.7%)    0.005 s ( 0.016 ms/b)
<df|dg>:          432 b            3 skpd (  0.7%)    0.008 s ( 0.019 ms/b)
<df|dh>:          288 b            3 skpd (  1.0%)    0.007 s ( 0.025 ms/b)
<df|ff>:          240 b            0 skpd (  0.0%)    0.007 s ( 0.028 ms/b)
<df|fg>:          288 b            0 skpd (  0.0%)    0.009 s ( 0.031 ms/b)
<df|fh>:          192 b            0 skpd (  0.0%)    0.012 s ( 0.062 ms/b)
<df|gg>:          144 b            0 skpd (  0.0%)    0.006 s ( 0.044 ms/b)
<df|gh>:          144 b            0 skpd (  0.0%)    0.008 s ( 0.059 ms/b)
<df|hh>:           72 b            3 skpd (  4.2%)    0.011 s ( 0.164 ms/b)
<dg|dg>:          171 b            2 skpd (  1.2%)    0.006 s ( 0.035 ms/b)
<dg|dh>:          216 b            3 skpd (  1.4%)    0.008 s ( 0.037 ms/b)
<dg|ff>:          180 b            0 skpd (  0.0%)    0.006 s ( 0.034 ms/b)
<dg|fg>:          216 b            2 skpd (  0.9%)    0.009 s ( 0.044 ms/b)
<dg|fh>:          144 b            1 skpd (  0.7%)    0.012 s ( 0.083 ms/b)
<dg|gg>:          108 b            0 skpd (  0.0%)    0.008 s ( 0.071 ms/b)
<dg|gh>:          108 b            0 skpd (  0.0%)    0.010 s ( 0.091 ms/b)
<dg|hh>:           54 b            0 skpd (  0.0%)    0.013 s ( 0.245 ms/b)
<dh|dh>:           78 b            1 skpd (  1.3%)    0.006 s ( 0.074 ms/b)
<dh|ff>:          120 b            0 skpd (  0.0%)    0.006 s ( 0.048 ms/b)
<dh|fg>:          144 b            1 skpd (  0.7%)    0.009 s ( 0.061 ms/b)
<dh|fh>:           96 b           31 skpd ( 32.3%)    0.009 s ( 0.140 ms/b)
<dh|gg>:           72 b            0 skpd (  0.0%)    0.006 s ( 0.088 ms/b)
<dh|gh>:           72 b            0 skpd (  0.0%)    0.010 s ( 0.139 ms/b)
<dh|hh>: done
<ff|ff>:           55 b            0 skpd (  0.0%)    0.003 s ( 0.052 ms/b)
<ff|fg>:          120 b            0 skpd (  0.0%)    0.006 s ( 0.053 ms/b)
<ff|fh>:           80 b            0 skpd (  0.0%)    0.008 s ( 0.104 ms/b)
<ff|gg>:           60 b            0 skpd (  0.0%)    0.005 s ( 0.076 ms/b)
<ff|gh>:           60 b            0 skpd (  0.0%)    0.007 s ( 0.112 ms/b)
<ff|hh>:           30 b            0 skpd (  0.0%)    0.009 s ( 0.296 ms/b)
<fg|fg>:           78 b            0 skpd (  0.0%)    0.008 s ( 0.107 ms/b)
<fg|fh>:           96 b            0 skpd (  0.0%)    0.015 s ( 0.158 ms/b)
<fg|gg>:           72 b            0 skpd (  0.0%)    0.009 s ( 0.128 ms/b)
<fg|gh>:           72 b            0 skpd (  0.0%)    0.013 s ( 0.175 ms/b)
<fg|hh>:           36 b            0 skpd (  0.0%)    0.016 s ( 0.446 ms/b)
<fh|fh>:           36 b            0 skpd (  0.0%)    0.009 s ( 0.254 ms/b)
<fh|gg>:           48 b            0 skpd (  0.0%)    0.008 s ( 0.160 ms/b)
<fh|gh>:           48 b            1 skpd (  2.1%)    0.014 s ( 0.290 ms/b)
<fh|hh>:           24 b            0 skpd (  0.0%)    0.016 s ( 0.680 ms/b)
<gg|gg>:           21 b            0 skpd (  0.0%)    0.007 s ( 0.326 ms/b)
<gg|gh>:           36 b            0 skpd (  0.0%)    0.012 s ( 0.324 ms/b)
<gg|hh>:           18 b            0 skpd (  0.0%)    0.015 s ( 0.817 ms/b)
<gh|gh>:           21 b            0 skpd (  0.0%)    0.016 s ( 0.750 ms/b)
<gh|hh>: done
<hh|hh>: done
Recanonicalizing the internal orbitals
Recanonicalizing the virtual orbitals
Time needed for Fock operator              ...            1.870 sec
Reference energy                           ...   -288.858842576
Warning: for UHF the TrafoType has to be JK
Warning: for UHF the K(C)-option cannot be MO but must be AOX

-------------------------------
PARTIAL EXCHANGE TRANSFORMATION
-------------------------------

Transformation type                        ... two-operators
Generation of integrals (i,mue|j,nue)      ... ON
Generation of integrals (mue,kappa|nue,tau)... ON
Generation of integrals (i,mue|a,nue)      ... ON
Dimension of the basis                     ...  136
Number of internal alpha-MOs               ...    3 (   5-   7)
Number of internal beta-MOs                ...    1 (   5-   5)
Number of external alpha-MOs               ...  128 (   8- 135)
Number of external beta-MOs                ...  130 (   6- 135)
Pair cutoff                                ... 0.000e+00 Eh
Number of AO pairs in the trafo            ... 9316
Total Number of distinct AO pairs          ... 9316
Memory devoted for trafo                   ... 2500.0 MB 
Max. Number of MO pairs treated together   ... 17716      
Number Format for Storage                  ... Double (8 Byte)
Integral package used                      ... LIBINT

Starting integral evaluation:
    ... done with AO integral generation
Closing buffer AOK[aa] ( 0.00 GB; CompressionRatio= 0.86)
Closing buffer AOK[bb] ( 0.00 GB; CompressionRatio= 0.40)
Closing buffer AOK[ab] ( 0.00 GB; CompressionRatio= 0.67)
Closing buffer AOK[ba] ( 0.00 GB; CompressionRatio= 0.67)
Collecting buffer AOK 
Closing buffer IAAO1[aa] ( 0.00 GB; CompressionRatio= 1.00)
Closing buffer IAAO1[bb] ( 0.00 GB; CompressionRatio= 0.99)
Closing buffer IAAO1[ab] ( 0.00 GB; CompressionRatio= 1.00)
Closing buffer IAAO1[ba] ( 0.00 GB; CompressionRatio= 0.99)
Closing buffer IAAO2[aa] ( 0.00 GB; CompressionRatio= 1.00)
Closing buffer IAAO2[bb] ( 0.00 GB; CompressionRatio= 0.99)
Closing buffer IAAO2[ab] ( 0.00 GB; CompressionRatio= 1.00)
Closing buffer IAAO2[ba] ( 0.00 GB; CompressionRatio= 0.99)
Collecting buffer IAAO 
Closing buffer PRQS    ( 0.17 GB; CompressionRatio= 1.00)
Collecting buffer PRQS 
Number of alpha/alpha MO pairs in trafo    ...    6
Number of beta /beta  MO pairs in trafo    ...    1
Number of alpha/ beta MO pairs in trafo    ...    3
------------------------
SORTING OF (i,mue|j,nue)
------------------------

SORTING OF ALPHA/ALPHA PAIRS
IBATCH = 1 of  1
Closing buffer KAO[aa] ( 0.00 GB; CompressionRatio= 1.00)
Collecting buffer KAO 
SORTING OF BETA /BETA  PAIRS
IBATCH = 1 of  1
Closing buffer KAO[bb] ( 0.00 GB; CompressionRatio= 1.00)
Collecting buffer KAO 
SORTING OF ALPHA/BETA  PAIRS
IBATCH = 1 of  1
Closing buffer KAO[ab] ( 0.00 GB; CompressionRatio= 0.999918907961)
Collecting buffer KAO[ab] 
------------------------
SORTING OF (i,mue|a,nue)
------------------------

Number of alpha/alpha (i,a) pairs in trafo  ...  384
Number of beta /beta  (i,a) pairs in trafo  ...  130
Number of alpha/ beta (i,a) pairs in trafo  ...  390
Number of beta /alpha (i,a) pairs in trafo  ...  128
Setting up the alpha/alpha list             ... done
Setting up the beta /beta  list             ... done
Setting up the alpha/beta  list             ... done
Setting up the beta /alpha list             ... done
    ... Now sorting (i,mue|a,nue)integrals
    ... Integrals (i,b|a,c) will be made on the fly
SORTING OF ALPHA/ALPHA PAIRS
IBATCH = 1 of  1
Closing buffer IPAQ[aa]  0.01 GB; CompressionRatio= 1.00)
SORTING OF BETA /BETA  PAIRS
IBATCH = 1 of  1
Closing buffer IPAQ[bb]( 0.00 GB; CompressionRatio= 1.00)
SORTING OF ALPHA/BETA  PAIRS (NMatSort_ab=65)
IBATCH = 1 of  1
Closing buffer IPAQ[ab]( 0.01 GB; CompressionRatio= 1.00)
SORTING OF BETA/ALPHA  PAIRS
IBATCH = 1 of  1
Closing buffer IPAQ[ba]( 0.00 GB; CompressionRatio= 1.00)
N(AO-Batches) Done                         ...     58500 
N(AO-Batches) Skipped                      ...         0 
N(IJ)-pairs Skipped                        ...         0 
TOTAL TIME for half transformation         ...    16.600 sec
AO-integral generation                     ...     3.530 sec
Half transformation                        ...     5.057 sec
K-integral sorting                         ...     0.985 sec
<ss|**>: 
------------------------------
PARTIAL COULOMB TRANSFORMATION
------------------------------

Transformation type                        ... two-operators
Dimension of the basis                     ...  136
Number of internal alpha-MOs               ...    3 (5-7)
Number of internal beta-MOs                ...    1 (5-5)
Pair cutoff                                ... 0.000e+00 Eh
Number of AO pairs included in the trafo   ... 9316
Total Number of distinct AO pairs          ... 9316
Memory devoted for trafo                   ... 2500.0 MB 
Max. Number of MO pairs treated together   ... 35173      
Max. Number of MOs treated per batch       ...  258      
Number Format for Storage                  ... Double (8 Byte)
AO-integral source                         ... DIRECT
Integral package used                      ... LIBINT

Starting integral evaluation:
<sp|**>:        16740 b        0 skpd     0.358 s (  0.021 ms/b)
<sd|**>:        26040 b        0 skpd     0.249 s (  0.010 ms/b)
       22320 b        0 skpd     0.213 s (  0.010 ms/b)
<sf|**>:        14880 b        0 skpd     0.238 s (  0.016 ms/b)
<sg|**>:        11160 b        0 skpd     0.335 s (  0.030 ms/b)
<sh|**>:         7440 b        0 skpd     0.318 s (  0.043 ms/b)
<pp|**>:        13020 b        0 skpd     0.248 s (  0.019 ms/b)
<pd|**>:        19530 b        0 skpd     0.250 s (  0.013 ms/b)
<pf|**>:        13020 b        0 skpd     0.314 s (  0.024 ms/b)
<pg|**>:         9765 b        0 skpd     0.441 s (  0.045 ms/b)
<ph|**>:         6510 b        0 skpd     0.388 s (  0.060 ms/b)
<dd|**>:         9765 b        0 skpd     0.161 s (  0.016 ms/b)
<df|**>:        11160 b        0 skpd     0.269 s (  0.024 ms/b)
<dg|**>:         8370 b        0 skpd     0.259 s (  0.031 ms/b)
<dh|**>:         5580 b        0 skpd     0.247 s (  0.044 ms/b)
<ff|**>:         4650 b        0 skpd     0.200 s (  0.043 ms/b)
<fg|**>:         5580 b        0 skpd     0.309 s (  0.055 ms/b)
<fh|**>:         3720 b        0 skpd     0.394 s (  0.106 ms/b)
<gg|**>:         2790 b        0 skpd     0.208 s (  0.074 ms/b)
<gh|**>:         2790 b        0 skpd     0.305 s (  0.109 ms/b)
<hh|**>:         1395 b        0 skpd     0.362 s (  0.260 ms/b)
Closing buffer AOJ[aa] ( 0.00 GB; CompressionRatio= 0.80)
Closing buffer AOJ[bb] ( 0.00 GB; CompressionRatio= 0.00)
Collecting buffer AOJ 
    ... done with AO integral generation
Number of Alpha-MO pairs included          ...    6
Number of Beta-MO pairs included           ...    1
    ... Now sorting integrals
SORTING ALPHA/ALPHA PAIRS
IBATCH = 1 of  1
Closing buffer JAO[aa] ( 0.00 GB; CompressionRatio= 1.00)
SORTING BETA/BETA PAIRS
IBATCH = 1 of  1
Closing buffer JAO[bb] ( 0.00 GB; CompressionRatio= 1.00)
Collecting buffer JAO 
TOTAL TIME for half transformation         ...     6.134 sec
AO-integral generation                     ...     4.974 sec
Half transformation                        ...     1.103 sec
J-integral sorting                         ...     0.043 sec

-------------------------- SECOND HALF TRANSFORMATION -------------------------
Formation of (ij|kl),(ij|ka), (ij|ab)      ... ok (     0.050 sec)
Formation of (ik|jl),(ik|ja), (ia|jb)      ... ok (     0.055 sec)


-----------------------
SPIN UNRESTRICTED GUESS
-----------------------

Entering MDCI_UHF_Guess, Tailored=0
Spin-components of the MP2 energy:
EMP2(aa)=     -0.010419824
EMP2(bb)=      0.000000000
EMP2(ab)=     -0.051445512

Initial guess performed in     0.003 sec
E(0)                                       ...   -288.858842576
E(MP2)                                     ...     -0.061865336
Initial E(tot)                             ...   -288.920707912
<T|T>                                      ...      0.037837230
Number of pairs included                   ... 6

------------------------------------------------
                  UHF COUPLED CLUSTER ITERATIONS
------------------------------------------------

Number of amplitudes to be optimized       ...        74753

Iter       E(tot)           E(Corr)          Delta-E          Residual     Time      <S|S>**1/2
  0   -288.920707912     -0.061865336     -0.000000000      0.016247011    2.03      0.000000216
                           *** Turning on DIIS ***
  1   -288.929121240     -0.070278663     -0.008413327      0.009092656    2.53      0.012329779
  2   -288.934739824     -0.075897248     -0.005618585      0.003252900    2.46      0.022323940
  3   -288.936052370     -0.077209794     -0.001312546      0.001005658    2.40      0.026875399
  4   -288.936188323     -0.077345747     -0.000135953      0.000261142    2.44      0.028459903
  5   -288.936228231     -0.077385655     -0.000039908      0.000047842    2.53      0.028731510
  6   -288.936227669     -0.077385093      0.000000562      0.000020738    2.39      0.028738628
  7   -288.936228300     -0.077385724     -0.000000631      0.000004800    2.37      0.028743666
               --- The Coupled-Cluster iterations have converged ---

----------------------
COUPLED CLUSTER ENERGY
----------------------

E(0)                                       ...   -288.858842576
E(CORR)                                    ...     -0.077385724
E(TOT)                                     ...   -288.936228300
Singles norm <S|S>**1/2                    ...      0.028743666 ( 0.025346289, 0.003397377)  
T1 diagnostic                              ...      0.014371833                              

------------------
LARGEST AMPLITUDES
------------------
   5a->  8a   5b->  6b       0.073241
   5a->  8a   5b-> 10b       0.048468
   6a-> 32a   5b->  6b       0.041707
   7a-> 31a   5b->  6b       0.041707
   5a->  8a   5b-> 18b       0.040340
   7a-> 30a   6a-> 29a       0.037638
   7a-> 29a   6a-> 30a       0.037638
   7a-> 29a   5b-> 12b       0.036627
   6a-> 30a   5b-> 12b       0.036627
   6a-> 29a   5b-> 11b       0.036627
   7a-> 30a   5b-> 11b       0.036627
   5a-> 12a   5b->  6b       0.035967
   5a-> 20a   5b->  6b       0.033975
   7a->  8a   5b-> 30b       0.029550
   6a->  8a   5b-> 31b       0.029550
   6a-> 32a   5b-> 10b       0.027174

----------------------
UHF TRIPLES CORRECTION (Algorithm 1)
----------------------

Multiplier for the singles contribution    ...      1.000000000

SPIN-CASE Alpha-Alpha-Alpha:
10% done
20% done
30% done
40% done
50% done
60% done
70% done
80% done
90% done


SPIN-CASE Beta-Beta-Beta:

SPIN-CASE Alpha-Alpha-Beta:
10% done
20% done
30% done
40% done
50% done
60% done
70% done
80% done
90% done


SPIN-CASE Beta-Beta-Alpha:

Triples Correction (T)                     ...     -0.002971216
    alpha-alpha-alpha ... -0.000079745 (  2.7%)
    alpha-alpha-beta  ... -0.002891471 ( 97.3%)
    alpha-beta -beta  ...  0.000000000 ( -0.0%)
    beta -beta -beta  ...  0.000000000 ( -0.0%)
Scaling of triples based on CCSD energies (Peterson et al. Molecular Physics 113, 1551 (2015))
E(T*) = f*E(T) where f = E(F12-CCSD)/E(CCSD) 
f = CCSD (with F12)/ CCSD (without F12)    ...      1.000000000
Scaled triples correction (T)              ...     -0.002971216

Final correlation energy                   ...     -0.080356940
E(CCSD)                                    ...   -288.936228300
E(CCSD(T))                                 ...   -288.939199516



        !!!!!!!!!!!!!!!!!!!!!!!!!!!!!!!!!!!!!!!!!!!!!!!!!!!!!!!!!!!!!!!!!!!!!!!!!! 
        !  Warning: Densities are linearized densities                           !
        !!!!!!!!!!!!!!!!!!!!!!!!!!!!!!!!!!!!!!!!!!!!!!!!!!!!!!!!!!!!!!!!!!!!!!!!!! 

NORM  =      1.072366467 sqrt=     1.035551287
W(HF) =      0.932517036
------------------------------------------------------------------------------
                           ORCA POPULATION ANALYSIS
------------------------------------------------------------------------------
Input electron density              ... 14_Si.mdcip
Input spin density                  ... 14_Si.mdcir
BaseName (.gbw .S,...)              ... 14_Si

                    ********************************
                    * MULLIKEN POPULATION ANALYSIS *
                    ********************************

------------------------------------------
MULLIKEN ATOMIC CHARGES AND SPIN DENSITIES
------------------------------------------
   0 Si:   -0.000000    2.000000
Sum of atomic charges       :   -0.0000000
Sum of atomic spin densities:    2.0000000

---------------------------------------------------
MULLIKEN REDUCED ORBITAL CHARGES AND SPIN DENSITIES
---------------------------------------------------
CHARGE
  0 Sis       :     5.914525  s :     5.914525
      pz      :     2.100731  p :     8.022695
      px      :     2.933434
      py      :     2.988530
      dz2     :     0.008782  d :     0.059155
      dxz     :     0.010165
      dyz     :     0.010459
      dx2y2   :     0.014874
      dxy     :     0.014874
      f0      :     0.000245  f :     0.003195
      f+1     :     0.000278
      f-1     :     0.000292
      f+2     :     0.000433
      f-2     :     0.000433
      f+3     :     0.000757
      f-3     :     0.000757
      g0      :     0.000025  g :     0.000361
      g+1     :     0.000027
      g-1     :     0.000028
      g+2     :     0.000034
      g-2     :     0.000034
      g+3     :     0.000045
      g-3     :     0.000045
      g+4     :     0.000062
      g-4     :     0.000062
      h0      :     0.000004  h :     0.000069
      h+1     :     0.000004
      h-1     :     0.000005
      h+2     :     0.000005
      h-2     :     0.000005
      h+3     :     0.000006
      h-3     :     0.000006
      h+4     :     0.000008
      h-4     :     0.000008
      h+5     :     0.000009
      h-5     :     0.000009

SPIN
  0 Sis       :     0.038137  s :     0.038137
      pz      :     0.052185  p :     1.924149
      px      :     0.907680
      py      :     0.964284
      dz2     :     0.002371  d :     0.036183
      dxz     :     0.004445
      dyz     :     0.004878
      dx2y2   :     0.012245
      dxy     :     0.012244
      f0      :     0.000143  f :     0.001368
      f+1     :     0.000150
      f-1     :     0.000153
      f+2     :     0.000187
      f-2     :     0.000187
      f+3     :     0.000275
      f-3     :     0.000275
      g0      :     0.000008  g :     0.000137
      g+1     :     0.000009
      g-1     :     0.000010
      g+2     :     0.000012
      g-2     :     0.000012
      g+3     :     0.000018
      g-3     :     0.000018
      g+4     :     0.000025
      g-4     :     0.000025
      h0      :     0.000001  h :     0.000026
      h+1     :     0.000001
      h-1     :     0.000002
      h+2     :     0.000002
      h-2     :     0.000002
      h+3     :     0.000002
      h-3     :     0.000002
      h+4     :     0.000003
      h-4     :     0.000003
      h+5     :     0.000004
      h-5     :     0.000004


                     *******************************
                     * LOEWDIN POPULATION ANALYSIS *
                     *******************************

-----------------------------------------
LOEWDIN ATOMIC CHARGES AND SPIN DENSITIES
-----------------------------------------
   0 Si:   -0.000000    2.000000

--------------------------------------------------
LOEWDIN REDUCED ORBITAL CHARGES AND SPIN DENSITIES
--------------------------------------------------
CHARGE
  0 Sis       :     5.914525  s :     5.914525
      pz      :     2.100731  p :     8.022695
      px      :     2.933434
      py      :     2.988530
      dz2     :     0.008782  d :     0.059155
      dxz     :     0.010165
      dyz     :     0.010459
      dx2y2   :     0.014874
      dxy     :     0.014874
      f0      :     0.000245  f :     0.003195
      f+1     :     0.000278
      f-1     :     0.000292
      f+2     :     0.000433
      f-2     :     0.000433
      f+3     :     0.000757
      f-3     :     0.000757
      g0      :     0.000025  g :     0.000361
      g+1     :     0.000027
      g-1     :     0.000028
      g+2     :     0.000034
      g-2     :     0.000034
      g+3     :     0.000045
      g-3     :     0.000045
      g+4     :     0.000062
      g-4     :     0.000062
      h0      :     0.000004  h :     0.000069
      h+1     :     0.000004
      h-1     :     0.000005
      h+2     :     0.000005
      h-2     :     0.000005
      h+3     :     0.000006
      h-3     :     0.000006
      h+4     :     0.000008
      h-4     :     0.000008
      h+5     :     0.000009
      h-5     :     0.000009

SPIN
  0 Sis       :     0.038137  s :     0.038137
      pz      :     0.052185  p :     1.924149
      px      :     0.907680
      py      :     0.964284
      dz2     :     0.002371  d :     0.036183
      dxz     :     0.004445
      dyz     :     0.004878
      dx2y2   :     0.012245
      dxy     :     0.012244
      f0      :     0.000143  f :     0.001368
      f+1     :     0.000150
      f-1     :     0.000153
      f+2     :     0.000187
      f-2     :     0.000187
      f+3     :     0.000275
      f-3     :     0.000275
      g0      :     0.000008  g :     0.000137
      g+1     :     0.000009
      g-1     :     0.000010
      g+2     :     0.000012
      g-2     :     0.000012
      g+3     :     0.000018
      g-3     :     0.000018
      g+4     :     0.000025
      g-4     :     0.000025
      h0      :     0.000001  h :     0.000026
      h+1     :     0.000001
      h-1     :     0.000002
      h+2     :     0.000002
      h-2     :     0.000002
      h+3     :     0.000002
      h-3     :     0.000002
      h+4     :     0.000003
      h-4     :     0.000003
      h+5     :     0.000004
      h-5     :     0.000004


                      *****************************
                      * MAYER POPULATION ANALYSIS *
                      *****************************

  NA   - Mulliken gross atomic population
  ZA   - Total nuclear charge
  QA   - Mulliken gross atomic charge
  VA   - Mayer's total valence
  BVA  - Mayer's bonded valence
  FA   - Mayer's free valence

  ATOM       NA         ZA         QA         VA         BVA        FA
  0 Si    14.0000    14.0000    -0.0000     2.4164     0.0000     2.4164





------------------------------------------------------------------------------- 
                                     TIMINGS                                   
------------------------------------------------------------------------------- 


Total execution time                   ...       44.939 sec

Fock Matrix Formation                  ...        1.870 sec (  4.2%)
Initial Guess                          ...        0.003 sec (  0.0%)
DIIS Solver                            ...        0.042 sec (  0.1%)
State Vector Update                    ...        0.002 sec (  0.0%)
Sigma-vector construction              ...       19.088 sec ( 42.5%)
  <D|H|D>(0-ext Fock)                  ...        0.002 sec (  0.0% of sigma)
  <D|H|D>(0-ext)                       ...        0.002 sec (  0.0% of sigma)
  <D|H|D>(2-ext Fock)                  ...        0.002 sec (  0.0% of sigma)
  <D|H|D>(2-ext)                       ...        0.015 sec (  0.1% of sigma)
  <D|H|D>(4-ext)                       ...        8.478 sec ( 44.4% of sigma)
  <S|H|0>                              ...        0.040 sec (  0.2% of sigma)
  <D|H|S>(1-ext)                       ...        0.010 sec (  0.1% of sigma)
  Fock-dressing                        ...        9.856 sec ( 51.6% of sigma)
  (ik|jl)-dressing                     ...        0.002 sec (  0.0% of sigma)
  (ij|ab),(ia|jb)-dressing             ...        0.469 sec (  2.5% of sigma)
  Pair energies                        ...        0.001 sec (  0.0% of sigma)
Total Time for computing (T)           ...        0.571 sec (  1.3% of ALL)
  I/O of integral and amplitudes       ...        0.235 sec ( 41.0% of (T))
  External N**7 contributions          ...        0.120 sec ( 20.9% of (T))
  Internal N**7 contributions          ...        0.023 sec (  4.0% of (T))
  N**6 triples energy contributions    ...        0.110 sec ( 19.2% of (T))


-------------------------   --------------------
FINAL SINGLE POINT ENERGY      -288.939199515821
-------------------------   --------------------


                            ***************************************
                            *     ORCA property calculations      *
                            ***************************************

                                    ---------------------
                                    Active property flags
                                    ---------------------
   (+) Dipole Moment


------------------------------------------------------------------------------
                       ORCA ELECTRIC PROPERTIES CALCULATION
------------------------------------------------------------------------------

Dipole Moment Calculation                       ... on
Quadrupole Moment Calculation                   ... off
Polarizability Calculation                      ... off
GBWName                                         ... 14_Si.gbw
Electron density file                           ... 14_Si.scfp
The origin for moment calculation is the CENTER OF MASS  = ( 0.000000,  0.000000  0.000000)

-------------
DIPOLE MOMENT
-------------
                                X             Y             Z
Electronic contribution:      0.00000       0.00000       0.00000
Nuclear contribution   :      0.00000       0.00000       0.00000
                        -----------------------------------------
Total Dipole Moment    :      0.00000       0.00000       0.00000
                        -----------------------------------------
Magnitude (a.u.)       :      0.00000
Magnitude (Debye)      :      0.00000



--------------------
Rotational spectrum 
--------------------
 
Rotational constants in cm-1:     0.000000     0.000000     0.000000 
Rotational constants in MHz :     0.000000     0.000000     0.000000 

 Dipole components along the rotational axes: 
x,y,z [a.u.] :     0.000000     0.000000     0.000000 
x,y,z [Debye]:     0.000000     0.000000     0.000000 

 

                           *** MDCI DENSITY ***

------------------------------------------------------------------------------
                       ORCA ELECTRIC PROPERTIES CALCULATION
------------------------------------------------------------------------------

Dipole Moment Calculation                       ... on
Quadrupole Moment Calculation                   ... off
Polarizability Calculation                      ... off
GBWName                                         ... 14_Si.gbw
Electron density file                           ... 14_Si.mdcip
The origin for moment calculation is the CENTER OF MASS  = ( 0.000000,  0.000000  0.000000)

-------------
DIPOLE MOMENT
-------------
                                X             Y             Z
Electronic contribution:      0.00000       0.00000       0.00000
Nuclear contribution   :      0.00000       0.00000       0.00000
                        -----------------------------------------
Total Dipole Moment    :      0.00000       0.00000       0.00000
                        -----------------------------------------
Magnitude (a.u.)       :      0.00000
Magnitude (Debye)      :      0.00000



--------------------
Rotational spectrum 
--------------------
 
Rotational constants in cm-1:     0.000000     0.000000     0.000000 
Rotational constants in MHz :     0.000000     0.000000     0.000000 

 Dipole components along the rotational axes: 
x,y,z [a.u.] :     0.000000     0.000000     0.000000 
x,y,z [Debye]:     0.000000     0.000000     0.000000 

 

Timings for individual modules:

Sum of individual times         ...       64.199 sec (=   1.070 min)
GTO integral calculation        ...        1.119 sec (=   0.019 min)   1.7 %
SCF iterations                  ...       16.854 sec (=   0.281 min)  26.3 %
MDCI module                     ...       46.226 sec (=   0.770 min)  72.0 %
                             ****ORCA TERMINATED NORMALLY****
TOTAL RUN TIME: 0 days 0 hours 1 minutes 5 seconds 78 msec
