
                                 *****************
                                 * O   R   C   A *
                                 *****************

           --- An Ab Initio, DFT and Semiempirical electronic structure package ---

                  #######################################################
                  #                        -***-                        #
                  #          Department of theory and spectroscopy      #
                  #               Directorship: Frank Neese             #
                  #        Max Planck Institute fuer Kohlenforschung    #
                  #                Kaiser Wilhelm Platz 1               #
                  #                 D-45470 Muelheim/Ruhr               #
                  #                      Germany                        #
                  #                                                     #
                  #                  All rights reserved                #
                  #                        -***-                        #
                  #######################################################


                         Program Version 4.2.0 -  RELEASE  -


 With contributions from (in alphabetic order):
   Daniel Aravena         : Magnetic Suceptibility
   Michael Atanasov       : Ab Initio Ligand Field Theory (pilot matlab implementation)
   Alexander A. Auer      : GIAO ZORA, VPT2
   Ute Becker             : Parallelization
   Giovanni Bistoni       : ED, misc. LED, open-shell LED, HFLED
   Martin Brehm           : Molecular dynamics
   Dmytro Bykov           : SCF Hessian
   Vijay G. Chilkuri      : MRCI spin determinant printing, contributions to CSF-ICE
   Dipayan Datta          : RHF DLPNO-CCSD density
   Achintya Kumar Dutta   : EOM-CC, STEOM-CC
   Dmitry Ganyushin       : Spin-Orbit,Spin-Spin,Magnetic field MRCI
   Miquel Garcia          : C-PCM Hessian, Gaussian charge scheme
   Yang Guo               : DLPNO-NEVPT2, CIM, IAO-localization
   Andreas Hansen         : Spin unrestricted coupled pair/coupled cluster methods
   Benjamin Helmich-Paris : CASSCF linear response (MC-RPA)
   Lee Huntington         : MR-EOM, pCC
   Robert Izsak           : Overlap fitted RIJCOSX, COSX-SCS-MP3, EOM
   Christian Kollmar      : KDIIS, OOCD, Brueckner-CCSD(T), CCSD density
   Simone Kossmann        : Meta GGA functionals, TD-DFT gradient, OOMP2, MP2 Hessian
   Martin Krupicka        : AUTO-CI
   Lucas Lang             : DCDCAS
   Dagmar Lenk            : GEPOL surface, SMD
   Dimitrios Liakos       : Extrapolation schemes; Compound Job, initial MDCI parallelization
   Dimitrios Manganas     : Further ROCIS development; embedding schemes
   Dimitrios Pantazis     : SARC Basis sets
   Taras Petrenko         : DFT Hessian,TD-DFT gradient, ASA, ECA, R-Raman, ABS, FL, XAS/XES, NRVS
   Peter Pinski           : DLPNO-MP2, DLPNO-MP2 Gradient
   Christoph Reimann      : Effective Core Potentials
   Marius Retegan         : Local ZFS, SOC
   Christoph Riplinger    : Optimizer, TS searches, QM/MM, DLPNO-CCSD(T), (RO)-DLPNO pert. Triples
   Tobias Risthaus        : Range-separated hybrids, TD-DFT gradient, RPA, STAB
   Michael Roemelt        : Original ROCIS implementation
   Masaaki Saitow         : Open-shell DLPNO-CCSD energy and density
   Barbara Sandhoefer     : DKH picture change effects
   Avijit Sen             : IP-ROCIS
   Kantharuban Sivalingam : CASSCF convergence, NEVPT2, FIC-MRCI
   Bernardo de Souza      : ESD, SOC TD-DFT
   Georgi Stoychev        : AutoAux, RI-MP2 NMR
   Willem Van den Heuvel  : Paramagnetic NMR
   Boris Wezisla          : Elementary symmetry handling
   Frank Wennmohs         : Technical directorship


 We gratefully acknowledge several colleagues who have allowed us to
 interface, adapt or use parts of their codes:
   Stefan Grimme, W. Hujo, H. Kruse,             : VdW corrections, initial TS optimization,
                  C. Bannwarth                     DFT functionals, gCP, sTDA/sTD-DF
   Ed Valeev, F. Pavosevic, A. Kumar             : LibInt (2-el integral package), F12 methods
   Garnet Chan, S. Sharma, J. Yang, R. Olivares  : DMRG
   Ulf Ekstrom                                   : XCFun DFT Library
   Mihaly Kallay                                 : mrcc  (arbitrary order and MRCC methods)
   Andreas Klamt, Michael Diedenhofen            : otool_cosmo (COSMO solvation model)
   Jiri Pittner, Ondrej Demel                    : Mk-CCSD
   Frank Weinhold                                : gennbo (NPA and NBO analysis)
   Christopher J. Cramer and Donald G. Truhlar   : smd solvation model
   Lars Goerigk                                  : TD-DFT with DH, B97 family of functionals
   V. Asgeirsson, H. Jonsson                     : NEB implementation
   FAccTs GmbH                                   : IRC, NEB, NEB-TS, Multilevel, MM, QM/MM, CI optimization
   S Lehtola, MJT Oliveira, MAL Marques          : LibXC Library


 Your calculation uses the libint2 library for the computation of 2-el integrals
 For citations please refer to: http://libint.valeyev.net

 Your ORCA version has been built with support for libXC version: 4.2.3
 For citations please refer to: https://tddft.org/programs/libxc/

 This ORCA versions uses:
   CBLAS   interface :  Fast vector & matrix operations
   LAPACKE interface :  Fast linear algebra routines
   SCALAPACK package :  Parallel linear algebra routines


----- Orbital basis set information -----
Your calculation utilizes the basis: aug-cc-pV(5+d)Z 
             Al - Ar: T.H. Dunning, Jr., K. A. Peterson and A. K. Wilson, J. Chem. Phys.
                      114, 9244 (2001)

================================================================================
                                        WARNINGS
                       Please study these warnings very carefully!
================================================================================


WARNING: MDCI localization with Augmented Hessian Foster-Boys
  ===> : Switching off randomization!

WARNING: Post HF methods need fully converged wavefunctions
  ===> : Setting SCFConvForced true
         You can overwrite this default with %scf ConvForced false 


INFO   : the flag for use of LIBINT has been found!

================================================================================
                                       INPUT FILE
================================================================================
NAME = 18_Ar.in
|  1> #
|  2> # 18_Ar CCSD(T)/aug-cc-pv5(+d)z
|  3> #
|  4> ! CCSD(T) aug-cc-pv5(+d)z tightscf
|  5> 
|  6> *xyz 0 1
|  7>  Ar 0.0 0.0 0.0
|  8> *
|  9> 
| 10> %maxcore 5000 
| 11> 
| 12> %pal
| 13> nprocs 10
| 14> end
| 15> 
| 16> 
| 17>                          ****END OF INPUT****
================================================================================

                       ****************************
                       * Single Point Calculation *
                       ****************************

---------------------------------
CARTESIAN COORDINATES (ANGSTROEM)
---------------------------------
  Ar     0.000000    0.000000    0.000000

----------------------------
CARTESIAN COORDINATES (A.U.)
----------------------------
  NO LB      ZA    FRAG     MASS         X           Y           Z
   0 Ar   18.0000    0    39.948    0.000000    0.000000    0.000000

--------------------------------
INTERNAL COORDINATES (ANGSTROEM)
--------------------------------
 Ar     0   0   0     0.000000000000     0.00000000     0.00000000

---------------------------
INTERNAL COORDINATES (A.U.)
---------------------------
 Ar     0   0   0     0.000000000000     0.00000000     0.00000000

---------------------
BASIS SET INFORMATION
---------------------
There are 1 groups of distinct atoms

 Group   1 Type Ar  : 53s21p6d4f3g2h contracted to 8s7p6d4f3g2h pattern {16161611111/8811111/111111/1111/111/11}

Atom   0Ar   basis set group =>   1


           ************************************************************
           *        Program running with 10 parallel MPI-processes    *
           *              working on a common directory               *
           ************************************************************
------------------------------------------------------------------------------
                           ORCA GTO INTEGRAL CALCULATION
------------------------------------------------------------------------------

                         BASIS SET STATISTICS AND STARTUP INFO

 # of primitive gaussian shells          ...   89
 # of primitive gaussian functions       ...  223
 # of contracted shells                  ...   30
 # of contracted basis functions         ...  136
 Highest angular momentum                ...    5
 Maximum contraction depth               ...   16
 Integral package used                   ... LIBINT
 Integral threshhold            Thresh   ...  2.500e-11
 Primitive cut-off              TCut     ...  2.500e-12


------------------------------ INTEGRAL EVALUATION ----------------------------


 * One electron integrals 
 Pre-screening matrix                    ... done
 Shell pair data                         ... done (   0.000 sec)



           ************************************************************
           *        Program running with 10 parallel MPI-processes    *
           *              working on a common directory               *
           ************************************************************
-------------------------------------------------------------------------------
                                 ORCA SCF
-------------------------------------------------------------------------------

------------
SCF SETTINGS
------------
Hamiltonian:
 Ab initio Hamiltonian  Method          .... Hartree-Fock(GTOs)


General Settings:
 Integral files         IntName         .... 18_Ar
 Hartree-Fock type      HFTyp           .... RHF
 Total Charge           Charge          ....    0
 Multiplicity           Mult            ....    1
 Number of Electrons    NEL             ....   18
 Basis Dimension        Dim             ....  136
 Nuclear Repulsion      ENuc            ....      0.0000000000 Eh

Convergence Acceleration:
 DIIS                   CNVDIIS         .... on
   Start iteration      DIISMaxIt       ....    12
   Startup error        DIISStart       ....  0.200000
   # of expansion vecs  DIISMaxEq       ....     5
   Bias factor          DIISBfac        ....   1.050
   Max. coefficient     DIISMaxC        ....  10.000
 Newton-Raphson         CNVNR           .... off
 SOSCF                  CNVSOSCF        .... on
   Start iteration      SOSCFMaxIt      ....   150
   Startup grad/error   SOSCFStart      ....  0.003300
 Level Shifting         CNVShift        .... on
   Level shift para.    LevelShift      ....    0.2500
   Turn off err/grad.   ShiftErr        ....    0.0010
 Zerner damping         CNVZerner       .... off
 Static damping         CNVDamp         .... on
   Fraction old density DampFac         ....    0.7000
   Max. Damping (<1)    DampMax         ....    0.9800
   Min. Damping (>=0)   DampMin         ....    0.0000
   Turn off err/grad.   DampErr         ....    0.1000
 Fernandez-Rico         CNVRico         .... off

SCF Procedure:
 Maximum # iterations   MaxIter         ....   125
 SCF integral mode      SCFMode         .... Direct
   Integral package                     .... LIBINT
 Reset frequency        DirectResetFreq ....    20
 Integral Threshold     Thresh          ....  2.500e-11 Eh
 Primitive CutOff       TCut            ....  2.500e-12 Eh

Convergence Tolerance:
 Convergence Check Mode ConvCheckMode   .... Total+1el-Energy
 Convergence forced     ConvForced      .... 1
 Energy Change          TolE            ....  1.000e-08 Eh
 1-El. energy change                    ....  1.000e-05 Eh
 Orbital Gradient       TolG            ....  1.000e-05
 Orbital Rotation angle TolX            ....  1.000e-05
 DIIS Error             TolErr          ....  5.000e-07


Diagonalization of the overlap matrix:
Smallest eigenvalue                        ... 1.484e-05
Time for diagonalization                   ...    0.004 sec
Threshold for overlap eigenvalues          ... 1.000e-08
Number of eigenvalues below threshold      ... 0
Time for construction of square roots      ...    0.009 sec
Total time needed                          ...    0.012 sec

-------------------
DFT GRID GENERATION
-------------------

General Integration Accuracy     IntAcc      ...  4.340
Radial Grid Type                 RadialGrid  ... Gauss-Chebyshev
Angular Grid (max. acc.)         AngularGrid ... Lebedev-110
Angular grid pruning method      GridPruning ... 3 (G Style)
Weight generation scheme         WeightScheme... Becke
Basis function cutoff            BFCut       ...    1.0000e-11
Integration weight cutoff        WCut        ...    1.0000e-14
Grids for H and He will be reduced by one unit

# of grid points (after initial pruning)     ...   1904 (   0.0 sec)
# of grid points (after weights+screening)   ...   1904 (   0.0 sec)
Grid point division into batches done        ...    0.0 sec
Reduced shell lists constructed in    0.0 sec

Total number of grid points                  ...     1904
Total number of batches                      ...       30
Average number of points per batch           ...       63
Average number of grid points per atom       ...     1904
Average number of shells per batch           ...    13.50 (45.00%)
Average number of basis functions per batch  ...    69.00 (50.74%)
Average number of large shells per batch     ...    11.25 (83.33%)
Average number of large basis fcns per batch ...    54.75 (79.35%)
Maximum spatial batch extension              ...  16.21, 29.83, 29.83 au
Average spatial batch extension              ...   1.50,  2.53,  2.98 au

Time for grid setup =    0.024 sec

------------------------------
INITIAL GUESS: MODEL POTENTIAL
------------------------------
Loading Hartree-Fock densities                     ... done
Calculating cut-offs                               ... done
Setting up the integral package                    ... done
Initializing the effective Hamiltonian             ... done
Starting the Coulomb interaction                   ... done (   0.0 sec)
Reading the grid                                   ... done
Mapping shells                                     ... done
Starting the XC term evaluation                    ... done (   0.0 sec)
Transforming the Hamiltonian                       ... done (   0.0 sec)
Diagonalizing the Hamiltonian                      ... done (   0.0 sec)
Back transforming the eigenvectors                 ... done (   0.0 sec)
Now organizing SCF variables                       ... done
                      ------------------
                      INITIAL GUESS DONE (   0.2 sec)
                      ------------------
--------------
SCF ITERATIONS
--------------
ITER       Energy         Delta-E        Max-DP      RMS-DP      [F,P]     Damp
               ***  Starting incremental Fock matrix formation  ***
  0   -526.8000526803   0.000000000000 0.45128877  0.00646640  0.1566192 0.7000
  1   -526.8049971792  -0.004944498844 0.32524619  0.00466338  0.1130915 0.7000
                               ***Turning on DIIS***
  2   -526.8085749721  -0.003577792940 0.77730510  0.01115458  0.0812561 0.0000
  3   -526.8172881714  -0.008713199266 0.04402885  0.00071861  0.0050481 0.0000
                      *** Initiating the SOSCF procedure ***
                           *** Shutting down DIIS ***
                      *** Re-Reading the Fockian *** 
                      *** Removing any level shift *** 
ITER      Energy       Delta-E        Grad      Rot      Max-DP    RMS-DP
  4   -526.81536555   0.0019226261  0.000473  0.000473  0.001255  0.000028
               *** Restarting incremental Fock matrix formation ***
  5   -526.81736632  -0.0020007702  0.000069  0.000089  0.000166  0.000004
  6   -526.81736638  -0.0000000610  0.000016  0.000029  0.000049  0.000001
                  ***Gradient check signals convergence***
              ***Rediagonalizing the Fockian in SOSCF/NRSCF***

               *****************************************************
               *                     SUCCESS                       *
               *           SCF CONVERGED AFTER   7 CYCLES          *
               *****************************************************


----------------
TOTAL SCF ENERGY
----------------

Total Energy       :         -526.81736638 Eh          -14335.42934 eV

Components:
Nuclear Repulsion  :            0.00000000 Eh               0.00000 eV
Electronic Energy  :         -526.81736638 Eh          -14335.42934 eV
One Electron Energy:         -728.23988085 Eh          -19816.41461 eV
Two Electron Energy:          201.42251447 Eh            5480.98527 eV

Virial components:
Potential Energy   :        -1053.63421753 Eh          -28670.84466 eV
Kinetic Energy     :          526.81685115 Eh           14335.41532 eV
Virial Ratio       :            2.00000098


---------------
SCF CONVERGENCE
---------------

  Last Energy change         ...   -3.6990e-09  Tolerance :   1.0000e-08
  Last MAX-Density change    ...    1.2684e-05  Tolerance :   1.0000e-07
  Last RMS-Density change    ...    2.1446e-07  Tolerance :   5.0000e-09
  Last Orbital Gradient      ...    1.9869e-06  Tolerance :   1.0000e-05
  Last Orbital Rotation      ...    4.6646e-07  Tolerance :   1.0000e-05

             **** THE GBW FILE WAS UPDATED (18_Ar.gbw) ****
             **** DENSITY FILE WAS UPDATED (18_Ar.scfp) ****
             **** ENERGY FILE WAS UPDATED (18_Ar.en.tmp) ****
             **** THE GBW FILE WAS UPDATED (18_Ar.gbw) ****
             **** DENSITY FILE WAS UPDATED (18_Ar.scfp) ****
----------------
ORBITAL ENERGIES
----------------

  NO   OCC          E(Eh)            E(eV) 
   0   2.0000    -118.610372     -3227.5523 
   1   2.0000     -12.322180      -335.3036 
   2   2.0000      -9.571463      -260.4528 
   3   2.0000      -9.571463      -260.4528 
   4   2.0000      -9.571463      -260.4528 
   5   2.0000      -1.277375       -34.7591 
   6   2.0000      -0.591030       -16.0827 
   7   2.0000      -0.591030       -16.0827 
   8   2.0000      -0.591030       -16.0827 
   9   0.0000       0.098253         2.6736 
  10   0.0000       0.098253         2.6736 
  11   0.0000       0.098253         2.6736 
  12   0.0000       0.100192         2.7264 
  13   0.0000       0.274003         7.4560 
  14   0.0000       0.274003         7.4560 
  15   0.0000       0.274003         7.4560 
  16   0.0000       0.274003         7.4560 
  17   0.0000       0.274003         7.4560 
  18   0.0000       0.453647        12.3444 
  19   0.0000       0.453647        12.3444 
  20   0.0000       0.453647        12.3444 
  21   0.0000       0.598074        16.2744 
  22   0.0000       0.680459        18.5162 
  23   0.0000       0.680459        18.5162 
  24   0.0000       0.680459        18.5162 
  25   0.0000       0.680459        18.5162 
  26   0.0000       0.680459        18.5162 
  27   0.0000       0.770657        20.9707 
  28   0.0000       0.770657        20.9707 
  29   0.0000       0.770657        20.9707 
  30   0.0000       0.770657        20.9707 
  31   0.0000       0.770657        20.9707 
  32   0.0000       0.770657        20.9707 
  33   0.0000       0.770657        20.9707 
  34   0.0000       1.584481        43.1159 
  35   0.0000       1.584481        43.1159 
  36   0.0000       1.584481        43.1159 
  37   0.0000       1.602307        43.6010 
  38   0.0000       1.602307        43.6010 
  39   0.0000       1.602307        43.6010 
  40   0.0000       1.602307        43.6010 
  41   0.0000       1.602307        43.6010 
  42   0.0000       1.602307        43.6010 
  43   0.0000       1.602307        43.6010 
  44   0.0000       1.602307        43.6010 
  45   0.0000       1.602307        43.6010 
  46   0.0000       1.638881        44.5962 
  47   0.0000       1.638881        44.5962 
  48   0.0000       1.638881        44.5962 
  49   0.0000       1.638881        44.5962 
  50   0.0000       1.638881        44.5962 
  51   0.0000       1.909041        51.9476 
  52   0.0000       1.909041        51.9476 
  53   0.0000       1.909041        51.9476 
  54   0.0000       1.909041        51.9476 
  55   0.0000       1.909041        51.9476 
  56   0.0000       1.909041        51.9476 
  57   0.0000       1.909041        51.9476 
  58   0.0000       2.282769        62.1173 
  59   0.0000       3.917690       106.6058 
  60   0.0000       3.917690       106.6058 
  61   0.0000       3.917690       106.6058 
  62   0.0000       3.917690       106.6058 
  63   0.0000       3.917690       106.6058 
  64   0.0000       3.917690       106.6058 
  65   0.0000       3.917690       106.6058 
  66   0.0000       3.917690       106.6058 
  67   0.0000       3.917690       106.6058 
  68   0.0000       4.010563       109.1330 
  69   0.0000       4.010563       109.1330 
  70   0.0000       4.010563       109.1330 
  71   0.0000       4.010563       109.1330 
  72   0.0000       4.010563       109.1330 
  73   0.0000       4.035225       109.8040 
  74   0.0000       4.035225       109.8040 
  75   0.0000       4.035225       109.8040 
  76   0.0000       4.035225       109.8040 
  77   0.0000       4.035225       109.8040 
  78   0.0000       4.035225       109.8040 
  79   0.0000       4.035225       109.8040 
  80   0.0000       4.135007       112.5193 
  81   0.0000       4.135007       112.5193 
  82   0.0000       4.135007       112.5193 
  83   0.0000       4.135007       112.5193 
  84   0.0000       4.135007       112.5193 
  85   0.0000       4.135007       112.5193 
  86   0.0000       4.135007       112.5193 
  87   0.0000       4.135007       112.5193 
  88   0.0000       4.135007       112.5193 
  89   0.0000       4.135007       112.5193 
  90   0.0000       4.135007       112.5193 
  91   0.0000       5.038955       137.1169 
  92   0.0000       5.038955       137.1169 
  93   0.0000       5.038955       137.1169 
  94   0.0000       7.848204       213.5605 
  95   0.0000       8.133879       221.3341 
  96   0.0000       8.133879       221.3341 
  97   0.0000       8.133879       221.3341 
  98   0.0000       8.133879       221.3341 
  99   0.0000       8.133879       221.3341 
 100   0.0000       8.133879       221.3341 
 101   0.0000       8.133879       221.3341 
 102   0.0000       8.724896       237.4165 
 103   0.0000       8.724896       237.4165 
 104   0.0000       8.724896       237.4165 
 105   0.0000       8.724896       237.4165 
 106   0.0000       8.724896       237.4165 
 107   0.0000       8.811961       239.7857 
 108   0.0000       8.811961       239.7857 
 109   0.0000       8.811961       239.7857 
 110   0.0000       8.811961       239.7857 
 111   0.0000       8.811961       239.7857 
 112   0.0000       8.811961       239.7857 
 113   0.0000       8.811961       239.7857 
 114   0.0000       8.811961       239.7857 
 115   0.0000       8.811961       239.7857 
 116   0.0000       9.242583       251.5035 
 117   0.0000       9.242583       251.5035 
 118   0.0000       9.242583       251.5035 
 119   0.0000       9.242583       251.5035 
 120   0.0000       9.242583       251.5035 
 121   0.0000       9.242583       251.5035 
 122   0.0000       9.242583       251.5035 
 123   0.0000       9.242583       251.5035 
 124   0.0000       9.242583       251.5035 
 125   0.0000       9.242583       251.5035 
 126   0.0000       9.242583       251.5035 
 127   0.0000      25.243489       686.9103 
 128   0.0000      25.243489       686.9103 
 129   0.0000      25.243489       686.9103 
 130   0.0000      25.243489       686.9103 
 131   0.0000      25.243489       686.9103 
 132   0.0000      55.130727      1500.1834 
 133   0.0000      55.130727      1500.1834 
 134   0.0000      55.130727      1500.1834 
 135   0.0000      91.766895      2497.1042 

                    ********************************
                    * MULLIKEN POPULATION ANALYSIS *
                    ********************************

-----------------------
MULLIKEN ATOMIC CHARGES
-----------------------
   0 Ar:    0.000000
Sum of atomic charges:    0.0000000

--------------------------------
MULLIKEN REDUCED ORBITAL CHARGES
--------------------------------
  0 Ars       :     6.000000  s :     6.000000
      pz      :     4.000000  p :    12.000000
      px      :     4.000000
      py      :     4.000000
      dz2     :     0.000000  d :     0.000000
      dxz     :     0.000000
      dyz     :     0.000000
      dx2y2   :     0.000000
      dxy     :     0.000000
      f0      :     0.000000  f :     0.000000
      f+1     :     0.000000
      f-1     :     0.000000
      f+2     :     0.000000
      f-2     :     0.000000
      f+3     :     0.000000
      f-3     :     0.000000
      g0      :     0.000000  g :     0.000000
      g+1     :     0.000000
      g-1     :     0.000000
      g+2     :     0.000000
      g-2     :     0.000000
      g+3     :     0.000000
      g-3     :     0.000000
      g+4     :     0.000000
      g-4     :     0.000000
      h0      :     0.000000  h :     0.000000
      h+1     :     0.000000
      h-1     :     0.000000
      h+2     :     0.000000
      h-2     :     0.000000
      h+3     :     0.000000
      h-3     :     0.000000
      h+4     :     0.000000
      h-4     :     0.000000
      h+5     :     0.000000
      h-5     :     0.000000


                     *******************************
                     * LOEWDIN POPULATION ANALYSIS *
                     *******************************

----------------------
LOEWDIN ATOMIC CHARGES
----------------------
   0 Ar:    0.000000

-------------------------------
LOEWDIN REDUCED ORBITAL CHARGES
-------------------------------
  0 Ars       :     6.000000  s :     6.000000
      pz      :     4.000000  p :    12.000000
      px      :     4.000000
      py      :     4.000000
      dz2     :     0.000000  d :     0.000000
      dxz     :     0.000000
      dyz     :     0.000000
      dx2y2   :     0.000000
      dxy     :     0.000000
      f0      :     0.000000  f :     0.000000
      f+1     :     0.000000
      f-1     :     0.000000
      f+2     :     0.000000
      f-2     :     0.000000
      f+3     :     0.000000
      f-3     :     0.000000
      g0      :     0.000000  g :     0.000000
      g+1     :     0.000000
      g-1     :     0.000000
      g+2     :     0.000000
      g-2     :     0.000000
      g+3     :     0.000000
      g-3     :     0.000000
      g+4     :     0.000000
      g-4     :     0.000000
      h0      :     0.000000  h :     0.000000
      h+1     :     0.000000
      h-1     :     0.000000
      h+2     :     0.000000
      h-2     :     0.000000
      h+3     :     0.000000
      h-3     :     0.000000
      h+4     :     0.000000
      h-4     :     0.000000
      h+5     :     0.000000
      h-5     :     0.000000


                      *****************************
                      * MAYER POPULATION ANALYSIS *
                      *****************************

  NA   - Mulliken gross atomic population
  ZA   - Total nuclear charge
  QA   - Mulliken gross atomic charge
  VA   - Mayer's total valence
  BVA  - Mayer's bonded valence
  FA   - Mayer's free valence

  ATOM       NA         ZA         QA         VA         BVA        FA
  0 Ar    18.0000    18.0000     0.0000     0.0000     0.0000     0.0000

  Mayer bond orders larger than 0.100000


--------------------------
ATOM BASIS FOR ELEMENT Ar
--------------------------
 NewGTO Ar
 S 53
    1    7401000.000000000000         0.000001750176
    2    1108000.000000000000         0.000013614510
    3     252100.000000000000         0.000071628699
    4      71380.000000000000         0.000303030767
    5      23260.000000000000         0.001106084548
    6       8390.000000000000         0.003606739615
    7       3271.000000000000         0.010713250339
    8       1357.000000000000         0.029106993383
    9        592.000000000000         0.071660698920
   10        269.100000000000         0.154141846681
   11        126.500000000000         0.270419222319
   12         61.030000000000         0.334857322136
   13         29.860000000000         0.224343865979
   14         14.170000000000         0.050007401411
   15          7.022000000000         0.000149723908
   16          3.511000000000         0.002103660612
   17    7401000.000000000000        -0.000000000025
   18    1108000.000000000000        -0.000000000191
   19     252100.000000000000        -0.000000001007
   20      71380.000000000000        -0.000000004261
   21      23260.000000000000        -0.000000015564
   22       8390.000000000000        -0.000000050900
   23       3271.000000000000        -0.000000152107
   24       1357.000000000000        -0.000000419543
   25        592.000000000000        -0.000001065792
   26        269.100000000000        -0.000002449903
   27        126.500000000000        -0.000004901289
   28         61.030000000000        -0.000007872296
   29         29.860000000000        -0.000007568452
   30         14.170000000000         0.000002947020
   31          7.022000000000         0.000021998387
   32          3.511000000000         0.000027481280
   33    7401000.000000000000         0.000000000005
   34    1108000.000000000000         0.000000000041
   35     252100.000000000000         0.000000000224
   36      71380.000000000000         0.000000000902
   37      23260.000000000000         0.000000003539
   38       8390.000000000000         0.000000010781
   39       3271.000000000000         0.000000036437
   40       1357.000000000000         0.000000095604
   41        592.000000000000         0.000000308741
   42        269.100000000000         0.000000782062
   43        126.500000000000         0.000002507553
   44         61.030000000000         0.000006046382
   45         29.860000000000         0.000011367885
   46         14.170000000000        -0.000009067528
   47          7.022000000000        -0.000111925420
   48          3.511000000000        -0.000430087458
   49          1.758000000000        -0.000602419642
   50          0.784100000000         0.000222214956
   51          0.348000000000        -0.000138983710
   52          0.149100000000         0.000043086907
   53          0.053800000000        -0.000010336373
 S 53
    1    7401000.000000000000         0.000000001447
    2    1108000.000000000000         0.000000011256
    3     252100.000000000000         0.000000059221
    4      71380.000000000000         0.000000250539
    5      23260.000000000000         0.000000914485
    6       8390.000000000000         0.000002981969
    7       3271.000000000000         0.000008857468
    8       1357.000000000000         0.000024064989
    9        592.000000000000         0.000059247409
   10        269.100000000000         0.000127440916
   11        126.500000000000         0.000223576362
   12         61.030000000000         0.000276852293
   13         29.860000000000         0.000185482322
   14         14.170000000000         0.000041344964
   15          7.022000000000         0.000000123788
   16          3.511000000000         0.000001739258
   17    7401000.000000000000         0.000000496079
   18    1108000.000000000000         0.000003859868
   19     252100.000000000000         0.000020306752
   20      71380.000000000000         0.000085954635
   21      23260.000000000000         0.000313980940
   22       8390.000000000000         0.001026810161
   23       3271.000000000000         0.003068486063
   24       1357.000000000000         0.008463521954
   25        592.000000000000         0.021500431484
   26        269.100000000000         0.049422346779
   27        126.500000000000         0.098874626102
   28         61.030000000000         0.158809301165
   29         29.860000000000         0.152679802641
   30         14.170000000000        -0.059450797388
   31          7.022000000000        -0.443777599618
   32          3.511000000000        -0.554385020093
   33    7401000.000000000000        -0.000000000695
   34    1108000.000000000000        -0.000000005259
   35     252100.000000000000        -0.000000028866
   36      71380.000000000000        -0.000000115949
   37      23260.000000000000        -0.000000455002
   38       8390.000000000000        -0.000001386284
   39       3271.000000000000        -0.000004685189
   40       1357.000000000000        -0.000012293023
   41        592.000000000000        -0.000039698760
   42        269.100000000000        -0.000100559492
   43        126.500000000000        -0.000322427551
   44         61.030000000000        -0.000777459365
   45         29.860000000000        -0.001461711869
   46         14.170000000000         0.001165926076
   47          7.022000000000         0.014391658190
   48          3.511000000000         0.055301750746
   49          1.758000000000        -0.160289105453
   50          0.784100000000        -0.008824226328
   51          0.348000000000        -0.001150609069
   52          0.149100000000        -0.000206686946
   53          0.053800000000        -0.000008221259
 S 53
    1    7401000.000000000000        -0.000000004119
    2    1108000.000000000000        -0.000000032040
    3     252100.000000000000        -0.000000168571
    4      71380.000000000000        -0.000000713151
    5      23260.000000000000        -0.000002603053
    6       8390.000000000000        -0.000008488080
    7       3271.000000000000        -0.000025212502
    8       1357.000000000000        -0.000068500231
    9        592.000000000000        -0.000168645876
   10        269.100000000000        -0.000362756534
   11        126.500000000000        -0.000636403040
   12         61.030000000000        -0.000788051293
   13         29.860000000000        -0.000527969562
   14         14.170000000000        -0.000117687130
   15          7.022000000000        -0.000000352359
   16          3.511000000000        -0.000004950743
   17    7401000.000000000000         0.000000157225
   18    1108000.000000000000         0.000001223327
   19     252100.000000000000         0.000006435919
   20      71380.000000000000         0.000027242028
   21      23260.000000000000         0.000099511534
   22       8390.000000000000         0.000325432028
   23       3271.000000000000         0.000972510480
   24       1357.000000000000         0.002682385914
   25        592.000000000000         0.006814238196
   26        269.100000000000         0.015663669047
   27        126.500000000000         0.031336824763
   28         61.030000000000         0.050332218058
   29         29.860000000000         0.048389565745
   30         14.170000000000        -0.018842035548
   31          7.022000000000        -0.140648631720
   32          3.511000000000        -0.175703989091
   33    7401000.000000000000         0.000000002194
   34    1108000.000000000000         0.000000016598
   35     252100.000000000000         0.000000091100
   36      71380.000000000000         0.000000365925
   37      23260.000000000000         0.000001435943
   38       8390.000000000000         0.000004374985
   39       3271.000000000000         0.000014786023
   40       1357.000000000000         0.000038795638
   41        592.000000000000         0.000125285602
   42        269.100000000000         0.000317356422
   43        126.500000000000         0.001017551423
   44         61.030000000000         0.002453589589
   45         29.860000000000         0.004613026972
   46         14.170000000000        -0.003679554468
   47          7.022000000000        -0.045418737329
   48          3.511000000000        -0.174527191924
   49          1.758000000000        -0.127333106413
   50          0.784100000000         0.452524794761
   51          0.348000000000         0.611314518140
   52          0.149100000000         0.186486253397
   53          0.053800000000         0.000927564434
 S 53
    1    7401000.000000000000        -0.000000015077
    2    1108000.000000000000        -0.000000117281
    3     252100.000000000000        -0.000000617040
    4      71380.000000000000        -0.000002610436
    5      23260.000000000000        -0.000009528282
    6       8390.000000000000        -0.000031069985
    7       3271.000000000000        -0.000092288484
    8       1357.000000000000        -0.000250739990
    9        592.000000000000        -0.000617315663
   10        269.100000000000        -0.001327843263
   11        126.500000000000        -0.002329505908
   12         61.030000000000        -0.002884603038
   13         29.860000000000        -0.001932593241
   14         14.170000000000        -0.000430784972
   15          7.022000000000        -0.000001289785
   16          3.511000000000        -0.000018121825
   17    7401000.000000000000         0.000000043621
   18    1108000.000000000000         0.000000339408
   19     252100.000000000000         0.000001785622
   20      71380.000000000000         0.000007558201
   21      23260.000000000000         0.000027609109
   22       8390.000000000000         0.000090289920
   23       3271.000000000000         0.000269819459
   24       1357.000000000000         0.000744218115
   25        592.000000000000         0.001890585348
   26        269.100000000000         0.004345827420
   27        126.500000000000         0.008694286882
   28         61.030000000000         0.013964488952
   29         29.860000000000         0.013425507206
   30         14.170000000000        -0.005227653527
   31          7.022000000000        -0.039022446050
   32          3.511000000000        -0.048748426140
   33    7401000.000000000000         0.000000000032
   34    1108000.000000000000         0.000000000243
   35     252100.000000000000         0.000000001336
   36      71380.000000000000         0.000000005367
   37      23260.000000000000         0.000000021062
   38       8390.000000000000         0.000000064172
   39       3271.000000000000         0.000000216880
   40       1357.000000000000         0.000000569050
   41        592.000000000000         0.000001837675
   42        269.100000000000         0.000004654947
   43        126.500000000000         0.000014925326
   44         61.030000000000         0.000035988968
   45         29.860000000000         0.000067663345
   46         14.170000000000        -0.000053971279
   47          7.022000000000        -0.000666196778
   48          3.511000000000        -0.002559944635
   49          1.758000000000        -0.147039577408
   50          0.784100000000         0.440429452332
   51          0.348000000000        -0.533636016835
   52          0.149100000000         1.497223519321
   53          0.053800000000        -1.822151762967
 S 53
    1    7401000.000000000000         0.000000056725
    2    1108000.000000000000         0.000000441264
    3     252100.000000000000         0.000002321580
    4      71380.000000000000         0.000009821625
    5      23260.000000000000         0.000035849651
    6       8390.000000000000         0.000116899163
    7       3271.000000000000         0.000347230498
    8       1357.000000000000         0.000943395841
    9        592.000000000000         0.002322617264
   10        269.100000000000         0.004995939470
   11        126.500000000000         0.008764641758
   12         61.030000000000         0.010853165110
   13         29.860000000000         0.007271279013
   14         14.170000000000         0.001620805484
   15          7.022000000000         0.000004852748
   16          3.511000000000         0.000068182400
   17    7401000.000000000000         0.000000037293
   18    1108000.000000000000         0.000000290167
   19     252100.000000000000         0.000001526568
   20      71380.000000000000         0.000006461673
   21      23260.000000000000         0.000023603638
   22       8390.000000000000         0.000077190848
   23       3271.000000000000         0.000230674617
   24       1357.000000000000         0.000636248510
   25        592.000000000000         0.001616303186
   26        269.100000000000         0.003715343881
   27        126.500000000000         0.007432937952
   28         61.030000000000         0.011938550145
   29         29.860000000000         0.011477762742
   30         14.170000000000        -0.004469236503
   31          7.022000000000        -0.033361151315
   32          3.511000000000        -0.041676106585
   33    7401000.000000000000         0.000000003471
   34    1108000.000000000000         0.000000026261
   35     252100.000000000000         0.000000144136
   36      71380.000000000000         0.000000578959
   37      23260.000000000000         0.000002271916
   38       8390.000000000000         0.000006922001
   39       3271.000000000000         0.000023394109
   40       1357.000000000000         0.000061381576
   41        592.000000000000         0.000198224025
   42        269.100000000000         0.000502114102
   43        126.500000000000         0.001609946686
   44         61.030000000000         0.003882013565
   45         29.860000000000         0.007298626212
   46         14.170000000000        -0.005821707276
   47          7.022000000000        -0.071860491769
   48          3.511000000000        -0.276132948125
   49          1.758000000000         0.434840230378
   50          0.784100000000        -1.112111795286
   51          0.348000000000         3.927266776104
   52          0.149100000000        -4.584124414748
   53          0.053800000000         1.681041378083
 S 53
    1    7401000.000000000000        -0.000000193693
    2    1108000.000000000000        -0.000001506724
    3     252100.000000000000        -0.000007927183
    4      71380.000000000000        -0.000033536560
    5      23260.000000000000        -0.000122410908
    6       8390.000000000000        -0.000399159604
    7       3271.000000000000        -0.001185640555
    8       1357.000000000000        -0.003221284923
    9        592.000000000000        -0.007930723933
   10        269.100000000000        -0.017058952131
   11        126.500000000000        -0.029927425083
   12         61.030000000000        -0.037058820508
   13         29.860000000000        -0.024828243290
   14         14.170000000000        -0.005534343108
   15          7.022000000000        -0.000016570017
   16          3.511000000000        -0.000232813129
   17    7401000.000000000000         0.000000294011
   18    1108000.000000000000         0.000002287623
   19     252100.000000000000         0.000012035178
   20      71380.000000000000         0.000050942630
   21      23260.000000000000         0.000186086707
   22       8390.000000000000         0.000608558344
   23       3271.000000000000         0.001818595948
   24       1357.000000000000         0.005016065385
   25        592.000000000000         0.012742634890
   26        269.100000000000         0.029291082872
   27        126.500000000000         0.058599905829
   28         61.030000000000         0.094121317672
   29         29.860000000000         0.090488555148
   30         14.170000000000        -0.035234632643
   31          7.022000000000        -0.263013136655
   32          3.511000000000        -0.328566703626
   33    7401000.000000000000        -0.000000003825
   34    1108000.000000000000        -0.000000028940
   35     252100.000000000000        -0.000000158836
   36      71380.000000000000        -0.000000638006
   37      23260.000000000000        -0.000002503625
   38       8390.000000000000        -0.000007627965
   39       3271.000000000000        -0.000025780037
   40       1357.000000000000        -0.000067641787
   41        592.000000000000        -0.000218440585
   42        269.100000000000        -0.000553323938
   43        126.500000000000        -0.001774142642
   44         61.030000000000        -0.004277934086
   45         29.860000000000        -0.008043001737
   46         14.170000000000         0.006415454138
   47          7.022000000000         0.079189431456
   48          3.511000000000         0.304295317634
   49          1.758000000000        -2.099850845214
   50          0.784100000000         6.623505740918
   51          0.348000000000        -7.481714602787
   52          0.149100000000         3.949522035364
   53          0.053800000000        -0.946423238108
 S 53
    1    7401000.000000000000         0.000000697640
    2    1108000.000000000000         0.000005426903
    3     252100.000000000000         0.000028552040
    4      71380.000000000000         0.000120791617
    5      23260.000000000000         0.000440898272
    6       8390.000000000000         0.001437688708
    7       3271.000000000000         0.004270427222
    8       1357.000000000000         0.011602388907
    9        592.000000000000         0.028564794971
   10        269.100000000000         0.061442747745
   11        126.500000000000         0.107792273286
   12         61.030000000000         0.133478055554
   13         29.860000000000         0.089426095912
   14         14.170000000000         0.019933536651
   15          7.022000000000         0.000059681706
   16          3.511000000000         0.000838543790
   17    7401000.000000000000        -0.000000225443
   18    1108000.000000000000        -0.000001754113
   19     252100.000000000000        -0.000009228380
   20      71380.000000000000        -0.000039061984
   21      23260.000000000000        -0.000142688276
   22       8390.000000000000        -0.000466632691
   23       3271.000000000000        -0.001394469946
   24       1357.000000000000        -0.003846237772
   25        592.000000000000        -0.009770846244
   26        269.100000000000        -0.022459928385
   27        126.500000000000        -0.044933459580
   28         61.030000000000        -0.072170703406
   29         29.860000000000        -0.069385159885
   30         14.170000000000         0.027017346176
   31          7.022000000000         0.201674217351
   32          3.511000000000         0.251939631777
   33    7401000.000000000000         0.000000041894
   34    1108000.000000000000         0.000000316939
   35     252100.000000000000         0.000001739524
   36      71380.000000000000         0.000006987240
   37      23260.000000000000         0.000027418905
   38       8390.000000000000         0.000083539044
   39       3271.000000000000         0.000282334757
   40       1357.000000000000         0.000740791306
   41        592.000000000000         0.002392291710
   42        269.100000000000         0.006059827524
   43        126.500000000000         0.019429845107
   44         61.030000000000         0.046850571483
   45         29.860000000000         0.088084393142
   46         14.170000000000        -0.070260010252
   47          7.022000000000        -0.867257429625
   48          3.511000000000        -3.332545393580
   49          1.758000000000         8.364005993339
   50          0.784100000000        -8.585669195960
   51          0.348000000000         5.411286744503
   52          0.149100000000        -2.201346467628
   53          0.053800000000         0.492468941802
 S 53
    1    7401000.000000000000        -0.000016368476
    2    1108000.000000000000        -0.000127329382
    3     252100.000000000000        -0.000669905721
    4      71380.000000000000        -0.002834088099
    5      23260.000000000000        -0.010344629651
    6       8390.000000000000        -0.033731947182
    7       3271.000000000000        -0.100195421119
    8       1357.000000000000        -0.272222469120
    9        592.000000000000        -0.670204996508
   10        269.100000000000        -1.441607985601
   11        126.500000000000        -2.529089398810
   12         61.030000000000        -3.131745207561
   13         29.860000000000        -2.098170715341
   14         14.170000000000        -0.467693042251
   15          7.022000000000        -0.001400289322
   16          3.511000000000        -0.019674436262
   17    7401000.000000000000         0.000012859273
   18    1108000.000000000000         0.000100054731
   19     252100.000000000000         0.000526387567
   20      71380.000000000000         0.002228098842
   21      23260.000000000000         0.008138951121
   22       8390.000000000000         0.026616767567
   23       3271.000000000000         0.079540681851
   24       1357.000000000000         0.219389722882
   25        592.000000000000         0.557329883566
   26        269.100000000000         1.281116185792
   27        126.500000000000         2.563008276985
   28         61.030000000000         4.116622933460
   29         29.860000000000         3.957735299004
   30         14.170000000000        -1.541071676187
   31          7.022000000000       -11.503514155318
   32          3.511000000000       -14.370657580807
   33    7401000.000000000000        -0.000000329820
   34    1108000.000000000000        -0.000002495161
   35     252100.000000000000        -0.000013694704
   36      71380.000000000000        -0.000055008256
   37      23260.000000000000        -0.000215860082
   38       8390.000000000000        -0.000657675608
   39       3271.000000000000        -0.002222729315
   40       1357.000000000000        -0.005832007967
   41        592.000000000000        -0.018833731183
   42        269.100000000000        -0.047707042635
   43        126.500000000000        -0.152964823717
   44         61.030000000000        -0.368839245413
   45         29.860000000000        -0.693459654189
   46         14.170000000000         0.553134110085
   47          7.022000000000         6.827634451323
   48          3.511000000000        26.236041298204
   49          1.758000000000       -12.066825772569
   50          0.784100000000         7.951066122958
   51          0.348000000000        -4.373736610366
   52          0.149100000000         1.761816948298
   53          0.053800000000        -0.403910711986
 P 21
    1       2927.000000000000         0.000173445783
    2        693.500000000000         0.001512974586
    3        224.700000000000         0.008241322348
    4         85.170000000000         0.032703174795
    5         35.530000000000         0.096832841566
    6         15.730000000000         0.204033493249
    7          7.165000000000         0.284025320104
    8          3.322000000000         0.213842299924
    9       2927.000000000000         0.000058545241
   10        693.500000000000         0.000510309862
   11        224.700000000000         0.002792661055
   12         85.170000000000         0.011136446350
   13         35.530000000000         0.033525839431
   14         15.730000000000         0.071714968088
   15          7.165000000000         0.103616350227
   16          3.322000000000         0.073564397008
   17          1.478000000000         0.065786292369
   18          0.655200000000         0.000070600711
   19          0.275100000000         0.001269712132
   20          0.109700000000        -0.000414477586
   21          0.040200000000         0.000118424741
 P 21
    1       2927.000000000000        -0.000073460043
    2        693.500000000000        -0.000640794934
    3        224.700000000000        -0.003490473441
    4         85.170000000000        -0.013850879536
    5         35.530000000000        -0.041011921079
    6         15.730000000000        -0.086414953721
    7          7.165000000000        -0.120294146326
    8          3.322000000000        -0.090569308780
    9       2927.000000000000         0.000138371064
   10        693.500000000000         0.001206112013
   11        224.700000000000         0.006600425147
   12         85.170000000000         0.026320874278
   13         35.530000000000         0.079237970264
   14         15.730000000000         0.169497575755
   15          7.165000000000         0.244896158226
   16          3.322000000000         0.173868681632
   17          1.478000000000        -0.164136485900
   18          0.655200000000        -0.430899823869
   19          0.275100000000        -0.430244974636
   20          0.109700000000        -0.151929794477
   21          0.040200000000        -0.001975539988
 P 21
    1       2927.000000000000        -0.000006748259
    2        693.500000000000        -0.000058865336
    3        224.700000000000        -0.000320645311
    4         85.170000000000        -0.001272383144
    5         35.530000000000        -0.003767477505
    6         15.730000000000        -0.007938335628
    7          7.165000000000        -0.011050579402
    8          3.322000000000        -0.008319967086
    9       2927.000000000000         0.000017132712
   10        693.500000000000         0.000149337359
   11        224.700000000000         0.000817245870
   12         85.170000000000         0.003258975798
   13         35.530000000000         0.009811020129
   14         15.730000000000         0.020986707788
   15          7.165000000000         0.030322345840
   16          3.322000000000         0.021527925686
   17          1.478000000000        -0.005515712297
   18          0.655200000000        -0.163290345078
   19          0.275100000000         0.151729941836
   20          0.109700000000        -0.672008110764
   21          0.040200000000         1.372963647385
 P 21
    1       2927.000000000000        -0.000064086756
    2        693.500000000000        -0.000559031364
    3        224.700000000000        -0.003045099181
    4         85.170000000000        -0.012083547587
    5         35.530000000000        -0.035778919215
    6         15.730000000000        -0.075388656928
    7          7.165000000000        -0.104944963080
    8          3.322000000000        -0.079012928362
    9       2927.000000000000         0.000096317428
   10        693.500000000000         0.000839551299
   11        224.700000000000         0.004594428581
   12         85.170000000000         0.018321452690
   13         35.530000000000         0.055156022103
   14         15.730000000000         0.117983991811
   15          7.165000000000         0.170467490157
   16          3.322000000000         0.121026634266
   17          1.478000000000        -0.191886973825
   18          0.655200000000         0.142415785801
   19          0.275100000000        -1.397264065267
   20          0.109700000000         2.423395527082
   21          0.040200000000        -1.050377415701
 P 21
    1       2927.000000000000        -0.000000808162
    2        693.500000000000        -0.000007049628
    3        224.700000000000        -0.000038400021
    4         85.170000000000        -0.000152378773
    5         35.530000000000        -0.000451187679
    6         15.730000000000        -0.000950683640
    7          7.165000000000        -0.001323401472
    8          3.322000000000        -0.000996387274
    9       2927.000000000000         0.000061440432
   10        693.500000000000         0.000535545810
   11        224.700000000000         0.002930764299
   12         85.170000000000         0.011687168165
   13         35.530000000000         0.035183766076
   14         15.730000000000         0.075261431306
   15          7.165000000000         0.108740407096
   16          3.322000000000         0.077202318561
   17          1.478000000000         0.151627666079
   18          0.655200000000        -2.254633312732
   19          0.275100000000         3.242571103323
   20          0.109700000000        -1.877257524919
   21          0.040200000000         0.552209262780
 P 21
    1       2927.000000000000        -0.000690018108
    2        693.500000000000        -0.006019055895
    3        224.700000000000        -0.032786393328
    4         85.170000000000        -0.130102804706
    5         35.530000000000        -0.385229396060
    6         15.730000000000        -0.811704976422
    7          7.165000000000        -1.129935884976
    8          3.322000000000        -0.850727281361
    9       2927.000000000000         0.000826454816
   10        693.500000000000         0.007203797168
   11        224.700000000000         0.039422643548
   12         85.170000000000         0.157207819424
   13         35.530000000000         0.473268037717
   14         15.730000000000         1.012365470852
   15          7.165000000000         1.462701831742
   16          3.322000000000         1.038472963184
   17          1.478000000000        -2.767157038608
   18          0.655200000000         3.607625959051
   19          0.275100000000        -2.300641619431
   20          0.109700000000         0.991227507783
   21          0.040200000000        -0.276474051325
 P 21
    1       2927.000000000000         0.044757984724
    2        693.500000000000         0.390425713044
    3        224.700000000000         2.126687509880
    4         85.170000000000         8.439110914052
    5         35.530000000000        24.987882529119
    6         15.730000000000        52.651196421118
    7          7.165000000000        73.293225927231
    8          3.322000000000        55.182375977526
    9       2927.000000000000        -0.042603178149
   10        693.500000000000        -0.371350796479
   11        224.700000000000        -2.032210199715
   12         85.170000000000        -8.103955122089
   13         35.530000000000       -24.396642307081
   14         15.730000000000       -52.186744736824
   15          7.165000000000       -75.401274852802
   16          3.322000000000       -53.532568036114
   17          1.478000000000        -0.590639963778
   18          0.655200000000         0.107945665698
   19          0.275100000000         0.008679841163
   20          0.109700000000        -0.014526658630
   21          0.040200000000         0.005311124320
 D 6
    1         10.518000000000         0.004947999099
    2          2.516000000000         0.051305937024
    3          1.332000000000        -0.057686743830
    4          0.673000000000         0.214071033926
    5          0.270000000000        -0.193646906121
    6          0.097800000000         1.069665602858
 D 6
    1         10.518000000000         0.027352910667
    2          2.516000000000         0.053734665501
    3          1.332000000000         0.244449852398
    4          0.673000000000        -0.077104372392
    5          0.270000000000         1.206428795193
    6          0.097800000000        -0.804964114468
 D 6
    1         10.518000000000         0.039522957342
    2          2.516000000000         0.376423707174
    3          1.332000000000        -0.401469996888
    4          0.673000000000         1.623714835500
    5          0.270000000000        -1.665824605292
    6          0.097800000000         0.588954853465
 D 6
    1         10.518000000000         0.119495941009
    2          2.516000000000        -0.002285141607
    3          1.332000000000         2.002874653116
    4          0.673000000000        -2.621881408302
    5          0.270000000000         1.234377578138
    6          0.097800000000        -0.349754346219
 D 6
    1         10.518000000000         0.141347928026
    2          2.516000000000         2.365894313894
    3          1.332000000000        -3.923940623214
    4          0.673000000000         2.467201420756
    5          0.270000000000        -0.825843833094
    6          0.097800000000         0.219324103915
 D 6
    1         10.518000000000         1.217753549512
    2          2.516000000000        -1.977857256198
    3          1.332000000000         2.189793379695
    4          0.673000000000        -1.154520438946
    5          0.270000000000         0.375298438918
    6          0.097800000000        -0.102637579244
 F 4
    1          0.408000000000         0.698152208477
    2          0.825000000000        -0.278595770155
    3          1.668000000000         0.061836348265
    4          0.209000000000        -1.410457592173
 F 4
    1          0.408000000000         2.044506087520
    2          0.825000000000        -0.544874651230
    3          1.668000000000         0.189970141572
    4          0.209000000000        -1.148940122339
 F 4
    1          0.408000000000        -2.050854311139
    2          0.825000000000         2.060629140301
    3          1.668000000000        -0.195455837932
    4          0.209000000000         0.796410767157
 F 4
    1          0.408000000000         1.499653241313
    2          0.825000000000        -2.417726788136
    3          1.668000000000         1.930179934605
    4          0.209000000000        -0.511226356469
 G 3
    1          0.665000000000        -0.419543845744
    2          1.562000000000         0.088355343208
    3          0.334000000000         1.255952067768
 G 3
    1          0.665000000000        -1.570360635948
    2          1.562000000000         0.176832517899
    3          0.334000000000         0.864145548461
 G 3
    1          0.665000000000        -1.113827106773
    2          1.562000000000         1.375661578974
    3          0.334000000000         0.468730873240
 H 2
    1          1.264000000000         0.446469791577
    2          0.742000000000        -1.318317281474
 H 2
    1          1.264000000000         1.591441794444
    2          0.742000000000        -0.997026481726
 end
  // -----------------------------------------------
  // The basis set
  // -----------------------------------------------
  BAS[ATNO] = new BFNGauss[NSH];
  // Basis function   1 L = s
  InitBFNGauss(BAS[ATNO][  0]);
  BAS[ATNO][  0].l  = 0;
  BAS[ATNO][  0].ng = 53;
  BAS[ATNO][  0].a[  0] =   7401000.000000000000;     BAS[ATNO][  0].d[  0] =         0.000001750176;
  BAS[ATNO][  0].a[  1] =   1108000.000000000000;     BAS[ATNO][  0].d[  1] =         0.000013614510;
  BAS[ATNO][  0].a[  2] =    252100.000000000000;     BAS[ATNO][  0].d[  2] =         0.000071628699;
  BAS[ATNO][  0].a[  3] =     71380.000000000000;     BAS[ATNO][  0].d[  3] =         0.000303030767;
  BAS[ATNO][  0].a[  4] =     23260.000000000000;     BAS[ATNO][  0].d[  4] =         0.001106084548;
  BAS[ATNO][  0].a[  5] =      8390.000000000000;     BAS[ATNO][  0].d[  5] =         0.003606739615;
  BAS[ATNO][  0].a[  6] =      3271.000000000000;     BAS[ATNO][  0].d[  6] =         0.010713250339;
  BAS[ATNO][  0].a[  7] =      1357.000000000000;     BAS[ATNO][  0].d[  7] =         0.029106993383;
  BAS[ATNO][  0].a[  8] =       592.000000000000;     BAS[ATNO][  0].d[  8] =         0.071660698920;
  BAS[ATNO][  0].a[  9] =       269.100000000000;     BAS[ATNO][  0].d[  9] =         0.154141846681;
  BAS[ATNO][  0].a[ 10] =       126.500000000000;     BAS[ATNO][  0].d[ 10] =         0.270419222319;
  BAS[ATNO][  0].a[ 11] =        61.030000000000;     BAS[ATNO][  0].d[ 11] =         0.334857322136;
  BAS[ATNO][  0].a[ 12] =        29.860000000000;     BAS[ATNO][  0].d[ 12] =         0.224343865979;
  BAS[ATNO][  0].a[ 13] =        14.170000000000;     BAS[ATNO][  0].d[ 13] =         0.050007401411;
  BAS[ATNO][  0].a[ 14] =         7.022000000000;     BAS[ATNO][  0].d[ 14] =         0.000149723908;
  BAS[ATNO][  0].a[ 15] =         3.511000000000;     BAS[ATNO][  0].d[ 15] =         0.002103660612;
  BAS[ATNO][  0].a[ 16] =   7401000.000000000000;     BAS[ATNO][  0].d[ 16] =        -0.000000000025;
  BAS[ATNO][  0].a[ 17] =   1108000.000000000000;     BAS[ATNO][  0].d[ 17] =        -0.000000000191;
  BAS[ATNO][  0].a[ 18] =    252100.000000000000;     BAS[ATNO][  0].d[ 18] =        -0.000000001007;
  BAS[ATNO][  0].a[ 19] =     71380.000000000000;     BAS[ATNO][  0].d[ 19] =        -0.000000004261;
  BAS[ATNO][  0].a[ 20] =     23260.000000000000;     BAS[ATNO][  0].d[ 20] =        -0.000000015564;
  BAS[ATNO][  0].a[ 21] =      8390.000000000000;     BAS[ATNO][  0].d[ 21] =        -0.000000050900;
  BAS[ATNO][  0].a[ 22] =      3271.000000000000;     BAS[ATNO][  0].d[ 22] =        -0.000000152107;
  BAS[ATNO][  0].a[ 23] =      1357.000000000000;     BAS[ATNO][  0].d[ 23] =        -0.000000419543;
  BAS[ATNO][  0].a[ 24] =       592.000000000000;     BAS[ATNO][  0].d[ 24] =        -0.000001065792;
  BAS[ATNO][  0].a[ 25] =       269.100000000000;     BAS[ATNO][  0].d[ 25] =        -0.000002449903;
  BAS[ATNO][  0].a[ 26] =       126.500000000000;     BAS[ATNO][  0].d[ 26] =        -0.000004901289;
  BAS[ATNO][  0].a[ 27] =        61.030000000000;     BAS[ATNO][  0].d[ 27] =        -0.000007872296;
  BAS[ATNO][  0].a[ 28] =        29.860000000000;     BAS[ATNO][  0].d[ 28] =        -0.000007568452;
  BAS[ATNO][  0].a[ 29] =        14.170000000000;     BAS[ATNO][  0].d[ 29] =         0.000002947020;
  BAS[ATNO][  0].a[ 30] =         7.022000000000;     BAS[ATNO][  0].d[ 30] =         0.000021998387;
  BAS[ATNO][  0].a[ 31] =         3.511000000000;     BAS[ATNO][  0].d[ 31] =         0.000027481280;
  BAS[ATNO][  0].a[ 32] =   7401000.000000000000;     BAS[ATNO][  0].d[ 32] =         0.000000000005;
  BAS[ATNO][  0].a[ 33] =   1108000.000000000000;     BAS[ATNO][  0].d[ 33] =         0.000000000041;
  BAS[ATNO][  0].a[ 34] =    252100.000000000000;     BAS[ATNO][  0].d[ 34] =         0.000000000224;
  BAS[ATNO][  0].a[ 35] =     71380.000000000000;     BAS[ATNO][  0].d[ 35] =         0.000000000902;
  BAS[ATNO][  0].a[ 36] =     23260.000000000000;     BAS[ATNO][  0].d[ 36] =         0.000000003539;
  BAS[ATNO][  0].a[ 37] =      8390.000000000000;     BAS[ATNO][  0].d[ 37] =         0.000000010781;
  BAS[ATNO][  0].a[ 38] =      3271.000000000000;     BAS[ATNO][  0].d[ 38] =         0.000000036437;
  BAS[ATNO][  0].a[ 39] =      1357.000000000000;     BAS[ATNO][  0].d[ 39] =         0.000000095604;
  BAS[ATNO][  0].a[ 40] =       592.000000000000;     BAS[ATNO][  0].d[ 40] =         0.000000308741;
  BAS[ATNO][  0].a[ 41] =       269.100000000000;     BAS[ATNO][  0].d[ 41] =         0.000000782062;
  BAS[ATNO][  0].a[ 42] =       126.500000000000;     BAS[ATNO][  0].d[ 42] =         0.000002507553;
  BAS[ATNO][  0].a[ 43] =        61.030000000000;     BAS[ATNO][  0].d[ 43] =         0.000006046382;
  BAS[ATNO][  0].a[ 44] =        29.860000000000;     BAS[ATNO][  0].d[ 44] =         0.000011367885;
  BAS[ATNO][  0].a[ 45] =        14.170000000000;     BAS[ATNO][  0].d[ 45] =        -0.000009067528;
  BAS[ATNO][  0].a[ 46] =         7.022000000000;     BAS[ATNO][  0].d[ 46] =        -0.000111925420;
  BAS[ATNO][  0].a[ 47] =         3.511000000000;     BAS[ATNO][  0].d[ 47] =        -0.000430087458;
  BAS[ATNO][  0].a[ 48] =         1.758000000000;     BAS[ATNO][  0].d[ 48] =        -0.000602419642;
  BAS[ATNO][  0].a[ 49] =         0.784100000000;     BAS[ATNO][  0].d[ 49] =         0.000222214956;
  BAS[ATNO][  0].a[ 50] =         0.348000000000;     BAS[ATNO][  0].d[ 50] =        -0.000138983710;
  BAS[ATNO][  0].a[ 51] =         0.149100000000;     BAS[ATNO][  0].d[ 51] =         0.000043086907;
  BAS[ATNO][  0].a[ 52] =         0.053800000000;     BAS[ATNO][  0].d[ 52] =        -0.000010336373;

  // Basis function   2 L = s
  InitBFNGauss(BAS[ATNO][  1]);
  BAS[ATNO][  1].l  = 0;
  BAS[ATNO][  1].ng = 53;
  BAS[ATNO][  1].a[  0] =   7401000.000000000000;     BAS[ATNO][  1].d[  0] =        -0.000000001447;
  BAS[ATNO][  1].a[  1] =   1108000.000000000000;     BAS[ATNO][  1].d[  1] =        -0.000000011256;
  BAS[ATNO][  1].a[  2] =    252100.000000000000;     BAS[ATNO][  1].d[  2] =        -0.000000059221;
  BAS[ATNO][  1].a[  3] =     71380.000000000000;     BAS[ATNO][  1].d[  3] =        -0.000000250539;
  BAS[ATNO][  1].a[  4] =     23260.000000000000;     BAS[ATNO][  1].d[  4] =        -0.000000914485;
  BAS[ATNO][  1].a[  5] =      8390.000000000000;     BAS[ATNO][  1].d[  5] =        -0.000002981969;
  BAS[ATNO][  1].a[  6] =      3271.000000000000;     BAS[ATNO][  1].d[  6] =        -0.000008857468;
  BAS[ATNO][  1].a[  7] =      1357.000000000000;     BAS[ATNO][  1].d[  7] =        -0.000024064989;
  BAS[ATNO][  1].a[  8] =       592.000000000000;     BAS[ATNO][  1].d[  8] =        -0.000059247409;
  BAS[ATNO][  1].a[  9] =       269.100000000000;     BAS[ATNO][  1].d[  9] =        -0.000127440916;
  BAS[ATNO][  1].a[ 10] =       126.500000000000;     BAS[ATNO][  1].d[ 10] =        -0.000223576362;
  BAS[ATNO][  1].a[ 11] =        61.030000000000;     BAS[ATNO][  1].d[ 11] =        -0.000276852293;
  BAS[ATNO][  1].a[ 12] =        29.860000000000;     BAS[ATNO][  1].d[ 12] =        -0.000185482322;
  BAS[ATNO][  1].a[ 13] =        14.170000000000;     BAS[ATNO][  1].d[ 13] =        -0.000041344964;
  BAS[ATNO][  1].a[ 14] =         7.022000000000;     BAS[ATNO][  1].d[ 14] =        -0.000000123788;
  BAS[ATNO][  1].a[ 15] =         3.511000000000;     BAS[ATNO][  1].d[ 15] =        -0.000001739258;
  BAS[ATNO][  1].a[ 16] =   7401000.000000000000;     BAS[ATNO][  1].d[ 16] =        -0.000000496079;
  BAS[ATNO][  1].a[ 17] =   1108000.000000000000;     BAS[ATNO][  1].d[ 17] =        -0.000003859868;
  BAS[ATNO][  1].a[ 18] =    252100.000000000000;     BAS[ATNO][  1].d[ 18] =        -0.000020306752;
  BAS[ATNO][  1].a[ 19] =     71380.000000000000;     BAS[ATNO][  1].d[ 19] =        -0.000085954635;
  BAS[ATNO][  1].a[ 20] =     23260.000000000000;     BAS[ATNO][  1].d[ 20] =        -0.000313980940;
  BAS[ATNO][  1].a[ 21] =      8390.000000000000;     BAS[ATNO][  1].d[ 21] =        -0.001026810161;
  BAS[ATNO][  1].a[ 22] =      3271.000000000000;     BAS[ATNO][  1].d[ 22] =        -0.003068486063;
  BAS[ATNO][  1].a[ 23] =      1357.000000000000;     BAS[ATNO][  1].d[ 23] =        -0.008463521954;
  BAS[ATNO][  1].a[ 24] =       592.000000000000;     BAS[ATNO][  1].d[ 24] =        -0.021500431484;
  BAS[ATNO][  1].a[ 25] =       269.100000000000;     BAS[ATNO][  1].d[ 25] =        -0.049422346779;
  BAS[ATNO][  1].a[ 26] =       126.500000000000;     BAS[ATNO][  1].d[ 26] =        -0.098874626102;
  BAS[ATNO][  1].a[ 27] =        61.030000000000;     BAS[ATNO][  1].d[ 27] =        -0.158809301165;
  BAS[ATNO][  1].a[ 28] =        29.860000000000;     BAS[ATNO][  1].d[ 28] =        -0.152679802641;
  BAS[ATNO][  1].a[ 29] =        14.170000000000;     BAS[ATNO][  1].d[ 29] =         0.059450797388;
  BAS[ATNO][  1].a[ 30] =         7.022000000000;     BAS[ATNO][  1].d[ 30] =         0.443777599618;
  BAS[ATNO][  1].a[ 31] =         3.511000000000;     BAS[ATNO][  1].d[ 31] =         0.554385020093;
  BAS[ATNO][  1].a[ 32] =   7401000.000000000000;     BAS[ATNO][  1].d[ 32] =         0.000000000695;
  BAS[ATNO][  1].a[ 33] =   1108000.000000000000;     BAS[ATNO][  1].d[ 33] =         0.000000005259;
  BAS[ATNO][  1].a[ 34] =    252100.000000000000;     BAS[ATNO][  1].d[ 34] =         0.000000028866;
  BAS[ATNO][  1].a[ 35] =     71380.000000000000;     BAS[ATNO][  1].d[ 35] =         0.000000115949;
  BAS[ATNO][  1].a[ 36] =     23260.000000000000;     BAS[ATNO][  1].d[ 36] =         0.000000455002;
  BAS[ATNO][  1].a[ 37] =      8390.000000000000;     BAS[ATNO][  1].d[ 37] =         0.000001386284;
  BAS[ATNO][  1].a[ 38] =      3271.000000000000;     BAS[ATNO][  1].d[ 38] =         0.000004685189;
  BAS[ATNO][  1].a[ 39] =      1357.000000000000;     BAS[ATNO][  1].d[ 39] =         0.000012293023;
  BAS[ATNO][  1].a[ 40] =       592.000000000000;     BAS[ATNO][  1].d[ 40] =         0.000039698760;
  BAS[ATNO][  1].a[ 41] =       269.100000000000;     BAS[ATNO][  1].d[ 41] =         0.000100559492;
  BAS[ATNO][  1].a[ 42] =       126.500000000000;     BAS[ATNO][  1].d[ 42] =         0.000322427551;
  BAS[ATNO][  1].a[ 43] =        61.030000000000;     BAS[ATNO][  1].d[ 43] =         0.000777459365;
  BAS[ATNO][  1].a[ 44] =        29.860000000000;     BAS[ATNO][  1].d[ 44] =         0.001461711869;
  BAS[ATNO][  1].a[ 45] =        14.170000000000;     BAS[ATNO][  1].d[ 45] =        -0.001165926076;
  BAS[ATNO][  1].a[ 46] =         7.022000000000;     BAS[ATNO][  1].d[ 46] =        -0.014391658190;
  BAS[ATNO][  1].a[ 47] =         3.511000000000;     BAS[ATNO][  1].d[ 47] =        -0.055301750746;
  BAS[ATNO][  1].a[ 48] =         1.758000000000;     BAS[ATNO][  1].d[ 48] =         0.160289105453;
  BAS[ATNO][  1].a[ 49] =         0.784100000000;     BAS[ATNO][  1].d[ 49] =         0.008824226328;
  BAS[ATNO][  1].a[ 50] =         0.348000000000;     BAS[ATNO][  1].d[ 50] =         0.001150609069;
  BAS[ATNO][  1].a[ 51] =         0.149100000000;     BAS[ATNO][  1].d[ 51] =         0.000206686946;
  BAS[ATNO][  1].a[ 52] =         0.053800000000;     BAS[ATNO][  1].d[ 52] =         0.000008221259;

  // Basis function   3 L = s
  InitBFNGauss(BAS[ATNO][  2]);
  BAS[ATNO][  2].l  = 0;
  BAS[ATNO][  2].ng = 53;
  BAS[ATNO][  2].a[  0] =   7401000.000000000000;     BAS[ATNO][  2].d[  0] =        -0.000000004119;
  BAS[ATNO][  2].a[  1] =   1108000.000000000000;     BAS[ATNO][  2].d[  1] =        -0.000000032040;
  BAS[ATNO][  2].a[  2] =    252100.000000000000;     BAS[ATNO][  2].d[  2] =        -0.000000168571;
  BAS[ATNO][  2].a[  3] =     71380.000000000000;     BAS[ATNO][  2].d[  3] =        -0.000000713151;
  BAS[ATNO][  2].a[  4] =     23260.000000000000;     BAS[ATNO][  2].d[  4] =        -0.000002603053;
  BAS[ATNO][  2].a[  5] =      8390.000000000000;     BAS[ATNO][  2].d[  5] =        -0.000008488080;
  BAS[ATNO][  2].a[  6] =      3271.000000000000;     BAS[ATNO][  2].d[  6] =        -0.000025212502;
  BAS[ATNO][  2].a[  7] =      1357.000000000000;     BAS[ATNO][  2].d[  7] =        -0.000068500231;
  BAS[ATNO][  2].a[  8] =       592.000000000000;     BAS[ATNO][  2].d[  8] =        -0.000168645876;
  BAS[ATNO][  2].a[  9] =       269.100000000000;     BAS[ATNO][  2].d[  9] =        -0.000362756534;
  BAS[ATNO][  2].a[ 10] =       126.500000000000;     BAS[ATNO][  2].d[ 10] =        -0.000636403040;
  BAS[ATNO][  2].a[ 11] =        61.030000000000;     BAS[ATNO][  2].d[ 11] =        -0.000788051293;
  BAS[ATNO][  2].a[ 12] =        29.860000000000;     BAS[ATNO][  2].d[ 12] =        -0.000527969562;
  BAS[ATNO][  2].a[ 13] =        14.170000000000;     BAS[ATNO][  2].d[ 13] =        -0.000117687130;
  BAS[ATNO][  2].a[ 14] =         7.022000000000;     BAS[ATNO][  2].d[ 14] =        -0.000000352359;
  BAS[ATNO][  2].a[ 15] =         3.511000000000;     BAS[ATNO][  2].d[ 15] =        -0.000004950743;
  BAS[ATNO][  2].a[ 16] =   7401000.000000000000;     BAS[ATNO][  2].d[ 16] =         0.000000157225;
  BAS[ATNO][  2].a[ 17] =   1108000.000000000000;     BAS[ATNO][  2].d[ 17] =         0.000001223327;
  BAS[ATNO][  2].a[ 18] =    252100.000000000000;     BAS[ATNO][  2].d[ 18] =         0.000006435919;
  BAS[ATNO][  2].a[ 19] =     71380.000000000000;     BAS[ATNO][  2].d[ 19] =         0.000027242028;
  BAS[ATNO][  2].a[ 20] =     23260.000000000000;     BAS[ATNO][  2].d[ 20] =         0.000099511534;
  BAS[ATNO][  2].a[ 21] =      8390.000000000000;     BAS[ATNO][  2].d[ 21] =         0.000325432028;
  BAS[ATNO][  2].a[ 22] =      3271.000000000000;     BAS[ATNO][  2].d[ 22] =         0.000972510480;
  BAS[ATNO][  2].a[ 23] =      1357.000000000000;     BAS[ATNO][  2].d[ 23] =         0.002682385914;
  BAS[ATNO][  2].a[ 24] =       592.000000000000;     BAS[ATNO][  2].d[ 24] =         0.006814238196;
  BAS[ATNO][  2].a[ 25] =       269.100000000000;     BAS[ATNO][  2].d[ 25] =         0.015663669047;
  BAS[ATNO][  2].a[ 26] =       126.500000000000;     BAS[ATNO][  2].d[ 26] =         0.031336824763;
  BAS[ATNO][  2].a[ 27] =        61.030000000000;     BAS[ATNO][  2].d[ 27] =         0.050332218058;
  BAS[ATNO][  2].a[ 28] =        29.860000000000;     BAS[ATNO][  2].d[ 28] =         0.048389565745;
  BAS[ATNO][  2].a[ 29] =        14.170000000000;     BAS[ATNO][  2].d[ 29] =        -0.018842035548;
  BAS[ATNO][  2].a[ 30] =         7.022000000000;     BAS[ATNO][  2].d[ 30] =        -0.140648631720;
  BAS[ATNO][  2].a[ 31] =         3.511000000000;     BAS[ATNO][  2].d[ 31] =        -0.175703989091;
  BAS[ATNO][  2].a[ 32] =   7401000.000000000000;     BAS[ATNO][  2].d[ 32] =         0.000000002194;
  BAS[ATNO][  2].a[ 33] =   1108000.000000000000;     BAS[ATNO][  2].d[ 33] =         0.000000016598;
  BAS[ATNO][  2].a[ 34] =    252100.000000000000;     BAS[ATNO][  2].d[ 34] =         0.000000091100;
  BAS[ATNO][  2].a[ 35] =     71380.000000000000;     BAS[ATNO][  2].d[ 35] =         0.000000365925;
  BAS[ATNO][  2].a[ 36] =     23260.000000000000;     BAS[ATNO][  2].d[ 36] =         0.000001435943;
  BAS[ATNO][  2].a[ 37] =      8390.000000000000;     BAS[ATNO][  2].d[ 37] =         0.000004374985;
  BAS[ATNO][  2].a[ 38] =      3271.000000000000;     BAS[ATNO][  2].d[ 38] =         0.000014786023;
  BAS[ATNO][  2].a[ 39] =      1357.000000000000;     BAS[ATNO][  2].d[ 39] =         0.000038795638;
  BAS[ATNO][  2].a[ 40] =       592.000000000000;     BAS[ATNO][  2].d[ 40] =         0.000125285602;
  BAS[ATNO][  2].a[ 41] =       269.100000000000;     BAS[ATNO][  2].d[ 41] =         0.000317356422;
  BAS[ATNO][  2].a[ 42] =       126.500000000000;     BAS[ATNO][  2].d[ 42] =         0.001017551423;
  BAS[ATNO][  2].a[ 43] =        61.030000000000;     BAS[ATNO][  2].d[ 43] =         0.002453589589;
  BAS[ATNO][  2].a[ 44] =        29.860000000000;     BAS[ATNO][  2].d[ 44] =         0.004613026972;
  BAS[ATNO][  2].a[ 45] =        14.170000000000;     BAS[ATNO][  2].d[ 45] =        -0.003679554468;
  BAS[ATNO][  2].a[ 46] =         7.022000000000;     BAS[ATNO][  2].d[ 46] =        -0.045418737329;
  BAS[ATNO][  2].a[ 47] =         3.511000000000;     BAS[ATNO][  2].d[ 47] =        -0.174527191924;
  BAS[ATNO][  2].a[ 48] =         1.758000000000;     BAS[ATNO][  2].d[ 48] =        -0.127333106413;
  BAS[ATNO][  2].a[ 49] =         0.784100000000;     BAS[ATNO][  2].d[ 49] =         0.452524794761;
  BAS[ATNO][  2].a[ 50] =         0.348000000000;     BAS[ATNO][  2].d[ 50] =         0.611314518140;
  BAS[ATNO][  2].a[ 51] =         0.149100000000;     BAS[ATNO][  2].d[ 51] =         0.186486253397;
  BAS[ATNO][  2].a[ 52] =         0.053800000000;     BAS[ATNO][  2].d[ 52] =         0.000927564434;

  // Basis function   4 L = s
  InitBFNGauss(BAS[ATNO][  3]);
  BAS[ATNO][  3].l  = 0;
  BAS[ATNO][  3].ng = 53;
  BAS[ATNO][  3].a[  0] =   7401000.000000000000;     BAS[ATNO][  3].d[  0] =         0.000000015077;
  BAS[ATNO][  3].a[  1] =   1108000.000000000000;     BAS[ATNO][  3].d[  1] =         0.000000117281;
  BAS[ATNO][  3].a[  2] =    252100.000000000000;     BAS[ATNO][  3].d[  2] =         0.000000617040;
  BAS[ATNO][  3].a[  3] =     71380.000000000000;     BAS[ATNO][  3].d[  3] =         0.000002610436;
  BAS[ATNO][  3].a[  4] =     23260.000000000000;     BAS[ATNO][  3].d[  4] =         0.000009528282;
  BAS[ATNO][  3].a[  5] =      8390.000000000000;     BAS[ATNO][  3].d[  5] =         0.000031069985;
  BAS[ATNO][  3].a[  6] =      3271.000000000000;     BAS[ATNO][  3].d[  6] =         0.000092288484;
  BAS[ATNO][  3].a[  7] =      1357.000000000000;     BAS[ATNO][  3].d[  7] =         0.000250739990;
  BAS[ATNO][  3].a[  8] =       592.000000000000;     BAS[ATNO][  3].d[  8] =         0.000617315663;
  BAS[ATNO][  3].a[  9] =       269.100000000000;     BAS[ATNO][  3].d[  9] =         0.001327843263;
  BAS[ATNO][  3].a[ 10] =       126.500000000000;     BAS[ATNO][  3].d[ 10] =         0.002329505908;
  BAS[ATNO][  3].a[ 11] =        61.030000000000;     BAS[ATNO][  3].d[ 11] =         0.002884603038;
  BAS[ATNO][  3].a[ 12] =        29.860000000000;     BAS[ATNO][  3].d[ 12] =         0.001932593241;
  BAS[ATNO][  3].a[ 13] =        14.170000000000;     BAS[ATNO][  3].d[ 13] =         0.000430784972;
  BAS[ATNO][  3].a[ 14] =         7.022000000000;     BAS[ATNO][  3].d[ 14] =         0.000001289785;
[...]
<pd|fh>:          336 b          276 skpd ( 82.1%)    0.001 s ( 0.022 ms/b)
<pd|gg>: done
<pd|gh>:          252 b          247 skpd ( 98.0%)    0.000 s ( 0.060 ms/b)
<pd|hh>:          126 b          105 skpd ( 83.3%)    0.002 s ( 0.072 ms/b)
<pf|pf>:          406 b            0 skpd (  0.0%)    0.004 s ( 0.010 ms/b)
<pf|pg>:          588 b            0 skpd (  0.0%)    0.009 s ( 0.015 ms/b)
<pf|ph>:          392 b            0 skpd (  0.0%)    0.011 s ( 0.028 ms/b)
<pf|dd>:          588 b          477 skpd ( 81.1%)    0.000 s ( 0.004 ms/b)
<pf|df>:          672 b          605 skpd ( 90.0%)    0.000 s ( 0.005 ms/b)
<pf|dg>:          504 b          482 skpd ( 95.6%)    0.000 s ( 0.010 ms/b)
<pf|dh>:          336 b          331 skpd ( 98.5%)    0.000 s ( 0.048 ms/b)
<pf|ff>:          280 b          184 skpd ( 65.7%)    0.001 s ( 0.010 ms/b)
<pf|fg>:          336 b          288 skpd ( 85.7%)    0.001 s ( 0.014 ms/b)
<pf|fh>:          224 b          200 skpd ( 89.3%)    0.001 s ( 0.025 ms/b)
<pf|gg>:          168 b          130 skpd ( 77.4%)    0.001 s ( 0.026 ms/b)
<pf|gh>:          168 b          146 skpd ( 86.9%)    0.001 s ( 0.034 ms/b)
<pf|hh>:           84 b           60 skpd ( 71.4%)    0.002 s ( 0.077 ms/b)
<pg|pg>:          231 b            0 skpd (  0.0%)    0.007 s ( 0.032 ms/b)
<pg|ph>:          294 b            0 skpd (  0.0%)    0.015 s ( 0.051 ms/b)
<pg|dd>: done
<pg|df>:          504 b          479 skpd ( 95.0%)    0.000 s ( 0.010 ms/b)
<pg|dg>: done
<pg|dh>: done
<pg|ff>:          210 b          162 skpd ( 77.1%)    0.001 s ( 0.012 ms/b)
<pg|fg>:          252 b          229 skpd ( 90.9%)    0.001 s ( 0.033 ms/b)
<pg|fh>:          168 b          164 skpd ( 97.6%)    0.000 s ( 0.077 ms/b)
<pg|gg>: done
<pg|gh>: done
<pg|hh>: done
<ph|ph>:          105 b            0 skpd (  0.0%)    0.013 s ( 0.127 ms/b)
<ph|dd>:          294 b          292 skpd ( 99.3%)    0.000 s ( 0.045 ms/b)
<ph|df>:          336 b          320 skpd ( 95.2%)    0.000 s ( 0.018 ms/b)
<ph|dg>: done
<ph|dh>: done
<ph|ff>:          140 b          110 skpd ( 78.6%)    0.001 s ( 0.019 ms/b)
<ph|fg>:          168 b          155 skpd ( 92.3%)    0.001 s ( 0.051 ms/b)
<ph|fh>:          112 b          111 skpd ( 99.1%)    0.000 s ( 0.251 ms/b)
<ph|gg>: done
<ph|gh>: done
<ph|hh>: done
<dd|dd>: done
<dd|df>: done
<dd|dg>: done
<dd|dh>: done
<dd|ff>: done
<dd|fg>: done
<dd|fh>: done
<dd|gg>: done
<dd|gh>: done
<dd|hh>: done
<df|df>: done
<df|dg>: done
<df|dh>: done
<df|ff>: done
<df|fg>: done
<df|fh>: done
<df|gg>: done
<df|gh>: done
<df|hh>: done
<dg|dg>: done
<dg|dh>: done
<dg|ff>: done
<dg|fg>: done
<dg|fh>: done
<dg|gg>: done
<dg|gh>: done
<dg|hh>: done
<dh|dh>: done
<dh|ff>: done
<dh|fg>: done
<dh|fh>: done
<dh|gg>: done
<dh|gh>: done
<dh|hh>: done
<ff|ff>: done
<ff|fg>: done
<ff|fh>: done
<ff|gg>: done
<ff|gh>: done
<ff|hh>: done
<fg|fg>: done
<fg|fh>: done
<fg|gg>: done
<fg|gh>: done
<fg|hh>: done
<fh|fh>: done
<fh|gg>: done
<fh|gh>: done
<fh|hh>: done
<gg|gg>: done
<gg|gh>: done
<gg|hh>: done
<gh|gh>: done
<gh|hh>: done
<hh|hh>: done
Recanonicalizing the internal orbitals
Recanonicalizing the virtual orbitals
Time needed for Fock operator              ...            0.582 sec
Reference energy                           ...   -526.817366380
<ss|**>: 
------------------------------
PARTIAL COULOMB TRANSFORMATION
------------------------------

Transformation type                        ... one-operator
Dimension of the basis                     ...  136
Number of internal MOs                     ...  131 (5-135)
Pair cutoff                                ... 0.000e+00 Eh
Number of AO pairs included in the trafo   ... 9316
Total Number of distinct AO pairs          ... 9316
Memory devoted for trafo                   ... 2500.0 MB 
Max. Number of MO pairs treated together   ... 35173      
Max. Number of MOs treated per batch       ...  258      
Number Format for Storage                  ... Double (8 Byte)
AO-integral source                         ... DIRECT
Integral package used                      ... LIBINT

Starting integral evaluation:
<sp|**>:        16740 b        0 skpd     0.159 s (  0.009 ms/b)
       26040 b        0 skpd     0.239 s (  0.009 ms/b)
<sd|**>:        22320 b        0 skpd     0.146 s (  0.007 ms/b)
<sf|**>:        14880 b        0 skpd     0.150 s (  0.010 ms/b)
<sg|**>:        11160 b        0 skpd     0.336 s (  0.030 ms/b)
<sh|**>:         7440 b        0 skpd     0.281 s (  0.038 ms/b)
<pp|**>:        13020 b        0 skpd     0.172 s (  0.013 ms/b)
<pd|**>:        19530 b        0 skpd     0.263 s (  0.013 ms/b)
<pf|**>:        13020 b        0 skpd     0.230 s (  0.018 ms/b)
<pg|**>:         9765 b        0 skpd     0.271 s (  0.028 ms/b)
<ph|**>:         6510 b        0 skpd     0.386 s (  0.059 ms/b)
<dd|**>:         9765 b        0 skpd     0.141 s (  0.014 ms/b)
<df|**>:        11160 b        0 skpd     0.234 s (  0.021 ms/b)
<dg|**>:         8370 b        0 skpd     0.240 s (  0.029 ms/b)
<dh|**>:         5580 b        0 skpd     0.269 s (  0.048 ms/b)
<ff|**>:         4650 b        0 skpd     0.126 s (  0.027 ms/b)
<fg|**>:         5580 b        0 skpd     0.363 s (  0.065 ms/b)
<fh|**>:         3720 b        0 skpd     0.221 s (  0.059 ms/b)
<gg|**>:         2790 b        0 skpd     0.221 s (  0.079 ms/b)
<gh|**>:         2790 b        0 skpd     0.328 s (  0.118 ms/b)
<hh|**>:         1395 b        0 skpd     0.356 s (  0.255 ms/b)
Closing buffer AOJ ( 0.06 GB; CompressionRatio= 1.00)
Collecting buffer AOJ 
    ... done with AO integral generation
Number of MO pairs included in the trafo   ... 8646
    ... Now sorting integrals
IBATCH = 1 of  1
Closing buffer JAO ( 0.06 GB; CompressionRatio= 1.00)
Collecting buffer JAO 
TOTAL TIME for half transformation         ...     7.340 sec
AO-integral generation                     ...     4.016 sec
Half transformation                        ...     1.158 sec
J-integral sorting                         ...     1.966 sec

-------------------------- SECOND HALF TRANSFORMATION -------------------------
Formation of (pq|rs)                       ... ok (     2.052 sec)
Integral sorting                           ... ok (     3.350 sec)

------------------
CLOSED SHELL GUESS
------------------

Initial guess performed in     0.004 sec
E(0)                                       ...   -526.817366380
E(MP2)                                     ...     -0.241928172
Initial E(tot)                             ...   -527.059294552
<T|T>                                      ...      0.067017354
Number of pairs included                   ... 10
Total number of pairs                      ... 10

------------------------------------------------
                  RHF COUPLED CLUSTER ITERATIONS
------------------------------------------------

Number of amplitudes to be optimized       ... 161798

Iter       E(tot)           E(Corr)          Delta-E          Residual     Time
  0   -527.059294552     -0.241928172      0.000000000      0.007590714    0.18
                           *** Turning on DIIS ***
  1   -527.070047306     -0.252680926     -0.010752754      0.002993796    0.67
  2   -527.074131171     -0.256764791     -0.004083865      0.000742644    0.65
  3   -527.074670758     -0.257304378     -0.000539587      0.000196422    0.59
  4   -527.074717489     -0.257351109     -0.000046731      0.000051095    0.57
  5   -527.074723381     -0.257357001     -0.000005892      0.000016582    0.59
  6   -527.074724101     -0.257357720     -0.000000719      0.000004908    0.56
               --- The Coupled-Cluster iterations have converged ---

----------------------
COUPLED CLUSTER ENERGY
----------------------

E(0)                                       ...   -526.817366380
E(CORR)                                    ...     -0.257357720
E(TOT)                                     ...   -527.074724101
Singles Norm <S|S>**1/2                    ...      0.007141578  
T1 diagnostic                              ...      0.002524929  

------------------
LARGEST AMPLITUDES
------------------
   6-> 25   6-> 25       0.030597
   6-> 22   6-> 22       0.026939
   7-> 24   7-> 24       0.025383
   8-> 24   8-> 24       0.023871
   8-> 26   8-> 26       0.023054
   8-> 23   8-> 23       0.022461
   7-> 23   7-> 23       0.021915
   7-> 26   7-> 26       0.021144
   7-> 22   7-> 22       0.016848
   8-> 22   8-> 22       0.016431
   6-> 26   6-> 26       0.016020
   6-> 23   6-> 23       0.015843
   6-> 18   6-> 18       0.015812
   7-> 19   7-> 19       0.015530
   8-> 20   8-> 20       0.015501
   7-> 25   7-> 25       0.015074


        !!!!!!!!!!!!!!!!!!!!!!!!!!!!!!!!!!!!!!!!!!!!!!!!!!!!!!!!!!!!!!!!!!!!!!!!!! 
        !  Warning: Densities are linearized densities !                         !
        !!!!!!!!!!!!!!!!!!!!!!!!!!!!!!!!!!!!!!!!!!!!!!!!!!!!!!!!!!!!!!!!!!!!!!!!!! 

Trace of internal density part =     -0.155783335
Trace of external density part =      0.155783335
----------------------
RHF TRIPLES CORRECTION (Algorithm 1)
----------------------

Multiplier for the singles contribution    ...      1.000000000

10% done
20% done
30% done
40% done
50% done
60% done
70% done
80% done
90% done

Triples Correction (T)                     ...     -0.009506476
Scaling of triples based on CCSD energies (Peterson et al. Molecular Physics 113, 1551 (2015))
E(T*) = f*E(T) where f = E(F12-CCSD)/E(CCSD) 
f = CCSD (with F12)/ CCSD (without F12)    ...      1.000000000
Scaled triples correction (T)              ...     -0.009506476

Final correlation energy                   ...     -0.266864197
E(CCSD)                                    ...   -527.074724101
E(CCSD(T))                                 ...   -527.084230577

NORM  =      1.077942670 sqrt=     1.038240179
W(HF) =      0.927693122
------------------------------------------------------------------------------
                           ORCA POPULATION ANALYSIS
------------------------------------------------------------------------------
Input electron density              ... 18_Ar.mdcip
BaseName (.gbw .S,...)              ... 18_Ar

                    ********************************
                    * MULLIKEN POPULATION ANALYSIS *
                    ********************************

-----------------------
MULLIKEN ATOMIC CHARGES
-----------------------
   0 Ar:    0.000000
Sum of atomic charges:    0.0000000

--------------------------------
MULLIKEN REDUCED ORBITAL CHARGES
--------------------------------
  0 Ars       :     5.987020  s :     5.987020
      pz      :     3.963523  p :    11.890568
      px      :     3.963523
      py      :     3.963523
      dz2     :     0.021397  d :     0.106983
      dxz     :     0.021397
      dyz     :     0.021397
      dx2y2   :     0.021397
      dxy     :     0.021397
      f0      :     0.001702  f :     0.011912
      f+1     :     0.001702
      f-1     :     0.001702
      f+2     :     0.001702
      f-2     :     0.001702
      f+3     :     0.001702
      f-3     :     0.001702
      g0      :     0.000339  g :     0.003055
      g+1     :     0.000339
      g-1     :     0.000339
      g+2     :     0.000339
      g-2     :     0.000339
      g+3     :     0.000339
      g-3     :     0.000339
      g+4     :     0.000339
      g-4     :     0.000339
      h0      :     0.000042  h :     0.000463
      h+1     :     0.000042
      h-1     :     0.000042
      h+2     :     0.000042
      h-2     :     0.000042
      h+3     :     0.000042
      h-3     :     0.000042
      h+4     :     0.000042
      h-4     :     0.000042
      h+5     :     0.000042
      h-5     :     0.000042


                     *******************************
                     * LOEWDIN POPULATION ANALYSIS *
                     *******************************

----------------------
LOEWDIN ATOMIC CHARGES
----------------------
   0 Ar:    0.000000

-------------------------------
LOEWDIN REDUCED ORBITAL CHARGES
-------------------------------
  0 Ars       :     5.987020  s :     5.987020
      pz      :     3.963523  p :    11.890568
      px      :     3.963523
      py      :     3.963523
      dz2     :     0.021397  d :     0.106983
      dxz     :     0.021397
      dyz     :     0.021397
      dx2y2   :     0.021397
      dxy     :     0.021397
      f0      :     0.001702  f :     0.011912
      f+1     :     0.001702
      f-1     :     0.001702
      f+2     :     0.001702
      f-2     :     0.001702
      f+3     :     0.001702
      f-3     :     0.001702
      g0      :     0.000339  g :     0.003055
      g+1     :     0.000339
      g-1     :     0.000339
      g+2     :     0.000339
      g-2     :     0.000339
      g+3     :     0.000339
      g-3     :     0.000339
      g+4     :     0.000339
      g-4     :     0.000339
      h0      :     0.000042  h :     0.000463
      h+1     :     0.000042
      h-1     :     0.000042
      h+2     :     0.000042
      h-2     :     0.000042
      h+3     :     0.000042
      h-3     :     0.000042
      h+4     :     0.000042
      h-4     :     0.000042
      h+5     :     0.000042
      h-5     :     0.000042


                      *****************************
                      * MAYER POPULATION ANALYSIS *
                      *****************************

  NA   - Mulliken gross atomic population
  ZA   - Total nuclear charge
  QA   - Mulliken gross atomic charge
  VA   - Mayer's total valence
  BVA  - Mayer's bonded valence
  FA   - Mayer's free valence

  ATOM       NA         ZA         QA         VA         BVA        FA
  0 Ar    18.0000    18.0000     0.0000     0.6139     0.0000     0.6139





------------------------------------------------------------------------------- 
                                     TIMINGS                                   
------------------------------------------------------------------------------- 


Total execution time                   ...       18.222 sec

Fock Matrix Formation                  ...        0.582 sec (  3.2%)
Initial Guess                          ...        0.004 sec (  0.0%)
DIIS Solver                            ...        0.058 sec (  0.3%)
State Vector Update                    ...        0.003 sec (  0.0%)
Sigma-vector construction              ...        3.740 sec ( 20.5%)
  <D|H|D>(0-ext)                       ...        0.003 sec (  0.1% of sigma)
  <D|H|D>(2-ext Fock)                  ...        0.002 sec (  0.0% of sigma)
  <D|H|D>(2-ext)                       ...        0.018 sec (  0.5% of sigma)
  <D|H|D>(4-ext)                       ...        0.395 sec ( 10.6% of sigma)
  <D|H|D>(4-ext-corr)                  ...        0.398 sec ( 10.6% of sigma)
  <S|H|0>                              ...        0.002 sec (  0.0% of sigma)
  <S|H|S>                              ...        0.003 sec (  0.1% of sigma)
  <S|H|D>(1-ext)                       ...        0.005 sec (  0.1% of sigma)
  <D|H|S>(1-ext)                       ...        0.003 sec (  0.1% of sigma)
  <S|H|D>(3-ext)                       ...        0.068 sec (  1.8% of sigma)
  Fock-dressing                        ...        2.563 sec ( 68.5% of sigma)
  (ik|jl)-dressing                     ...        0.003 sec (  0.1% of sigma)
  (ij|ab),(ia|jb)-dressing             ...        0.225 sec (  6.0% of sigma)
  Pair energies                        ...        0.001 sec (  0.0% of sigma)
Total Time for computing (T)           ...        0.232 sec (  1.3% of ALL)
  I/O of integral and amplitudes       ...        0.075 sec ( 32.5% of (T))
  N**6 sorting step                    ...        0.059 sec ( 25.6% of (T))
  External N**7 contributions          ...        0.058 sec ( 25.1% of (T))
  Internal N**7 contributions          ...        0.015 sec (  6.4% of (T))
  N**6 triples energy contributions    ...        0.024 sec ( 10.4% of (T))
One-particle density matrix            ...        0.001 sec (  0.0%)


-------------------------   --------------------
FINAL SINGLE POINT ENERGY      -527.084230576952
-------------------------   --------------------


                            ***************************************
                            *     ORCA property calculations      *
                            ***************************************

                                    ---------------------
                                    Active property flags
                                    ---------------------
   (+) Dipole Moment


------------------------------------------------------------------------------
                       ORCA ELECTRIC PROPERTIES CALCULATION
------------------------------------------------------------------------------

Dipole Moment Calculation                       ... on
Quadrupole Moment Calculation                   ... off
Polarizability Calculation                      ... off
GBWName                                         ... 18_Ar.gbw
Electron density file                           ... 18_Ar.scfp
The origin for moment calculation is the CENTER OF MASS  = ( 0.000000,  0.000000  0.000000)

-------------
DIPOLE MOMENT
-------------
                                X             Y             Z
Electronic contribution:      0.00000       0.00000       0.00000
Nuclear contribution   :      0.00000       0.00000       0.00000
                        -----------------------------------------
Total Dipole Moment    :      0.00000       0.00000       0.00000
                        -----------------------------------------
Magnitude (a.u.)       :      0.00000
Magnitude (Debye)      :      0.00000



--------------------
Rotational spectrum 
--------------------
 
Rotational constants in cm-1:     0.000000     0.000000     0.000000 
Rotational constants in MHz :     0.000000     0.000000     0.000000 

 Dipole components along the rotational axes: 
x,y,z [a.u.] :     0.000000     0.000000     0.000000 
x,y,z [Debye]:     0.000000     0.000000     0.000000 

 

                           *** MDCI DENSITY ***

------------------------------------------------------------------------------
                       ORCA ELECTRIC PROPERTIES CALCULATION
------------------------------------------------------------------------------

Dipole Moment Calculation                       ... on
Quadrupole Moment Calculation                   ... off
Polarizability Calculation                      ... off
GBWName                                         ... 18_Ar.gbw
Electron density file                           ... 18_Ar.mdcip
The origin for moment calculation is the CENTER OF MASS  = ( 0.000000,  0.000000  0.000000)

-------------
DIPOLE MOMENT
-------------
                                X             Y             Z
Electronic contribution:      0.00000       0.00000      -0.00000
Nuclear contribution   :      0.00000       0.00000       0.00000
                        -----------------------------------------
Total Dipole Moment    :      0.00000       0.00000      -0.00000
                        -----------------------------------------
Magnitude (a.u.)       :      0.00000
Magnitude (Debye)      :      0.00000



--------------------
Rotational spectrum 
--------------------
 
Rotational constants in cm-1:     0.000000     0.000000     0.000000 
Rotational constants in MHz :     0.000000     0.000000     0.000000 

 Dipole components along the rotational axes: 
x,y,z [a.u.] :     0.000000     0.000000    -0.000000 
x,y,z [Debye]:     0.000000     0.000000    -0.000000 

 

Timings for individual modules:

Sum of individual times         ...       26.319 sec (=   0.439 min)
GTO integral calculation        ...        1.102 sec (=   0.018 min)   4.2 %
SCF iterations                  ...        6.257 sec (=   0.104 min)  23.8 %
MDCI module                     ...       18.960 sec (=   0.316 min)  72.0 %
                             ****ORCA TERMINATED NORMALLY****
TOTAL RUN TIME: 0 days 0 hours 0 minutes 27 seconds 247 msec
