
                                 *****************
                                 * O   R   C   A *
                                 *****************

           --- An Ab Initio, DFT and Semiempirical electronic structure package ---

                  #######################################################
                  #                        -***-                        #
                  #          Department of theory and spectroscopy      #
                  #               Directorship: Frank Neese             #
                  #        Max Planck Institute fuer Kohlenforschung    #
                  #                Kaiser Wilhelm Platz 1               #
                  #                 D-45470 Muelheim/Ruhr               #
                  #                      Germany                        #
                  #                                                     #
                  #                  All rights reserved                #
                  #                        -***-                        #
                  #######################################################


                         Program Version 4.2.0 -  RELEASE  -


 With contributions from (in alphabetic order):
   Daniel Aravena         : Magnetic Suceptibility
   Michael Atanasov       : Ab Initio Ligand Field Theory (pilot matlab implementation)
   Alexander A. Auer      : GIAO ZORA, VPT2
   Ute Becker             : Parallelization
   Giovanni Bistoni       : ED, misc. LED, open-shell LED, HFLED
   Martin Brehm           : Molecular dynamics
   Dmytro Bykov           : SCF Hessian
   Vijay G. Chilkuri      : MRCI spin determinant printing, contributions to CSF-ICE
   Dipayan Datta          : RHF DLPNO-CCSD density
   Achintya Kumar Dutta   : EOM-CC, STEOM-CC
   Dmitry Ganyushin       : Spin-Orbit,Spin-Spin,Magnetic field MRCI
   Miquel Garcia          : C-PCM Hessian, Gaussian charge scheme
   Yang Guo               : DLPNO-NEVPT2, CIM, IAO-localization
   Andreas Hansen         : Spin unrestricted coupled pair/coupled cluster methods
   Benjamin Helmich-Paris : CASSCF linear response (MC-RPA)
   Lee Huntington         : MR-EOM, pCC
   Robert Izsak           : Overlap fitted RIJCOSX, COSX-SCS-MP3, EOM
   Christian Kollmar      : KDIIS, OOCD, Brueckner-CCSD(T), CCSD density
   Simone Kossmann        : Meta GGA functionals, TD-DFT gradient, OOMP2, MP2 Hessian
   Martin Krupicka        : AUTO-CI
   Lucas Lang             : DCDCAS
   Dagmar Lenk            : GEPOL surface, SMD
   Dimitrios Liakos       : Extrapolation schemes; Compound Job, initial MDCI parallelization
   Dimitrios Manganas     : Further ROCIS development; embedding schemes
   Dimitrios Pantazis     : SARC Basis sets
   Taras Petrenko         : DFT Hessian,TD-DFT gradient, ASA, ECA, R-Raman, ABS, FL, XAS/XES, NRVS
   Peter Pinski           : DLPNO-MP2, DLPNO-MP2 Gradient
   Christoph Reimann      : Effective Core Potentials
   Marius Retegan         : Local ZFS, SOC
   Christoph Riplinger    : Optimizer, TS searches, QM/MM, DLPNO-CCSD(T), (RO)-DLPNO pert. Triples
   Tobias Risthaus        : Range-separated hybrids, TD-DFT gradient, RPA, STAB
   Michael Roemelt        : Original ROCIS implementation
   Masaaki Saitow         : Open-shell DLPNO-CCSD energy and density
   Barbara Sandhoefer     : DKH picture change effects
   Avijit Sen             : IP-ROCIS
   Kantharuban Sivalingam : CASSCF convergence, NEVPT2, FIC-MRCI
   Bernardo de Souza      : ESD, SOC TD-DFT
   Georgi Stoychev        : AutoAux, RI-MP2 NMR
   Willem Van den Heuvel  : Paramagnetic NMR
   Boris Wezisla          : Elementary symmetry handling
   Frank Wennmohs         : Technical directorship


 We gratefully acknowledge several colleagues who have allowed us to
 interface, adapt or use parts of their codes:
   Stefan Grimme, W. Hujo, H. Kruse,             : VdW corrections, initial TS optimization,
                  C. Bannwarth                     DFT functionals, gCP, sTDA/sTD-DF
   Ed Valeev, F. Pavosevic, A. Kumar             : LibInt (2-el integral package), F12 methods
   Garnet Chan, S. Sharma, J. Yang, R. Olivares  : DMRG
   Ulf Ekstrom                                   : XCFun DFT Library
   Mihaly Kallay                                 : mrcc  (arbitrary order and MRCC methods)
   Andreas Klamt, Michael Diedenhofen            : otool_cosmo (COSMO solvation model)
   Jiri Pittner, Ondrej Demel                    : Mk-CCSD
   Frank Weinhold                                : gennbo (NPA and NBO analysis)
   Christopher J. Cramer and Donald G. Truhlar   : smd solvation model
   Lars Goerigk                                  : TD-DFT with DH, B97 family of functionals
   V. Asgeirsson, H. Jonsson                     : NEB implementation
   FAccTs GmbH                                   : IRC, NEB, NEB-TS, Multilevel, MM, QM/MM, CI optimization
   S Lehtola, MJT Oliveira, MAL Marques          : LibXC Library


 Your calculation uses the libint2 library for the computation of 2-el integrals
 For citations please refer to: http://libint.valeyev.net

 Your ORCA version has been built with support for libXC version: 4.2.3
 For citations please refer to: https://tddft.org/programs/libxc/

 This ORCA versions uses:
   CBLAS   interface :  Fast vector & matrix operations
   LAPACKE interface :  Fast linear algebra routines
   SCALAPACK package :  Parallel linear algebra routines


----- Orbital basis set information -----
Your calculation utilizes the basis: aug-cc-pV(5+d)Z 
             Al - Ar: T.H. Dunning, Jr., K. A. Peterson and A. K. Wilson, J. Chem. Phys.
                      114, 9244 (2001)

================================================================================
                                        WARNINGS
                       Please study these warnings very carefully!
================================================================================


WARNING: your system is open-shell and RHF/RKS was chosen
  ===> : WILL SWITCH to UHF/UKS


WARNING: MDCI localization with Augmented Hessian Foster-Boys
  ===> : Switching off randomization!

WARNING: Post HF methods need fully converged wavefunctions
  ===> : Setting SCFConvForced true
         You can overwrite this default with %scf ConvForced false 


INFO   : the flag for use of LIBINT has been found!

================================================================================
                                       INPUT FILE
================================================================================
NAME = 21_Sc.in
|  1> #
|  2> # 21_Sc CCSD(T)/aug-cc-pv5(+d)z
|  3> #
|  4> ! CCSD(T) aug-cc-pv5(+d)z tightscf slowconv kdiis
|  5> 
|  6> *xyz 0 2
|  7>  Sc 0.0 0.0 0.0
|  8> *
|  9> 
| 10> %maxcore 5000 
| 11> 
| 12> %pal
| 13> nprocs 24
| 14> end
| 15> 
| 16> 
| 17>                          ****END OF INPUT****
================================================================================

                       ****************************
                       * Single Point Calculation *
                       ****************************

---------------------------------
CARTESIAN COORDINATES (ANGSTROEM)
---------------------------------
  Sc     0.000000    0.000000    0.000000

----------------------------
CARTESIAN COORDINATES (A.U.)
----------------------------
  NO LB      ZA    FRAG     MASS         X           Y           Z
   0 Sc   21.0000    0    44.960    0.000000    0.000000    0.000000

--------------------------------
INTERNAL COORDINATES (ANGSTROEM)
--------------------------------
 Sc     0   0   0     0.000000000000     0.00000000     0.00000000

---------------------------
INTERNAL COORDINATES (A.U.)
---------------------------
 Sc     0   0   0     0.000000000000     0.00000000     0.00000000

---------------------
BASIS SET INFORMATION
---------------------
There are 1 groups of distinct atoms

 Group   1 Type Sc  : 218s131p57d5f4g3h2i contracted to 10s9p7d5f4g3h2i pattern {272727272727272711/1919181818181911/111111111111/11111/1111/111/11}

Atom   0Sc   basis set group =>   1


           ************************************************************
           *        Program running with 24 parallel MPI-processes    *
           *              working on a common directory               *
           ************************************************************
------------------------------------------------------------------------------
                           ORCA GTO INTEGRAL CALCULATION
------------------------------------------------------------------------------

                         BASIS SET STATISTICS AND STARTUP INFO

 # of primitive gaussian shells          ...  420
 # of primitive gaussian functions       ... 1026
 # of contracted shells                  ...   40
 # of contracted basis functions         ...  202
 Highest angular momentum                ...    6
 Maximum contraction depth               ...   27
 Integral package used                   ... LIBINT
 Integral threshhold            Thresh   ...  2.500e-11
 Primitive cut-off              TCut     ...  2.500e-12


------------------------------ INTEGRAL EVALUATION ----------------------------


 * One electron integrals 
 Pre-screening matrix                    ... done
 Shell pair data                         ... done (   0.003 sec)



           ************************************************************
           *        Program running with 24 parallel MPI-processes    *
           *              working on a common directory               *
           ************************************************************
-------------------------------------------------------------------------------
                                 ORCA SCF
-------------------------------------------------------------------------------

------------
SCF SETTINGS
------------
Hamiltonian:
 Ab initio Hamiltonian  Method          .... Hartree-Fock(GTOs)


General Settings:
 Integral files         IntName         .... 21_Sc
 Hartree-Fock type      HFTyp           .... UHF
 Total Charge           Charge          ....    0
 Multiplicity           Mult            ....    2
 Number of Electrons    NEL             ....   21
 Basis Dimension        Dim             ....  202
 Nuclear Repulsion      ENuc            ....      0.0000000000 Eh

Convergence Acceleration:
 DIIS                   CNVDIIS         .... off
 Newton-Raphson         CNVNR           .... off
 SOSCF                  CNVSOSCF        .... off
 Level Shifting         CNVShift        .... off
 Zerner damping         CNVZerner       .... off
 Static damping         CNVDamp         .... off
 Fernandez-Rico         CNVRico         .... off

SCF Procedure:
 Maximum # iterations   MaxIter         ....   125
 SCF integral mode      SCFMode         .... Direct
   Integral package                     .... LIBINT
 Reset frequency        DirectResetFreq ....    20
 Integral Threshold     Thresh          ....  2.500e-11 Eh
 Primitive CutOff       TCut            ....  2.500e-12 Eh

Convergence Tolerance:
 Convergence Check Mode ConvCheckMode   .... Total+1el-Energy
 Convergence forced     ConvForced      .... 1
 Energy Change          TolE            ....  1.000e-08 Eh
 1-El. energy change                    ....  1.000e-05 Eh


Diagonalization of the overlap matrix:
Smallest eigenvalue                        ... 6.189e-06
Time for diagonalization                   ...    0.022 sec
Threshold for overlap eigenvalues          ... 1.000e-08
Number of eigenvalues below threshold      ... 0
Time for construction of square roots      ...    0.009 sec
Total time needed                          ...    0.031 sec

-------------------
DFT GRID GENERATION
-------------------

General Integration Accuracy     IntAcc      ...  4.340
Radial Grid Type                 RadialGrid  ... Gauss-Chebyshev
Angular Grid (max. acc.)         AngularGrid ... Lebedev-110
Angular grid pruning method      GridPruning ... 3 (G Style)
Weight generation scheme         WeightScheme... Becke
Basis function cutoff            BFCut       ...    1.0000e-11
Integration weight cutoff        WCut        ...    1.0000e-14
Grids for H and He will be reduced by one unit

# of grid points (after initial pruning)     ...   2972 (   0.0 sec)
# of grid points (after weights+screening)   ...   2972 (   0.0 sec)
Grid point division into batches done        ...    0.0 sec
Reduced shell lists constructed in    0.0 sec

Total number of grid points                  ...     2972
Total number of batches                      ...       47
Average number of points per batch           ...       63
Average number of grid points per atom       ...     2972
Average number of shells per batch           ...    22.67 (56.67%)
Average number of basis functions per batch  ...    97.33 (48.18%)
Average number of large shells per batch     ...    20.00 (88.24%)
Average number of large basis fcns per batch ...    86.67 (89.04%)
Maximum spatial batch extension              ...  20.27, 31.13, 31.13 au
Average spatial batch extension              ...   0.86,  1.32,  1.32 au

Time for grid setup =    0.026 sec

------------------------------
INITIAL GUESS: MODEL POTENTIAL
------------------------------
Loading Hartree-Fock densities                     ... done
Calculating cut-offs                               ... done
Setting up the integral package                    ... done
Initializing the effective Hamiltonian             ... done
Starting the Coulomb interaction                   ... done (   0.0 sec)
Reading the grid                                   ... done
Mapping shells                                     ... done
Starting the XC term evaluation                    ... done (   0.0 sec)
Transforming the Hamiltonian                       ... done (   0.0 sec)
Diagonalizing the Hamiltonian                      ... done (   0.0 sec)
Back transforming the eigenvectors                 ... done (   0.0 sec)
Now organizing SCF variables                       ... done
                      ------------------
                      INITIAL GUESS DONE (   0.1 sec)
                      ------------------
--------------
SCF ITERATIONS
--------------
ITER       Energy         Delta-E        Max-DP      RMS-DP      [F,P]   Gradient Norm
               ***  Starting incremental Fock matrix formation  ***
                             ****Resetting KDIIS****
                             ****Turning on KDIIS(Cayley)****
  0   -759.7149837258   0.000000000000 0.44212231  0.00659186  0.2057968   0.128128640
  1   -759.7191695370  -0.004185811209 0.76621603  0.01165387  0.1856780   0.115614574
  2   -759.7267510010  -0.007581464033 0.84600385  0.01364731  0.1484083   0.092544742
  3   -759.7358661929  -0.009115191889 0.67382166  0.01068369  0.0890275   0.055502243
  4   -759.7409329544  -0.005066761488 0.01537374  0.00020652  0.0010779   0.000541522
  5   -759.7409530832  -0.000020128842 0.00560787  0.00008772  0.0007211   0.000549692
  6   -759.7409690267  -0.000015943438 0.00348634  0.00004079  0.0004202   0.000223089
  7   -759.7409753592  -0.000006332534 0.00157611  0.00001050  0.0002887   0.000135081
  8   -759.7409770522  -0.000001692963 0.00169111  0.00002217  0.0001853   0.000108247
  9   -759.7409777832  -0.000000731021 0.00070322  0.00000577  0.0000730   0.000047514
 10   -759.7409779028  -0.000000119648 0.00009316  0.00000085  0.0000173   0.000016267
                 **** Energy Check signals convergence ****
                    *** KDIIS BlockDiag (858.107 sec) ***

               *****************************************************
               *                     SUCCESS                       *
               *           SCF CONVERGED AFTER  11 CYCLES          *
               *****************************************************


----------------
TOTAL SCF ENERGY
----------------

Total Energy       :         -759.74097791 Eh          -20673.60303 eV

Components:
Nuclear Repulsion  :            0.00000000 Eh               0.00000 eV
Electronic Energy  :         -759.74097791 Eh          -20673.60303 eV
One Electron Energy:        -1040.18611733 Eh          -28304.90325 eV
Two Electron Energy:          280.44513942 Eh            7631.30021 eV

Virial components:
Potential Energy   :        -1519.50268922 Eh          -41347.77025 eV
Kinetic Energy     :          759.76171131 Eh           20674.16722 eV
Virial Ratio       :            1.99997271


---------------
SCF CONVERGENCE
---------------

  Last Energy change         ...   -7.9908e-09  Tolerance :   1.0000e-08
  Last MAX-Density change    ...    5.1425e-05  Tolerance :   1.0000e-07
  Last RMS-Density change    ...    3.0318e-07  Tolerance :   5.0000e-09

             **** THE GBW FILE WAS UPDATED (21_Sc.gbw) ****
             **** DENSITY FILE WAS UPDATED (21_Sc.scfp) ****
             **** ENERGY FILE WAS UPDATED (21_Sc.en.tmp) ****
----------------------
UHF SPIN CONTAMINATION
----------------------

Expectation value of <S**2>     :     0.761669
Ideal value S*(S+1) for S=0.5   :     0.750000
Deviation                       :     0.011669

             **** THE GBW FILE WAS UPDATED (21_Sc.gbw) ****
             **** DENSITY FILE WAS UPDATED (21_Sc.scfp) ****
----------------
ORBITAL ENERGIES
----------------
                 SPIN UP ORBITALS
  NO   OCC          E(Eh)            E(eV) 
   0   1.0000    -165.897281     -4514.2945 
   1   1.0000     -19.084806      -519.3240 
   2   1.0000     -15.673746      -426.5043 
   3   1.0000     -15.671579      -426.4453 
   4   1.0000     -15.671579      -426.4453 
   5   1.0000      -2.593189       -70.5642 
   6   1.0000      -1.620990       -44.1094 
   7   1.0000      -1.620989       -44.1093 
   8   1.0000      -1.581550       -43.0362 
   9   1.0000      -0.353804        -9.6275 
  10   1.0000      -0.216044        -5.8788 
  11   0.0000       0.012509         0.3404 
  12   0.0000       0.012510         0.3404 
  13   0.0000       0.012742         0.3467 
  14   0.0000       0.020497         0.5577 
  15   0.0000       0.027074         0.7367 
  16   0.0000       0.027092         0.7372 
  17   0.0000       0.027092         0.7372 
  18   0.0000       0.027146         0.7387 
  19   0.0000       0.027311         0.7432 
  20   0.0000       0.043576         1.1858 
  21   0.0000       0.043577         1.1858 
  22   0.0000       0.044057         1.1988 
  23   0.0000       0.076507         2.0818 
  24   0.0000       0.077311         2.1037 
  25   0.0000       0.077311         2.1037 
  26   0.0000       0.079008         2.1499 
  27   0.0000       0.084853         2.3090 
  28   0.0000       0.106191         2.8896 
  29   0.0000       0.106203         2.8899 
  30   0.0000       0.106204         2.8899 
  31   0.0000       0.106235         2.8908 
  32   0.0000       0.106265         2.8916 
  33   0.0000       0.106344         2.8938 
  34   0.0000       0.106344         2.8938 
  35   0.0000       0.108935         2.9643 
  36   0.0000       0.130259         3.5445 
  37   0.0000       0.135010         3.6738 
  38   0.0000       0.135011         3.6738 
  39   0.0000       0.147022         4.0007 
  40   0.0000       0.147023         4.0007 
  41   0.0000       0.147466         4.0128 
  42   0.0000       0.148265         4.0345 
  43   0.0000       0.223077         6.0702 
  44   0.0000       0.258678         7.0390 
  45   0.0000       0.258693         7.0394 
  46   0.0000       0.258693         7.0394 
  47   0.0000       0.258711         7.0399 
  48   0.0000       0.258849         7.0436 
  49   0.0000       0.258922         7.0456 
  50   0.0000       0.258922         7.0456 
  51   0.0000       0.259128         7.0512 
  52   0.0000       0.259138         7.0515 
  53   0.0000       0.263137         7.1603 
  54   0.0000       0.266698         7.2572 
  55   0.0000       0.266698         7.2572 
  56   0.0000       0.278495         7.5782 
  57   0.0000       0.357285         9.7222 
  58   0.0000       0.357285         9.7222 
  59   0.0000       0.357422         9.7259 
  60   0.0000       0.358079         9.7438 
  61   0.0000       0.358504         9.7554 
  62   0.0000       0.358504         9.7554 
  63   0.0000       0.358826         9.7641 
  64   0.0000       0.370956        10.0942 
  65   0.0000       0.431607        11.7446 
  66   0.0000       0.432584        11.7712 
  67   0.0000       0.432585        11.7712 
  68   0.0000       0.587309        15.9815 
  69   0.0000       0.593523        16.1506 
  70   0.0000       0.593528        16.1507 
  71   0.0000       0.593528        16.1507 
  72   0.0000       0.593533        16.1509 
  73   0.0000       0.593912        16.1612 
  74   0.0000       0.594012        16.1639 
  75   0.0000       0.594012        16.1639 
  76   0.0000       0.594287        16.1714 
  77   0.0000       0.594336        16.1727 
  78   0.0000       0.594829        16.1861 
  79   0.0000       0.594829        16.1861 
  80   0.0000       0.630798        17.1649 
  81   0.0000       0.634200        17.2575 
  82   0.0000       0.634200        17.2575 
  83   0.0000       0.644872        17.5479 
  84   0.0000       0.894429        24.3387 
  85   0.0000       0.894605        24.3434 
  86   0.0000       0.894605        24.3434 
  87   0.0000       0.895129        24.3577 
  88   0.0000       0.895159        24.3585 
  89   0.0000       0.896081        24.3836 
  90   0.0000       0.896081        24.3836 
  91   0.0000       0.897430        24.4203 
  92   0.0000       0.897444        24.4207 
  93   0.0000       0.992832        27.0163 
  94   0.0000       0.992832        27.0163 
  95   0.0000       0.994928        27.0734 
  96   0.0000       1.002795        27.2874 
  97   0.0000       1.005613        27.3641 
  98   0.0000       1.005614        27.3641 
  99   0.0000       1.008524        27.4433 
 100   0.0000       1.009697        27.4753 
 101   0.0000       1.009701        27.4754 
 102   0.0000       1.009701        27.4754 
 103   0.0000       1.009705        27.4755 
 104   0.0000       1.010352        27.4931 
 105   0.0000       1.010439        27.4954 
 106   0.0000       1.010439        27.4954 
 107   0.0000       1.010655        27.5013 
 108   0.0000       1.010804        27.5054 
 109   0.0000       1.011247        27.5174 
 110   0.0000       1.011247        27.5174 
 111   0.0000       1.012020        27.5385 
 112   0.0000       1.012022        27.5385 
 113   0.0000       1.126583        30.6559 
 114   0.0000       1.198010        32.5995 
 115   0.0000       1.204327        32.7714 
 116   0.0000       1.204327        32.7714 
 117   0.0000       1.536776        41.8178 
 118   0.0000       1.570675        42.7402 
 119   0.0000       1.575452        42.8702 
 120   0.0000       1.575452        42.8702 
 121   0.0000       1.590306        43.2744 
 122   0.0000       2.032862        55.3170 
 123   0.0000       2.033072        55.3227 
 124   0.0000       2.033073        55.3227 
 125   0.0000       2.033414        55.3320 
 126   0.0000       2.034982        55.3747 
 127   0.0000       2.036023        55.4030 
 128   0.0000       2.036023        55.4030 
 129   0.0000       2.038326        55.4657 
 130   0.0000       2.038433        55.4686 
 131   0.0000       2.041869        55.5621 
 132   0.0000       2.041869        55.5621 
 133   0.0000       2.697874        73.4129 
 134   0.0000       2.698316        73.4249 
 135   0.0000       2.698316        73.4249 
 136   0.0000       2.698983        73.4431 
 137   0.0000       2.702375        73.5354 
 138   0.0000       2.704021        73.5802 
 139   0.0000       2.704022        73.5802 
 140   0.0000       2.706872        73.6577 
 141   0.0000       2.707192        73.6664 
 142   0.0000       2.714911        73.8765 
 143   0.0000       2.714911        73.8765 
 144   0.0000       2.718234        73.9669 
 145   0.0000       2.734020        74.3965 
 146   0.0000       2.741505        74.6001 
 147   0.0000       2.741505        74.6002 
 148   0.0000       2.748479        74.7899 
 149   0.0000       3.255583        88.5889 
 150   0.0000       3.271835        89.0312 
 151   0.0000       3.271836        89.0312 
 152   0.0000       3.308898        90.0397 
 153   0.0000       4.020418       109.4011 
 154   0.0000       4.020531       109.4042 
 155   0.0000       4.020531       109.4042 
 156   0.0000       4.020666       109.4079 
 157   0.0000       4.024490       109.5119 
 158   0.0000       4.025429       109.5375 
 159   0.0000       4.025429       109.5375 
 160   0.0000       4.027703       109.5994 
 161   0.0000       4.028350       109.6170 
 162   0.0000       4.032135       109.7200 
 163   0.0000       4.032135       109.7200 
 164   0.0000       4.037877       109.8762 
 165   0.0000       4.037878       109.8763 
 166   0.0000       4.105913       111.7276 
 167   0.0000       4.126523       112.2884 
 168   0.0000       4.132297       112.4455 
 169   0.0000       4.132297       112.4455 
 170   0.0000       4.150198       112.9326 
 171   0.0000       6.788150       184.7150 
 172   0.0000       6.788931       184.7362 
 173   0.0000       6.788932       184.7362 
 174   0.0000       6.790509       184.7792 
 175   0.0000       6.793061       184.8486 
 176   0.0000       6.796549       184.9435 
 177   0.0000       6.796550       184.9435 
 178   0.0000       6.803091       185.1215 
 179   0.0000       6.803189       185.1242 
 180   0.0000       6.812251       185.3708 
 181   0.0000       6.812251       185.3708 
 182   0.0000       7.732705       210.4176 
 183   0.0000       7.732705       210.4176 
 184   0.0000       7.732705       210.4176 
 185   0.0000       7.737932       210.5598 
 186   0.0000       7.748770       210.8548 
 187   0.0000       7.748771       210.8548 
 188   0.0000       7.753180       210.9748 
 189   0.0000       8.029735       218.5002 
 190   0.0000       8.030693       218.5263 
 191   0.0000       8.030694       218.5263 
 192   0.0000       8.032258       218.5689 
 193   0.0000       8.037630       218.7150 
 194   0.0000       8.041109       218.8097 
 195   0.0000       8.041109       218.8097 
 196   0.0000       8.047117       218.9732 
 197   0.0000       8.047496       218.9835 
 198   0.0000       8.148525       221.7326 
 199   0.0000       8.170516       222.3310 
 200   0.0000       8.170517       222.3311 
 201   0.0000       9.893453       269.2145 

                 SPIN DOWN ORBITALS
  NO   OCC          E(Eh)            E(eV) 
   0   1.0000    -165.897819     -4514.3092 
   1   1.0000     -19.072254      -518.9824 
   2   1.0000     -15.671668      -426.4478 
   3   1.0000     -15.654185      -425.9720 
   4   1.0000     -15.654185      -425.9720 
   5   1.0000      -2.538603       -69.0789 
   6   1.0000      -1.575067       -42.8597 
   7   1.0000      -1.520992       -41.3883 
   8   1.0000      -1.520991       -41.3883 
   9   1.0000      -0.204513        -5.5651 
  10   0.0000       0.010787         0.2935 
  11   0.0000       0.013962         0.3799 
  12   0.0000       0.013963         0.3799 
  13   0.0000       0.020968         0.5706 
  14   0.0000       0.027056         0.7362 
  15   0.0000       0.027073         0.7367 
  16   0.0000       0.027073         0.7367 
  17   0.0000       0.027140         0.7385 
  18   0.0000       0.027178         0.7396 
  19   0.0000       0.042005         1.1430 
  20   0.0000       0.047188         1.2840 
  21   0.0000       0.047189         1.2841 
  22   0.0000       0.077580         2.1111 
  23   0.0000       0.078081         2.1247 
  24   0.0000       0.078082         2.1247 
  25   0.0000       0.079466         2.1624 
  26   0.0000       0.080575         2.1926 
  27   0.0000       0.106014         2.8848 
  28   0.0000       0.106042         2.8856 
  29   0.0000       0.106042         2.8856 
  30   0.0000       0.106105         2.8873 
  31   0.0000       0.106199         2.8898 
  32   0.0000       0.106368         2.8944 
  33   0.0000       0.106368         2.8944 
  34   0.0000       0.110988         3.0201 
  35   0.0000       0.142251         3.8709 
  36   0.0000       0.144373         3.9286 
  37   0.0000       0.144374         3.9286 
  38   0.0000       0.146490         3.9862 
  39   0.0000       0.153131         4.1669 
  40   0.0000       0.153430         4.1750 
  41   0.0000       0.153431         4.1751 
  42   0.0000       0.164619         4.4795 
  43   0.0000       0.258396         7.0313 
  44   0.0000       0.258427         7.0322 
  45   0.0000       0.258427         7.0322 
  46   0.0000       0.258476         7.0335 
  47   0.0000       0.258707         7.0398 
  48   0.0000       0.258863         7.0440 
  49   0.0000       0.258863         7.0440 
  50   0.0000       0.259247         7.0545 
  51   0.0000       0.259255         7.0547 
  52   0.0000       0.271393         7.3850 
  53   0.0000       0.274034         7.4568 
  54   0.0000       0.274034         7.4568 
  55   0.0000       0.281797         7.6681 
  56   0.0000       0.296425         8.0661 
  57   0.0000       0.357782         9.7357 
  58   0.0000       0.358106         9.7446 
  59   0.0000       0.358107         9.7446 
  60   0.0000       0.358789         9.7631 
  61   0.0000       0.360202         9.8016 
  62   0.0000       0.362195         9.8558 
  63   0.0000       0.362195         9.8558 
  64   0.0000       0.377683        10.2773 
  65   0.0000       0.431854        11.7514 
  66   0.0000       0.443476        12.0676 
  67   0.0000       0.443477        12.0676 
  68   0.0000       0.593217        16.1422 
  69   0.0000       0.593232        16.1427 
  70   0.0000       0.593232        16.1427 
  71   0.0000       0.593251        16.1432 
  72   0.0000       0.593857        16.1597 
  73   0.0000       0.594031        16.1644 
  74   0.0000       0.594031        16.1644 
  75   0.0000       0.594489        16.1769 
  76   0.0000       0.594566        16.1790 
  77   0.0000       0.595354        16.2004 
  78   0.0000       0.595354        16.2004 
  79   0.0000       0.637866        17.3572 
  80   0.0000       0.640422        17.4268 
  81   0.0000       0.640422        17.4268 
  82   0.0000       0.648470        17.6458 
  83   0.0000       0.661480        17.9998 
  84   0.0000       0.894950        24.3528 
  85   0.0000       0.895136        24.3579 
  86   0.0000       0.895137        24.3579 
  87   0.0000       0.895418        24.3656 
  88   0.0000       0.898194        24.4411 
  89   0.0000       0.899652        24.4808 
  90   0.0000       0.899653        24.4808 
  91   0.0000       0.903459        24.5844 
  92   0.0000       0.903635        24.5892 
  93   0.0000       1.007417        27.4132 
  94   0.0000       1.008500        27.4427 
  95   0.0000       1.008502        27.4427 
  96   0.0000       1.009481        27.4694 
  97   0.0000       1.009484        27.4695 
  98   0.0000       1.009485        27.4695 
  99   0.0000       1.009488        27.4696 
 100   0.0000       1.010439        27.4955 
 101   0.0000       1.010566        27.4989 
 102   0.0000       1.010566        27.4989 
 103   0.0000       1.010629        27.5006 
 104   0.0000       1.010873        27.5072 
 105   0.0000       1.011098        27.5134 
 106   0.0000       1.011720        27.5303 
 107   0.0000       1.011720        27.5303 
 108   0.0000       1.012811        27.5600 
 109   0.0000       1.012814        27.5601 
 110   0.0000       1.018282        27.7089 
 111   0.0000       1.026397        27.9297 
 112   0.0000       1.026397        27.9297 
 113   0.0000       1.136840        30.9350 
 114   0.0000       1.199979        32.6531 
 115   0.0000       1.220177        33.2027 
 116   0.0000       1.220179        33.2027 
 117   0.0000       1.580740        43.0141 
 118   0.0000       1.584146        43.1068 
 119   0.0000       1.584147        43.1068 
 120   0.0000       1.596108        43.4323 
 121   0.0000       1.615673        43.9647 
 122   0.0000       2.034099        55.3507 
 123   0.0000       2.034118        55.3512 
 124   0.0000       2.034119        55.3512 
 125   0.0000       2.034140        55.3518 
 126   0.0000       2.039421        55.4955 
 127   0.0000       2.040589        55.5273 
 128   0.0000       2.040590        55.5273 
 129   0.0000       2.043793        55.6144 
 130   0.0000       2.044570        55.6356 
 131   0.0000       2.050441        55.7953 
 132   0.0000       2.050441        55.7953 
 133   0.0000       2.703646        73.5699 
 134   0.0000       2.703964        73.5786 
 135   0.0000       2.703965        73.5786 
 136   0.0000       2.704404        73.5906 
 137   0.0000       2.715859        73.9023 
 138   0.0000       2.720541        74.0297 
 139   0.0000       2.720541        74.0297 
 140   0.0000       2.733773        74.3898 
 141   0.0000       2.734549        74.4109 
 142   0.0000       2.746096        74.7251 
 143   0.0000       2.747845        74.7727 
 144   0.0000       2.747845        74.7727 
 145   0.0000       2.751156        74.8628 
 146   0.0000       2.769623        75.3653 
 147   0.0000       2.786423        75.8224 
 148   0.0000       2.786423        75.8224 
 149   0.0000       3.258905        88.6793 
 150   0.0000       3.291012        89.5530 
 151   0.0000       3.291012        89.5530 
 152   0.0000       3.321460        90.3815 
 153   0.0000       4.021629       109.4341 
 154   0.0000       4.021713       109.4364 
 155   0.0000       4.021715       109.4364 
 156   0.0000       4.021798       109.4387 
 157   0.0000       4.029864       109.6582 
 158   0.0000       4.030747       109.6822 
 159   0.0000       4.030747       109.6822 
 160   0.0000       4.032875       109.7401 
 161   0.0000       4.034906       109.7954 
 162   0.0000       4.039575       109.9224 
 163   0.0000       4.039575       109.9224 
 164   0.0000       4.048038       110.1527 
 165   0.0000       4.048074       110.1537 
 166   0.0000       4.137266       112.5807 
 167   0.0000       4.141591       112.6984 
 168   0.0000       4.141591       112.6984 
 169   0.0000       4.156283       113.0982 
 170   0.0000       4.178965       113.7154 
 171   0.0000       6.792654       184.8375 
 172   0.0000       6.792859       184.8431 
 173   0.0000       6.792860       184.8431 
 174   0.0000       6.793050       184.8483 
 175   0.0000       6.809035       185.2833 
 176   0.0000       6.811984       185.3635 
 177   0.0000       6.811984       185.3635 
 178   0.0000       6.820345       185.5910 
 179   0.0000       6.822949       185.6619 
 180   0.0000       6.839165       186.1032 
 181   0.0000       6.839165       186.1032 
 182   0.0000       7.750083       210.8905 
 183   0.0000       7.752196       210.9480 
 184   0.0000       7.752196       210.9480 
 185   0.0000       7.756241       211.0580 
 186   0.0000       7.777258       211.6300 
 187   0.0000       7.797229       212.1734 
 188   0.0000       7.797229       212.1734 
 189   0.0000       8.039646       218.7699 
 190   0.0000       8.039958       218.7784 
 191   0.0000       8.039958       218.7784 
 192   0.0000       8.040376       218.7897 
 193   0.0000       8.060471       219.3366 
 194   0.0000       8.067999       219.5414 
 195   0.0000       8.067999       219.5414 
 196   0.0000       8.089828       220.1354 
 197   0.0000       8.091140       220.1711 
 198   0.0000       8.151758       221.8206 
 199   0.0000       8.186620       222.7693 
 200   0.0000       8.186620       222.7693 
 201   0.0000       9.903964       269.5006 

                    ********************************
                    * MULLIKEN POPULATION ANALYSIS *
                    ********************************

--------------------------------------------
MULLIKEN ATOMIC CHARGES AND SPIN POPULATIONS
--------------------------------------------
   0 Sc:   -0.000000    1.000000
Sum of atomic charges         :   -0.0000000
Sum of atomic spin populations:    1.0000000

-----------------------------------------------------
MULLIKEN REDUCED ORBITAL CHARGES AND SPIN POPULATIONS
-----------------------------------------------------
CHARGE
  0 Scs       :     7.994114  s :     7.994114
      pz      :     3.999486  p :    11.998899
      px      :     3.999661
      py      :     3.999752
      dz2     :     0.001455  d :     1.005822
      dxz     :     0.603893
      dyz     :     0.396104
      dx2y2   :     0.000189
      dxy     :     0.004181
      f0      :     0.000204  f :     0.001090
      f+1     :     0.000291
      f-1     :     0.000200
      f+2     :     0.000013
      f-2     :     0.000292
      f+3     :     0.000044
      f-3     :     0.000044
      g0      :     0.000029  g :     0.000065
      g+1     :     0.000000
      g-1     :     0.000000
      g+2     :     0.000001
      g-2     :     0.000031
      g+3     :     0.000001
      g-3     :     0.000002
      g+4     :     0.000000
      g-4     :     0.000000
      h0      :     0.000002  h :     0.000012
      h+1     :     0.000002
      h-1     :     0.000002
      h+2     :     0.000000
      h-2     :     0.000002
      h+3     :     0.000002
      h-3     :     0.000002
      h+4     :     0.000000
      h-4     :     0.000000
      h+5     :     0.000000
      h-5     :     0.000000
      i0      :     0.000000  i :     0.000000
      i+1     :     0.000000
      i-1     :     0.000000
      i+2     :     0.000000
      i-2     :     0.000000
      i+3     :     0.000000
      i-3     :     0.000000
      i+4     :     0.000000
      i-4     :     0.000000
      i+5     :     0.000000
      i-5     :     0.000000
      i+6     :     0.000000
      i-6     :     0.000000

SPIN
  0 Scs       :     0.004943  s :     0.004943
      pz      :    -0.000352  p :    -0.000650
      px      :    -0.000191
      py      :    -0.000107
      dz2     :    -0.001241  d :     0.995032
      dxz     :     0.603893
      dyz     :     0.396104
      dx2y2   :    -0.000161
      dxy     :    -0.003563
      f0      :     0.000201  f :     0.000653
      f+1     :     0.000227
      f-1     :     0.000142
      f+2     :     0.000007
      f-2     :     0.000146
      f+3     :    -0.000034
      f-3     :    -0.000035
      g0      :     0.000008  g :     0.000025
      g+1     :     0.000000
      g-1     :     0.000000
      g+2     :     0.000001
      g-2     :     0.000013
      g+3     :     0.000001
      g-3     :     0.000002
      g+4     :    -0.000000
      g-4     :    -0.000000
      h0      :    -0.000001  h :    -0.000004
      h+1     :    -0.000001
      h-1     :    -0.000000
      h+2     :    -0.000000
      h-2     :    -0.000001
      h+3     :    -0.000000
      h-3     :    -0.000000
      h+4     :    -0.000000
      h-4     :    -0.000000
      h+5     :    -0.000000
      h-5     :    -0.000000
      i0      :    -0.000000  i :     0.000000
      i+1     :     0.000000
      i-1     :     0.000000
      i+2     :    -0.000000
      i-2     :    -0.000000
      i+3     :     0.000000
      i-3     :     0.000000
      i+4     :    -0.000000
      i-4     :    -0.000000
      i+5     :     0.000000
      i-5     :     0.000000
      i+6     :    -0.000000
      i-6     :    -0.000000


                     *******************************
                     * LOEWDIN POPULATION ANALYSIS *
                     *******************************

-------------------------------------------
LOEWDIN ATOMIC CHARGES AND SPIN POPULATIONS
-------------------------------------------
   0 Sc:   -0.000000    1.000000

----------------------------------------------------
LOEWDIN REDUCED ORBITAL CHARGES AND SPIN POPULATIONS
----------------------------------------------------
CHARGE
  0 Scs       :     7.994114  s :     7.994114
      pz      :     3.999486  p :    11.998899
      px      :     3.999661
      py      :     3.999752
      dz2     :     0.001455  d :     1.005822
      dxz     :     0.603893
      dyz     :     0.396104
      dx2y2   :     0.000189
      dxy     :     0.004181
      f0      :     0.000204  f :     0.001090
      f+1     :     0.000291
      f-1     :     0.000200
      f+2     :     0.000013
      f-2     :     0.000292
      f+3     :     0.000044
      f-3     :     0.000044
      g0      :     0.000029  g :     0.000065
      g+1     :     0.000000
      g-1     :     0.000000
      g+2     :     0.000001
      g-2     :     0.000031
      g+3     :     0.000001
      g-3     :     0.000002
      g+4     :     0.000000
      g-4     :     0.000000
      h0      :     0.000002  h :     0.000012
      h+1     :     0.000002
      h-1     :     0.000002
      h+2     :     0.000000
      h-2     :     0.000002
      h+3     :     0.000002
      h-3     :     0.000002
      h+4     :     0.000000
      h-4     :     0.000000
      h+5     :     0.000000
      h-5     :     0.000000
      i0      :     0.000000  i :     0.000000
      i+1     :     0.000000
      i-1     :     0.000000
      i+2     :     0.000000
      i-2     :     0.000000
      i+3     :     0.000000
      i-3     :     0.000000
      i+4     :     0.000000
      i-4     :     0.000000
      i+5     :     0.000000
      i-5     :     0.000000
      i+6     :     0.000000
      i-6     :     0.000000

SPIN
  0 Scs       :     0.004943  s :     0.004943
      pz      :    -0.000352  p :    -0.000650
      px      :    -0.000191
      py      :    -0.000107
      dz2     :    -0.001241  d :     0.995032
      dxz     :     0.603893
      dyz     :     0.396104
      dx2y2   :    -0.000161
      dxy     :    -0.003563
      f0      :     0.000201  f :     0.000653
      f+1     :     0.000227
      f-1     :     0.000142
      f+2     :     0.000007
      f-2     :     0.000146
      f+3     :    -0.000034
      f-3     :    -0.000035
      g0      :     0.000008  g :     0.000025
      g+1     :     0.000000
      g-1     :     0.000000
      g+2     :     0.000001
      g-2     :     0.000013
      g+3     :     0.000001
      g-3     :     0.000002
      g+4     :    -0.000000
      g-4     :    -0.000000
      h0      :    -0.000001  h :    -0.000004
      h+1     :    -0.000001
      h-1     :    -0.000000
      h+2     :    -0.000000
      h-2     :    -0.000001
      h+3     :    -0.000000
      h-3     :    -0.000000
      h+4     :    -0.000000
      h-4     :    -0.000000
      h+5     :    -0.000000
      h-5     :    -0.000000
      i0      :    -0.000000  i :     0.000000
      i+1     :     0.000000
      i-1     :     0.000000
      i+2     :    -0.000000
      i-2     :    -0.000000
      i+3     :     0.000000
      i-3     :     0.000000
      i+4     :    -0.000000
      i-4     :    -0.000000
      i+5     :     0.000000
      i-5     :     0.000000
      i+6     :    -0.000000
      i-6     :    -0.000000


                      *****************************
                      * MAYER POPULATION ANALYSIS *
                      *****************************

  NA   - Mulliken gross atomic population
  ZA   - Total nuclear charge
  QA   - Mulliken gross atomic charge
  VA   - Mayer's total valence
  BVA  - Mayer's bonded valence
  FA   - Mayer's free valence

  ATOM       NA         ZA         QA         VA         BVA        FA
  0 Sc    21.0000    21.0000    -0.0000     1.0233     0.0000     1.0233

  Mayer bond orders larger than 0.100000


-------
TIMINGS
-------

Total SCF time: 0 days 0 hours 14 min 18 sec 

Total time                  ....     858.139 sec
Sum of individual times     ....     857.139 sec  ( 99.9%)

Fock matrix formation       ....     856.843 sec  ( 99.8%)
Diagonalization             ....       0.121 sec  (  0.0%)
Density matrix formation    ....       0.014 sec  (  0.0%)
Population analysis         ....       0.011 sec  (  0.0%)
Initial guess               ....       0.124 sec  (  0.0%)
Orbital Transformation      ....       0.000 sec  (  0.0%)
Orbital Orthonormalization  ....       0.000 sec  (  0.0%)
DIIS solution               ....       0.000 sec  (  0.0%)


           ************************************************************
           *        Program running with 24 parallel MPI-processes    *
           *              working on a common directory               *
           ************************************************************


------------------------------------------------------------------------------- 
                              ORCA-MATRIX DRIVEN CI                            
------------------------------------------------------------------------------- 

--------------------------------
AUTOMATIC CHOICE OF INCORE LEVEL
--------------------------------

Memory available                           ...   2500.00 MB
Memory needed for S+T                      ...     17.53 MB
Memory needed for J+K                      ...     35.13 MB
Memory needed for DIIS                     ...    245.49 MB
Memory needed for 3-ext                    ...    318.96 MB
Memory needed for 4-ext                    ...   5103.42 MB
Memory needed for triples                  ...    265.80 MB
 -> Final InCoreLevel    ... 4
 -> check shows that triples correction can be computed


Wavefunction type
-----------------
Correlation treatment                      ...      CCSD     
Single excitations                         ... ON
Orbital optimization                       ... OFF
Calculation of Z vector                    ... OFF
Calculation of Brueckner orbitals          ... OFF
Perturbative triple excitations            ... ON
Calculation of F12 correction              ... OFF
Frozen core treatment                      ... chemical core (10 el)
Reference Wavefunction                     ... UHF
  Alpha-MOs occ    :     5 ...   10 (  6 MO's/  6 electrons)
  Beta-MOs occ     :     5 ...    9 (  5 MO's/  5 electrons)
  Alpha-MOs virt   :    11 ...  201 (191 MO's              )
  Beta-MOs virt    :    10 ...  201 (192 MO's              )
Number of AO's                             ...    202
Number of electrons                        ...     21
Number of correlated electrons             ...     11

Algorithmic settings
--------------------
Integral transformation                    ... AO direct full transformation
K(C) Formation                             ... FULL-MO TRAFO
Maximum number of iterations               ...        50
Convergence tolerance (max. residuum)      ... 1.000e-05
Level shift for amplitude update           ... 2.000e-01
Maximum number of DIIS vectors             ...         7
DIIS turned on at iteration                ...         0
Damping before turning on DIIS             ...     0.500
Damping after turning on DIIS              ...     0.000
Pair specific amplitude update             ... OFF
Natural orbital iterations                 ... OFF
Perturbative natural orbital generation    ... OFF
Printlevel                                 ... 2

Memory handling:
----------------
Maximum memory for working arrays          ...   2500 MB
Data storage in matrix containers          ... UNCOMPRESSED
Data type for integral storage             ... DOUBLE
In-Core Storage of quantities:
   Amplitudes+Sigma Vector      ... YES
   J+K operators                ... YES
   DIIS vectors                 ... YES
   3-external integrals         ... YES
   4-external integrals         ... NO


Initializing the integral package          ... done
Warning: reference  - re-canonicalizations have been set to INT 1 VIRT 1

--------------------------
UNRESTRICTED FOCK OPERATOR
--------------------------

<ss|ss>:         1540 b            0 skpd (  0.0%)    0.828 s ( 0.537 ms/b)
<ss|sp>:         4950 b            0 skpd (  0.0%)    6.075 s ( 1.227 ms/b)
<ss|sd>:         3850 b            0 skpd (  0.0%)    3.251 s ( 0.844 ms/b)
<ss|sf>:         2750 b            2 skpd (  0.1%)    0.263 s ( 0.096 ms/b)
<ss|sg>:         2200 b            5 skpd (  0.2%)    0.269 s ( 0.122 ms/b)
<ss|sh>:         1650 b            5 skpd (  0.3%)    0.269 s ( 0.164 ms/b)
<ss|si>:         1100 b            5 skpd (  0.5%)    0.178 s ( 0.163 ms/b)
<ss|pp>:         2475 b            0 skpd (  0.0%)    3.209 s ( 1.296 ms/b)
<ss|pd>:         3465 b            2 skpd (  0.1%)    2.385 s ( 0.689 ms/b)
<ss|pf>:         2475 b            3 skpd (  0.1%)    0.223 s ( 0.090 ms/b)
<ss|pg>:         1980 b            8 skpd (  0.4%)    0.296 s ( 0.150 ms/b)
<ss|ph>:         1485 b            5 skpd (  0.3%)    0.310 s ( 0.209 ms/b)
<ss|pi>:          990 b            4 skpd (  0.4%)    0.242 s ( 0.246 ms/b)
<ss|dd>:         1540 b            0 skpd (  0.0%)    0.895 s ( 0.581 ms/b)
<ss|df>:         1925 b            0 skpd (  0.0%)    0.159 s ( 0.082 ms/b)
<ss|dg>:         1540 b            0 skpd (  0.0%)    0.149 s ( 0.097 ms/b)
<ss|dh>:         1155 b            0 skpd (  0.0%)    0.172 s ( 0.149 ms/b)
<ss|di>:          770 b            0 skpd (  0.0%)    0.207 s ( 0.269 ms/b)
<ss|ff>:          825 b            0 skpd (  0.0%)    0.011 s ( 0.013 ms/b)
<ss|fg>:         1100 b            1 skpd (  0.1%)    0.016 s ( 0.014 ms/b)
<ss|fh>:          825 b            1 skpd (  0.1%)    0.021 s ( 0.026 ms/b)
<ss|fi>:          550 b            2 skpd (  0.4%)    0.029 s ( 0.052 ms/b)
<ss|gg>:          550 b            0 skpd (  0.0%)    0.023 s ( 0.042 ms/b)
<ss|gh>:          660 b            0 skpd (  0.0%)    0.031 s ( 0.046 ms/b)
<ss|gi>:          440 b            0 skpd (  0.0%)    0.039 s ( 0.090 ms/b)
<ss|hh>:          330 b            0 skpd (  0.0%)    0.039 s ( 0.119 ms/b)
<ss|hi>:          330 b            0 skpd (  0.0%)    0.049 s ( 0.149 ms/b)
<ss|ii>:          165 b            0 skpd (  0.0%)    0.059 s ( 0.358 ms/b)
<sp|sp>:         4095 b            0 skpd (  0.0%)    4.812 s ( 1.175 ms/b)
<sp|sd>:         6300 b           20 skpd (  0.3%)    4.938 s ( 0.786 ms/b)
<sp|sf>:         4500 b           39 skpd (  0.9%)    0.424 s ( 0.095 ms/b)
<sp|sg>:         3600 b           56 skpd (  1.6%)    0.481 s ( 0.136 ms/b)
<sp|sh>:         2700 b           52 skpd (  1.9%)    0.520 s ( 0.196 ms/b)
<sp|si>:         1800 b           55 skpd (  3.1%)    0.388 s ( 0.222 ms/b)
<sp|pp>:         4050 b           18 skpd (  0.4%)    4.576 s ( 1.135 ms/b)
<sp|pd>:         5670 b            8 skpd (  0.1%)    3.538 s ( 0.625 ms/b)
<sp|pf>:         4050 b           67 skpd (  1.7%)    0.437 s ( 0.110 ms/b)
<sp|pg>:         3240 b           21 skpd (  0.6%)    0.594 s ( 0.185 ms/b)
<sp|ph>:         2430 b           61 skpd (  2.5%)    0.693 s ( 0.293 ms/b)
<sp|pi>:         1620 b           40 skpd (  2.5%)    0.539 s ( 0.341 ms/b)
<sp|dd>:         2520 b            0 skpd (  0.0%)    1.731 s ( 0.687 ms/b)
<sp|df>:         3150 b            7 skpd (  0.2%)    0.352 s ( 0.112 ms/b)
<sp|dg>:         2520 b            4 skpd (  0.2%)    0.309 s ( 0.123 ms/b)
<sp|dh>:         1890 b            3 skpd (  0.2%)    0.370 s ( 0.196 ms/b)
<sp|di>:         1260 b            2 skpd (  0.2%)    0.497 s ( 0.395 ms/b)
<sp|ff>:         1350 b           37 skpd (  2.7%)    0.026 s ( 0.019 ms/b)
<sp|fg>:         1800 b           15 skpd (  0.8%)    0.036 s ( 0.020 ms/b)
<sp|fh>:         1350 b           74 skpd (  5.5%)    0.051 s ( 0.040 ms/b)
<sp|fi>:          900 b           44 skpd (  4.9%)    0.064 s ( 0.075 ms/b)
<sp|gg>:          900 b            1 skpd (  0.1%)    0.052 s ( 0.058 ms/b)
<sp|gh>:         1080 b            7 skpd (  0.6%)    0.072 s ( 0.067 ms/b)
<sp|gi>:          720 b            5 skpd (  0.7%)    0.089 s ( 0.124 ms/b)
<sp|hh>:          540 b           23 skpd (  4.3%)    0.092 s ( 0.178 ms/b)
<sp|hi>:          540 b           23 skpd (  4.3%)    0.116 s ( 0.225 ms/b)
<sp|ii>:          270 b           10 skpd (  3.7%)    0.144 s ( 0.555 ms/b)
<sd|sd>:         2485 b           12 skpd (  0.5%)    1.347 s ( 0.545 ms/b)
<sd|sf>:         3500 b           40 skpd (  1.1%)    0.336 s ( 0.097 ms/b)
<sd|sg>:         2800 b           47 skpd (  1.7%)    0.358 s ( 0.130 ms/b)
<sd|sh>:         2100 b           42 skpd (  2.0%)    0.529 s ( 0.257 ms/b)
<sd|si>:         1400 b           42 skpd (  3.0%)    0.368 s ( 0.271 ms/b)
<sd|pp>:         3150 b           16 skpd (  0.5%)    2.745 s ( 0.876 ms/b)
<sd|pd>:         4410 b           65 skpd (  1.5%)    2.741 s ( 0.631 ms/b)
<sd|pf>:         3150 b           76 skpd (  2.4%)    0.368 s ( 0.120 ms/b)
<sd|pg>:         2520 b           80 skpd (  3.2%)    0.600 s ( 0.246 ms/b)
<sd|ph>:         1890 b           66 skpd (  3.5%)    0.831 s ( 0.456 ms/b)
<sd|pi>:         1260 b           61 skpd (  4.8%)    0.615 s ( 0.513 ms/b)
<sd|dd>:         1960 b            6 skpd (  0.3%)    1.463 s ( 0.749 ms/b)
<sd|df>:         2450 b           30 skpd (  1.2%)    0.385 s ( 0.159 ms/b)
<sd|dg>:         1960 b           21 skpd (  1.1%)    0.355 s ( 0.183 ms/b)
<sd|dh>:         1470 b           20 skpd (  1.4%)    0.467 s ( 0.322 ms/b)
<sd|di>:          980 b           13 skpd (  1.3%)    0.587 s ( 0.607 ms/b)
<sd|ff>:         1050 b           17 skpd (  1.6%)    0.033 s ( 0.032 ms/b)
<sd|fg>:         1400 b           40 skpd (  2.9%)    0.049 s ( 0.036 ms/b)
<sd|fh>:         1050 b           38 skpd (  3.6%)    0.068 s ( 0.067 ms/b)
<sd|fi>:          700 b           29 skpd (  4.1%)    0.084 s ( 0.125 ms/b)
<sd|gg>:          700 b            6 skpd (  0.9%)    0.072 s ( 0.103 ms/b)
<sd|gh>:          840 b           14 skpd (  1.7%)    0.096 s ( 0.116 ms/b)
<sd|gi>:          560 b           12 skpd (  2.1%)    0.118 s ( 0.216 ms/b)
<sd|hh>:          420 b            5 skpd (  1.2%)    0.125 s ( 0.301 ms/b)
<sd|hi>:          420 b            7 skpd (  1.7%)    0.150 s ( 0.364 ms/b)
<sd|ii>:          210 b            1 skpd (  0.5%)    0.189 s ( 0.905 ms/b)
<sf|sf>:         1275 b           39 skpd (  3.1%)    0.028 s ( 0.023 ms/b)
<sf|sg>:         2000 b           73 skpd (  3.6%)    0.057 s ( 0.029 ms/b)
<sf|sh>:         1500 b           65 skpd (  4.3%)    0.099 s ( 0.069 ms/b)
<sf|si>:         1000 b           58 skpd (  5.8%)    0.075 s ( 0.080 ms/b)
<sf|pp>:         2250 b           63 skpd (  2.8%)    0.433 s ( 0.198 ms/b)
<sf|pd>:         3150 b           73 skpd (  2.3%)    0.459 s ( 0.149 ms/b)
<sf|pf>:         2250 b          173 skpd (  7.7%)    0.061 s ( 0.029 ms/b)
<sf|pg>:         1800 b          110 skpd (  6.1%)    0.115 s ( 0.068 ms/b)
<sf|ph>:         1350 b          148 skpd ( 11.0%)    0.170 s ( 0.141 ms/b)
<sf|pi>:          900 b           97 skpd ( 10.8%)    0.124 s ( 0.155 ms/b)
<sf|dd>:         1400 b            8 skpd (  0.6%)    0.269 s ( 0.193 ms/b)
<sf|df>:         1750 b           46 skpd (  2.6%)    0.078 s ( 0.046 ms/b)
<sf|dg>:         1400 b           38 skpd (  2.7%)    0.078 s ( 0.057 ms/b)
<sf|dh>:         1050 b           30 skpd (  2.9%)    0.099 s ( 0.097 ms/b)
<sf|di>:          700 b           21 skpd (  3.0%)    0.130 s ( 0.192 ms/b)
<sf|ff>:          750 b           62 skpd (  8.3%)    0.008 s ( 0.012 ms/b)
<sf|fg>:         1000 b           62 skpd (  6.2%)    0.012 s ( 0.013 ms/b)
<sf|fh>:          750 b          123 skpd ( 16.4%)    0.015 s ( 0.024 ms/b)
<sf|fi>:          500 b           70 skpd ( 14.0%)    0.019 s ( 0.043 ms/b)
<sf|gg>:          500 b           16 skpd (  3.2%)    0.017 s ( 0.036 ms/b)
<sf|gh>:          600 b           30 skpd (  5.0%)    0.023 s ( 0.041 ms/b)
<sf|gi>:          400 b           24 skpd (  6.0%)    0.028 s ( 0.074 ms/b)
<sf|hh>:          300 b           41 skpd ( 13.7%)    0.029 s ( 0.113 ms/b)
<sf|hi>:          300 b           35 skpd ( 11.7%)    0.034 s ( 0.127 ms/b)
<sf|ii>:          150 b           19 skpd ( 12.7%)    0.041 s ( 0.310 ms/b)
<sg|sg>:          820 b           35 skpd (  4.3%)    0.063 s ( 0.080 ms/b)
<sg|sh>:         1200 b           59 skpd (  4.9%)    0.172 s ( 0.151 ms/b)
<sg|si>:          800 b           52 skpd (  6.5%)    0.126 s ( 0.169 ms/b)
<sg|pp>:         1800 b           48 skpd (  2.7%)    0.619 s ( 0.353 ms/b)
<sg|pd>:         2520 b          108 skpd (  4.3%)    0.684 s ( 0.284 ms/b)
<sg|pf>:         1800 b          130 skpd (  7.2%)    0.095 s ( 0.057 ms/b)
<sg|pg>:         1440 b          127 skpd (  8.8%)    0.188 s ( 0.143 ms/b)
<sg|ph>:         1080 b           99 skpd (  9.2%)    0.281 s ( 0.287 ms/b)
<sg|pi>:          720 b           86 skpd ( 11.9%)    0.212 s ( 0.334 ms/b)
<sg|dd>:         1120 b           13 skpd (  1.2%)    0.418 s ( 0.377 ms/b)
<sg|df>:         1400 b           51 skpd (  3.6%)    0.130 s ( 0.096 ms/b)
<sg|dg>:         1120 b           40 skpd (  3.6%)    0.126 s ( 0.117 ms/b)
<sg|dh>:          840 b           34 skpd (  4.0%)    0.171 s ( 0.212 ms/b)
<sg|di>:          560 b           22 skpd (  3.9%)    0.223 s ( 0.415 ms/b)
<sg|ff>:          600 b           36 skpd (  6.0%)    0.013 s ( 0.023 ms/b)
<sg|fg>:          800 b           66 skpd (  8.2%)    0.019 s ( 0.026 ms/b)
<sg|fh>:          600 b           62 skpd ( 10.3%)    0.024 s ( 0.045 ms/b)
<sg|fi>:          400 b           46 skpd ( 11.5%)    0.031 s ( 0.088 ms/b)
<sg|gg>:          400 b           15 skpd (  3.8%)    0.029 s ( 0.074 ms/b)
<sg|gh>:          480 b           31 skpd (  6.5%)    0.037 s ( 0.082 ms/b)
<sg|gi>:          320 b           22 skpd (  6.9%)    0.046 s ( 0.154 ms/b)
<sg|hh>:          240 b           15 skpd (  6.2%)    0.047 s ( 0.207 ms/b)
<sg|hi>:          240 b           19 skpd (  7.9%)    0.054 s ( 0.246 ms/b)
<sg|ii>:          120 b            7 skpd (  5.8%)    0.071 s ( 0.628 ms/b)
<sh|sh>:          465 b           28 skpd (  6.0%)    0.138 s ( 0.315 ms/b)
<sh|si>:          600 b           48 skpd (  8.0%)    0.171 s ( 0.310 ms/b)
<sh|pp>:         1350 b           60 skpd (  4.4%)    0.829 s ( 0.642 ms/b)
<sh|pd>:         1890 b           94 skpd (  5.0%)    0.996 s ( 0.555 ms/b)
<sh|pf>:         1350 b          172 skpd ( 12.7%)    0.140 s ( 0.119 ms/b)
<sh|pg>:         1080 b          107 skpd (  9.9%)    0.266 s ( 0.273 ms/b)
<sh|ph>:          810 b          145 skpd ( 17.9%)    0.382 s ( 0.575 ms/b)
<sh|pi>:          540 b           93 skpd ( 17.2%)    0.288 s ( 0.644 ms/b)
<sh|dd>:          840 b           13 skpd (  1.5%)    0.626 s ( 0.757 ms/b)
<sh|df>:         1050 b           49 skpd (  4.7%)    0.182 s ( 0.181 ms/b)
<sh|dg>:          840 b           39 skpd (  4.6%)    0.178 s ( 0.223 ms/b)
<sh|dh>:          630 b           35 skpd (  5.6%)    0.231 s ( 0.388 ms/b)
<sh|di>:          420 b           20 skpd (  4.8%)    0.299 s ( 0.748 ms/b)
<sh|ff>:          450 b           55 skpd ( 12.2%)    0.018 s ( 0.045 ms/b)
<sh|fg>:          600 b           62 skpd ( 10.3%)    0.027 s ( 0.050 ms/b)
<sh|fh>:          450 b          112 skpd ( 24.9%)    0.033 s ( 0.098 ms/b)
<sh|fi>:          300 b           71 skpd ( 23.7%)    0.039 s ( 0.171 ms/b)
<sh|gg>:          300 b           15 skpd (  5.0%)    0.040 s ( 0.139 ms/b)
<sh|gh>:          360 b           31 skpd (  8.6%)    0.050 s ( 0.151 ms/b)
<sh|gi>:          240 b           24 skpd ( 10.0%)    0.061 s ( 0.281 ms/b)
<sh|hh>:          180 b           43 skpd ( 23.9%)    0.062 s ( 0.456 ms/b)
<sh|hi>:          180 b           36 skpd ( 20.0%)    0.067 s ( 0.465 ms/b)
<sh|ii>:           90 b           16 skpd ( 17.8%)    0.078 s ( 1.050 ms/b)
<si|si>:          210 b           22 skpd ( 10.5%)    0.183 s ( 0.973 ms/b)
<si|pp>:          900 b           58 skpd (  6.4%)    0.945 s ( 1.123 ms/b)
<si|pd>:         1260 b           95 skpd (  7.5%)    1.198 s ( 1.028 ms/b)
<si|pf>:          900 b          139 skpd ( 15.4%)    0.174 s ( 0.228 ms/b)
<si|pg>:          720 b          107 skpd ( 14.9%)    0.288 s ( 0.470 ms/b)
<si|ph>:          540 b          113 skpd ( 20.9%)    0.391 s ( 0.916 ms/b)
<si|pi>:          360 b          128 skpd ( 35.6%)    0.251 s ( 1.081 ms/b)
<si|dd>:          560 b           15 skpd (  2.7%)    0.778 s ( 1.427 ms/b)
<si|df>:          700 b           51 skpd (  7.3%)    0.213 s ( 0.327 ms/b)
<si|dg>:          560 b           38 skpd (  6.8%)    0.203 s ( 0.389 ms/b)
<si|dh>:          420 b           34 skpd (  8.1%)    0.261 s ( 0.677 ms/b)
<si|di>:          280 b           20 skpd (  7.1%)    0.330 s ( 1.268 ms/b)
<si|ff>:          300 b           54 skpd ( 18.0%)    0.020 s ( 0.080 ms/b)
<si|fg>:          400 b           60 skpd ( 15.0%)    0.029 s ( 0.084 ms/b)
<si|fh>:          300 b           80 skpd ( 26.7%)    0.036 s ( 0.162 ms/b)
<si|fi>:          200 b           71 skpd ( 35.5%)    0.037 s ( 0.290 ms/b)
<si|gg>:          200 b           18 skpd (  9.0%)    0.044 s ( 0.244 ms/b)
<si|gh>:          240 b           31 skpd ( 12.9%)    0.053 s ( 0.255 ms/b)
<si|gi>:          160 b           20 skpd ( 12.5%)    0.067 s ( 0.476 ms/b)
<si|hh>:          120 b           26 skpd ( 21.7%)    0.065 s ( 0.688 ms/b)
<si|hi>:          120 b           33 skpd ( 27.5%)    0.067 s ( 0.766 ms/b)
<si|ii>:           60 b           12 skpd ( 20.0%)    0.080 s ( 1.657 ms/b)
<pp|pp>:         1035 b            0 skpd (  0.0%)    1.852 s ( 1.789 ms/b)
<pp|pd>:         2835 b            0 skpd (  0.0%)    2.655 s ( 0.937 ms/b)
<pp|pf>:         2025 b            0 skpd (  0.0%)    0.349 s ( 0.173 ms/b)
<pp|pg>:         1620 b            2 skpd (  0.1%)    0.544 s ( 0.336 ms/b)
<pp|ph>:         1215 b            0 skpd (  0.0%)    0.810 s ( 0.667 ms/b)
<pp|pi>:          810 b            1 skpd (  0.1%)    0.575 s ( 0.711 ms/b)
<pp|dd>:         1260 b            0 skpd (  0.0%)    1.323 s ( 1.050 ms/b)
<pp|df>:         1575 b            1 skpd (  0.1%)    0.367 s ( 0.233 ms/b)
<pp|dg>:         1260 b            3 skpd (  0.2%)    0.315 s ( 0.251 ms/b)
<pp|dh>:          945 b            1 skpd (  0.1%)    0.446 s ( 0.472 ms/b)
<pp|di>:          630 b            3 skpd (  0.5%)    0.565 s ( 0.901 ms/b)
<pp|ff>:          675 b            0 skpd (  0.0%)    0.030 s ( 0.045 ms/b)
<pp|fg>:          900 b            7 skpd (  0.8%)    0.042 s ( 0.047 ms/b)
<pp|fh>:          675 b            1 skpd (  0.1%)    0.058 s ( 0.085 ms/b)
<pp|fi>:          450 b            2 skpd (  0.4%)    0.075 s ( 0.167 ms/b)
<pp|gg>:          450 b            2 skpd (  0.4%)    0.063 s ( 0.142 ms/b)
<pp|gh>:          540 b            4 skpd (  0.7%)    0.081 s ( 0.151 ms/b)
<pp|gi>:          360 b            4 skpd (  1.1%)    0.103 s ( 0.290 ms/b)
<pp|hh>:          270 b            0 skpd (  0.0%)    0.120 s ( 0.446 ms/b)
<pp|hi>:          270 b            0 skpd (  0.0%)    0.149 s ( 0.551 ms/b)
<pp|ii>:          135 b            0 skpd (  0.0%)    0.177 s ( 1.311 ms/b)
<pd|pd>:         2016 b            1 skpd (  0.0%)    2.678 s ( 1.329 ms/b)
<pd|pf>:         2835 b           14 skpd (  0.5%)    0.540 s ( 0.191 ms/b)
<pd|pg>:         2268 b            9 skpd (  0.4%)    0.988 s ( 0.438 ms/b)
<pd|ph>:         1701 b           19 skpd (  1.1%)    1.557 s ( 0.926 ms/b)
<pd|pi>:         1134 b           12 skpd (  1.1%)    1.155 s ( 1.030 ms/b)
<pd|dd>:         1764 b           19 skpd (  1.1%)    2.157 s ( 1.236 ms/b)
<pd|df>:         2205 b           12 skpd (  0.5%)    0.680 s ( 0.310 ms/b)
<pd|dg>:         1764 b           52 skpd (  2.9%)    0.572 s ( 0.334 ms/b)
<pd|dh>:         1323 b           24 skpd (  1.8%)    0.814 s ( 0.627 ms/b)
<pd|di>:          882 b           35 skpd (  4.0%)    1.104 s ( 1.303 ms/b)
<pd|ff>:          945 b            8 skpd (  0.8%)    0.055 s ( 0.059 ms/b)
<pd|fg>:         1260 b           21 skpd (  1.7%)    0.081 s ( 0.065 ms/b)
<pd|fh>:          945 b           44 skpd (  4.7%)    0.117 s ( 0.129 ms/b)
<pd|fi>:          630 b           27 skpd (  4.3%)    0.148 s ( 0.245 ms/b)
<pd|gg>:          630 b           13 skpd (  2.1%)    0.120 s ( 0.194 ms/b)
<pd|gh>:          756 b           14 skpd (  1.9%)    0.161 s ( 0.217 ms/b)
<pd|gi>:          504 b           31 skpd (  6.2%)    0.202 s ( 0.428 ms/b)
<pd|hh>:          378 b            6 skpd (  1.6%)    0.219 s ( 0.588 ms/b)
<pd|hi>:          378 b            7 skpd (  1.9%)    0.277 s ( 0.748 ms/b)
<pd|ii>:          189 b           10 skpd (  5.3%)    0.352 s ( 1.966 ms/b)
<pf|pf>:         1035 b            2 skpd (  0.2%)    0.059 s ( 0.057 ms/b)
<pf|pg>:         1620 b           25 skpd (  1.5%)    0.179 s ( 0.113 ms/b)
<pf|ph>:         1215 b            6 skpd (  0.5%)    0.288 s ( 0.239 ms/b)
<pf|pi>:          810 b            8 skpd (  1.0%)    0.215 s ( 0.268 ms/b)
<pf|dd>:         1260 b           10 skpd (  0.8%)    0.359 s ( 0.287 ms/b)
<pf|df>:         1575 b           30 skpd (  1.9%)    0.117 s ( 0.076 ms/b)
<pf|dg>:         1260 b           42 skpd (  3.3%)    0.108 s ( 0.089 ms/b)
<pf|dh>:          945 b           48 skpd (  5.1%)    0.153 s ( 0.170 ms/b)
<pf|di>:          630 b           30 skpd (  4.8%)    0.205 s ( 0.341 ms/b)
<pf|ff>:          675 b            3 skpd (  0.4%)    0.012 s ( 0.019 ms/b)
<pf|fg>:          900 b           40 skpd (  4.4%)    0.018 s ( 0.021 ms/b)
<pf|fh>:          675 b           14 skpd (  2.1%)    0.025 s ( 0.038 ms/b)
<pf|fi>:          450 b           21 skpd (  4.7%)    0.032 s ( 0.075 ms/b)
<pf|gg>:          450 b           20 skpd (  4.4%)    0.026 s ( 0.060 ms/b)
<pf|gh>:          540 b           30 skpd (  5.6%)    0.035 s ( 0.069 ms/b)
<pf|gi>:          360 b           30 skpd (  8.3%)    0.044 s ( 0.132 ms/b)
<pf|hh>:          270 b            2 skpd (  0.7%)    0.047 s ( 0.176 ms/b)
<pf|hi>:          270 b            8 skpd (  3.0%)    0.060 s ( 0.230 ms/b)
<pf|ii>:          135 b            3 skpd (  2.2%)    0.078 s ( 0.593 ms/b)
<pg|pg>:          666 b            8 skpd (  1.2%)    0.161 s ( 0.244 ms/b)
<pg|ph>:          972 b           27 skpd (  2.8%)    0.445 s ( 0.470 ms/b)
<pg|pi>:          648 b           20 skpd (  3.1%)    0.335 s ( 0.534 ms/b)
<pg|dd>:         1008 b           19 skpd (  1.9%)    0.591 s ( 0.597 ms/b)
<pg|df>:         1260 b           28 skpd (  2.2%)    0.186 s ( 0.151 ms/b)
<pg|dg>:         1008 b           48 skpd (  4.8%)    0.174 s ( 0.181 ms/b)
<pg|dh>:          756 b           31 skpd (  4.1%)    0.229 s ( 0.316 ms/b)
<pg|di>:          504 b           45 skpd (  8.9%)    0.308 s ( 0.671 ms/b)
<pg|ff>:          540 b           18 skpd (  3.3%)    0.017 s ( 0.032 ms/b)
<pg|fg>:          720 b           30 skpd (  4.2%)    0.026 s ( 0.038 ms/b)
<pg|fh>:          540 b           45 skpd (  8.3%)    0.035 s ( 0.071 ms/b)
<pg|fi>:          360 b           34 skpd (  9.4%)    0.046 s ( 0.142 ms/b)
<pg|gg>:          360 b           20 skpd (  5.6%)    0.037 s ( 0.109 ms/b)
<pg|gh>:          432 b           24 skpd (  5.6%)    0.051 s ( 0.125 ms/b)
<pg|gi>:          288 b           31 skpd ( 10.8%)    0.063 s ( 0.244 ms/b)
<pg|hh>:          216 b           12 skpd (  5.6%)    0.068 s ( 0.333 ms/b)
<pg|hi>:          216 b           17 skpd (  7.9%)    0.087 s ( 0.435 ms/b)
<pg|ii>:          108 b           12 skpd ( 11.1%)    0.100 s ( 1.038 ms/b)
<ph|ph>:          378 b            7 skpd (  1.9%)    0.331 s ( 0.892 ms/b)
<ph|pi>:          486 b           15 skpd (  3.1%)    0.425 s ( 0.903 ms/b)
<ph|dd>:          756 b           14 skpd (  1.9%)    0.848 s ( 1.143 ms/b)
<ph|df>:          945 b           47 skpd (  5.0%)    0.246 s ( 0.274 ms/b)
<ph|dg>:          756 b           45 skpd (  6.0%)    0.223 s ( 0.314 ms/b)
<ph|dh>:          567 b           56 skpd (  9.9%)    0.298 s ( 0.584 ms/b)
<ph|di>:          378 b           40 skpd ( 10.6%)    0.404 s ( 1.196 ms/b)
<ph|ff>:          405 b            5 skpd (  1.2%)    0.022 s ( 0.055 ms/b)
<ph|fg>:          540 b           43 skpd (  8.0%)    0.033 s ( 0.065 ms/b)
<ph|fh>:          405 b           21 skpd (  5.2%)    0.045 s ( 0.118 ms/b)
<ph|fi>:          270 b           25 skpd (  9.3%)    0.059 s ( 0.240 ms/b)
<ph|gg>:          270 b           16 skpd (  5.9%)    0.047 s ( 0.186 ms/b)
<ph|gh>:          324 b           32 skpd (  9.9%)    0.064 s ( 0.219 ms/b)
<ph|gi>:          216 b           32 skpd ( 14.8%)    0.076 s ( 0.414 ms/b)
<ph|hh>:          162 b            4 skpd (  2.5%)    0.087 s ( 0.549 ms/b)
<ph|hi>:          162 b           11 skpd (  6.8%)    0.108 s ( 0.718 ms/b)
<ph|ii>:           81 b            6 skpd (  7.4%)    0.133 s ( 1.778 ms/b)
<pi|pi>:          171 b            8 skpd (  4.7%)    0.444 s ( 2.726 ms/b)
<pi|dd>:          504 b           20 skpd (  4.0%)    1.011 s ( 2.090 ms/b)
<pi|df>:          630 b           30 skpd (  4.8%)    0.279 s ( 0.464 ms/b)
<pi|dg>:          504 b           64 skpd ( 12.7%)    0.243 s ( 0.553 ms/b)
<pi|dh>:          378 b           40 skpd ( 10.6%)    0.328 s ( 0.970 ms/b)
<pi|di>:          252 b           78 skpd ( 31.0%)    0.442 s ( 2.541 ms/b)
<pi|ff>:          270 b            8 skpd (  3.0%)    0.023 s ( 0.089 ms/b)
<pi|fg>:          360 b           35 skpd (  9.7%)    0.035 s ( 0.106 ms/b)
<pi|fh>:          270 b           24 skpd (  8.9%)    0.047 s ( 0.192 ms/b)
<pi|fi>:          180 b           24 skpd ( 13.3%)    0.063 s ( 0.402 ms/b)
<pi|gg>:          180 b           26 skpd ( 14.4%)    0.050 s ( 0.322 ms/b)
<pi|gh>:          216 b           28 skpd ( 13.0%)    0.067 s ( 0.354 ms/b)
<pi|gi>:          144 b           59 skpd ( 41.0%)    0.073 s ( 0.863 ms/b)
<pi|hh>:          108 b            8 skpd (  7.4%)    0.089 s ( 0.895 ms/b)
<pi|hi>:          108 b           17 skpd ( 15.7%)    0.113 s ( 1.239 ms/b)
<pi|ii>:           54 b           30 skpd ( 55.6%)    0.115 s ( 4.810 ms/b)
<dd|dd>:          406 b            0 skpd (  0.0%)    1.000 s ( 2.462 ms/b)
<dd|df>:          980 b            6 skpd (  0.6%)    0.351 s ( 0.360 ms/b)
<dd|dg>:          784 b            0 skpd (  0.0%)    0.326 s ( 0.415 ms/b)
<dd|dh>:          588 b            2 skpd (  0.3%)    0.461 s ( 0.788 ms/b)
<dd|di>:          392 b            0 skpd (  0.0%)    0.609 s ( 1.553 ms/b)
<dd|ff>:          420 b            2 skpd (  0.5%)    0.031 s ( 0.073 ms/b)
<dd|fg>:          560 b            7 skpd (  1.2%)    0.047 s ( 0.084 ms/b)
<dd|fh>:          420 b            7 skpd (  1.7%)    0.065 s ( 0.157 ms/b)
<dd|fi>:          280 b            8 skpd (  2.9%)    0.085 s ( 0.313 ms/b)
<dd|gg>:          280 b            0 skpd (  0.0%)    0.068 s ( 0.245 ms/b)
<dd|gh>:          336 b            0 skpd (  0.0%)    0.093 s ( 0.277 ms/b)
<dd|gi>:          224 b            0 skpd (  0.0%)    0.118 s ( 0.529 ms/b)
<dd|hh>:          168 b            0 skpd (  0.0%)    0.124 s ( 0.741 ms/b)
<dd|hi>:          168 b            0 skpd (  0.0%)    0.158 s ( 0.941 ms/b)
<dd|ii>:           84 b            0 skpd (  0.0%)    0.204 s ( 2.433 ms/b)
<df|df>:          630 b           11 skpd (  1.7%)    0.063 s ( 0.101 ms/b)
<df|dg>:          980 b           27 skpd (  2.8%)    0.096 s ( 0.100 ms/b)
<df|dh>:          735 b           21 skpd (  2.9%)    0.130 s ( 0.182 ms/b)
<df|di>:          490 b           21 skpd (  4.3%)    0.179 s ( 0.381 ms/b)
<df|ff>:          525 b           12 skpd (  2.3%)    0.012 s ( 0.023 ms/b)
<df|fg>:          700 b           29 skpd (  4.1%)    0.017 s ( 0.025 ms/b)
<df|fh>:          525 b           52 skpd (  9.9%)    0.024 s ( 0.050 ms/b)
<df|fi>:          350 b           30 skpd (  8.6%)    0.031 s ( 0.096 ms/b)
<df|gg>:          350 b            9 skpd (  2.6%)    0.025 s ( 0.073 ms/b)
<df|gh>:          420 b           18 skpd (  4.3%)    0.034 s ( 0.084 ms/b)
<df|gi>:          280 b           18 skpd (  6.4%)    0.042 s ( 0.161 ms/b)
<df|hh>:          210 b           12 skpd (  5.7%)    0.046 s ( 0.232 ms/b)
<df|hi>:          210 b           10 skpd (  4.8%)    0.059 s ( 0.294 ms/b)
<df|ii>:          105 b            9 skpd (  8.6%)    0.075 s ( 0.778 ms/b)
<dg|dg>:          406 b            6 skpd (  1.5%)    0.121 s ( 0.301 ms/b)
<dg|dh>:          588 b           18 skpd (  3.1%)    0.179 s ( 0.314 ms/b)
<dg|di>:          392 b            7 skpd (  1.8%)    0.245 s ( 0.636 ms/b)
<dg|ff>:          420 b           16 skpd (  3.8%)    0.015 s ( 0.037 ms/b)
<dg|fg>:          560 b           28 skpd (  5.0%)    0.022 s ( 0.042 ms/b)
<dg|fh>:          420 b           32 skpd (  7.6%)    0.030 s ( 0.078 ms/b)
<dg|fi>:          280 b           33 skpd ( 11.8%)    0.039 s ( 0.159 ms/b)
<dg|gg>:          280 b            4 skpd (  1.4%)    0.033 s ( 0.121 ms/b)
<dg|gh>:          336 b           13 skpd (  3.9%)    0.044 s ( 0.137 ms/b)
<dg|gi>:          224 b            6 skpd (  2.7%)    0.057 s ( 0.260 ms/b)
<dg|hh>:          168 b            2 skpd (  1.2%)    0.060 s ( 0.359 ms/b)
<dg|hi>:          168 b            7 skpd (  4.2%)    0.076 s ( 0.473 ms/b)
<dg|ii>:           84 b            0 skpd (  0.0%)    0.100 s ( 1.189 ms/b)
<dh|dh>:          231 b           13 skpd (  5.6%)    0.218 s ( 0.998 ms/b)
<dh|di>:          294 b           13 skpd (  4.4%)    0.299 s ( 1.064 ms/b)
<dh|ff>:          315 b           15 skpd (  4.8%)    0.018 s ( 0.059 ms/b)
<dh|fg>:          420 b           26 skpd (  6.2%)    0.026 s ( 0.065 ms/b)
<dh|fh>:          315 b           51 skpd ( 16.2%)    0.036 s ( 0.136 ms/b)
<dh|fi>:          210 b           35 skpd ( 16.7%)    0.047 s ( 0.266 ms/b)
<dh|gg>:          210 b            4 skpd (  1.9%)    0.038 s ( 0.185 ms/b)
<dh|gh>:          252 b           16 skpd (  6.3%)    0.052 s ( 0.220 ms/b)
<dh|gi>:          168 b           12 skpd (  7.1%)    0.064 s ( 0.412 ms/b)
<dh|hh>:          126 b           20 skpd ( 15.9%)    0.071 s ( 0.671 ms/b)
<dh|hi>:          126 b           15 skpd ( 11.9%)    0.088 s ( 0.797 ms/b)
<dh|ii>:           63 b            7 skpd ( 11.1%)    0.115 s ( 2.050 ms/b)
<di|di>:          105 b            3 skpd (  2.9%)    0.302 s ( 2.965 ms/b)
<di|ff>:          210 b           17 skpd (  8.1%)    0.018 s ( 0.092 ms/b)
<di|fg>:          280 b           27 skpd (  9.6%)    0.026 s ( 0.102 ms/b)
<di|fh>:          210 b           36 skpd ( 17.1%)    0.035 s ( 0.200 ms/b)
<di|fi>:          140 b           44 skpd ( 31.4%)    0.046 s ( 0.476 ms/b)
<di|gg>:          140 b            4 skpd (  2.9%)    0.037 s ( 0.272 ms/b)
<di|gh>:          168 b           11 skpd (  6.5%)    0.050 s ( 0.321 ms/b)
<di|gi>:          112 b            8 skpd (  7.1%)    0.065 s ( 0.627 ms/b)
<di|hh>:           84 b           11 skpd ( 13.1%)    0.068 s ( 0.928 ms/b)
<di|hi>:           84 b           17 skpd ( 20.2%)    0.086 s ( 1.278 ms/b)
<di|ii>:           42 b            4 skpd (  9.5%)    0.113 s ( 2.982 ms/b)
<ff|ff>:          120 b            1 skpd (  0.8%)    0.003 s ( 0.023 ms/b)
<ff|fg>:          300 b           20 skpd (  6.7%)    0.005 s ( 0.017 ms/b)
<ff|fh>:          225 b            7 skpd (  3.1%)    0.006 s ( 0.028 ms/b)
<ff|fi>:          150 b           10 skpd (  6.7%)    0.008 s ( 0.059 ms/b)
<ff|gg>:          150 b            6 skpd (  4.0%)    0.007 s ( 0.047 ms/b)
<ff|gh>:          180 b            9 skpd (  5.0%)    0.010 s ( 0.056 ms/b)
<ff|gi>:          120 b           12 skpd ( 10.0%)    0.012 s ( 0.113 ms/b)
<ff|hh>:           90 b            0 skpd (  0.0%)    0.013 s ( 0.149 ms/b)
<ff|hi>:           90 b            3 skpd (  3.3%)    0.018 s ( 0.202 ms/b)
<ff|ii>:           45 b            0 skpd (  0.0%)    0.024 s ( 0.527 ms/b)
<fg|fg>:          210 b           17 skpd (  8.1%)    0.009 s ( 0.046 ms/b)
<fg|fh>:          300 b           44 skpd ( 14.7%)    0.013 s ( 0.049 ms/b)
<fg|fi>:          200 b           36 skpd ( 18.0%)    0.017 s ( 0.104 ms/b)
<fg|gg>:          200 b           12 skpd (  6.0%)    0.015 s ( 0.078 ms/b)
<fg|gh>:          240 b           18 skpd (  7.5%)    0.020 s ( 0.091 ms/b)
<fg|gi>:          160 b           20 skpd ( 12.5%)    0.024 s ( 0.175 ms/b)
<fg|hh>:          120 b           11 skpd (  9.2%)    0.027 s ( 0.249 ms/b)
<fg|hi>:          120 b           20 skpd ( 16.7%)    0.034 s ( 0.340 ms/b)
<fg|ii>:           60 b            9 skpd ( 15.0%)    0.047 s ( 0.922 ms/b)
<fh|fh>:          120 b           10 skpd (  8.3%)    0.014 s ( 0.124 ms/b)
<fh|fi>:          150 b           24 skpd ( 16.0%)    0.018 s ( 0.141 ms/b)
<fh|gg>:          150 b           14 skpd (  9.3%)    0.014 s ( 0.104 ms/b)
<fh|gh>:          180 b           34 skpd ( 18.9%)    0.022 s ( 0.148 ms/b)
<fh|gi>:          120 b           33 skpd ( 27.5%)    0.023 s ( 0.266 ms/b)
<fh|hh>:           90 b            3 skpd (  3.3%)    0.031 s ( 0.353 ms/b)
<fh|hi>:           90 b           12 skpd ( 13.3%)    0.040 s ( 0.507 ms/b)
<fh|ii>:           45 b            6 skpd ( 13.3%)    0.053 s ( 1.354 ms/b)
<fi|fi>:           55 b           14 skpd ( 25.5%)    0.017 s ( 0.406 ms/b)
<fi|gg>:          100 b           14 skpd ( 14.0%)    0.013 s ( 0.151 ms/b)
<fi|gh>:          120 b           29 skpd ( 24.2%)    0.019 s ( 0.209 ms/b)
<fi|gi>:           80 b           37 skpd ( 46.2%)    0.023 s ( 0.534 ms/b)
<fi|hh>:           60 b            5 skpd (  8.3%)    0.026 s ( 0.481 ms/b)
<fi|hi>:           60 b           15 skpd ( 25.0%)    0.037 s ( 0.814 ms/b)
<fi|ii>:           30 b           19 skpd ( 63.3%)    0.037 s ( 3.362 ms/b)
<gg|gg>:           55 b            1 skpd (  1.8%)    0.011 s ( 0.212 ms/b)
<gg|gh>:          120 b            5 skpd (  4.2%)    0.020 s ( 0.178 ms/b)
<gg|gi>:           80 b            3 skpd (  3.8%)    0.024 s ( 0.307 ms/b)
<gg|hh>:           60 b            2 skpd (  3.3%)    0.025 s ( 0.435 ms/b)
<gg|hi>:           60 b            4 skpd (  6.7%)    0.035 s ( 0.628 ms/b)
<gg|ii>:           30 b            1 skpd (  3.3%)    0.050 s ( 1.720 ms/b)
<gh|gh>:           78 b            7 skpd (  9.0%)    0.031 s ( 0.441 ms/b)
<gh|gi>:           96 b           10 skpd ( 10.4%)    0.043 s ( 0.501 ms/b)
<gh|hh>:           72 b           11 skpd ( 15.3%)    0.047 s ( 0.772 ms/b)
<gh|hi>:           72 b           12 skpd ( 16.7%)    0.062 s ( 1.034 ms/b)
<gh|ii>:           36 b            6 skpd ( 16.7%)    0.079 s ( 2.634 ms/b)
<gi|gi>:           36 b            4 skpd ( 11.1%)    0.039 s ( 1.207 ms/b)
<gi|hh>:           48 b            8 skpd ( 16.7%)    0.046 s ( 1.140 ms/b)
<gi|hi>:           48 b           12 skpd ( 25.0%)    0.061 s ( 1.683 ms/b)
<gi|ii>:           24 b            4 skpd ( 16.7%)    0.076 s ( 3.808 ms/b)
<hh|hh>:           21 b            0 skpd (  0.0%)    0.043 s ( 2.056 ms/b)
<hh|hi>:           36 b            4 skpd ( 11.1%)    0.070 s ( 2.193 ms/b)
<hh|ii>:           18 b            1 skpd (  5.6%)    0.098 s ( 5.763 ms/b)
<hi|hi>:           21 b            6 skpd ( 28.6%)    0.088 s ( 5.848 ms/b)
<hi|ii>:           18 b            8 skpd ( 44.4%)    0.109 s (10.891 ms/b)
<ii|ii>:            6 b            0 skpd (  0.0%)    0.139 s (23.106 ms/b)
Recanonicalizing the internal orbitals
Recanonicalizing the virtual orbitals
Time needed for Fock operator              ...          124.062 sec
Reference energy                           ...   -759.740977911
Warning: for UHF the TrafoType has to be JK
Warning: for UHF the K(C)-option cannot be MO but must be AOX

-------------------------------
PARTIAL EXCHANGE TRANSFORMATION
-------------------------------

Transformation type                        ... two-operators
Generation of integrals (i,mue|j,nue)      ... ON
Generation of integrals (mue,kappa|nue,tau)... ON
Generation of integrals (i,mue|a,nue)      ... ON
Dimension of the basis                     ...  202
Number of internal alpha-MOs               ...    6 (   5-  10)
Number of internal beta-MOs                ...    5 (   5-   9)
Number of external alpha-MOs               ...  191 (  11- 201)
Number of external beta-MOs                ...  192 (  10- 201)
Pair cutoff                                ... 0.000e+00 Eh
Number of AO pairs in the trafo            ... 20503
Total Number of distinct AO pairs          ... 20503
Memory devoted for trafo                   ... 2500.0 MB 
Max. Number of MO pairs treated together   ... 8030      
Number Format for Storage                  ... Double (8 Byte)
Integral package used                      ... LIBINT

Starting integral evaluation:
    ... done with AO integral generation
Closing buffer AOK[aa] ( 0.00 GB; CompressionRatio= 0.96)
Closing buffer AOK[bb] ( 0.00 GB; CompressionRatio= 0.94)
[...]
SORTING ALPHA/ALPHA PAIRS
IBATCH = 1 of  1
Closing buffer JAO[aa] ( 0.00 GB; CompressionRatio= 1.00)
SORTING BETA/BETA PAIRS
IBATCH = 1 of  1
Closing buffer JAO[bb] ( 0.00 GB; CompressionRatio= 1.00)
Collecting buffer JAO 
TOTAL TIME for half transformation         ...   237.288 sec
AO-integral generation                     ...   237.101 sec
Half transformation                        ...     0.123 sec
J-integral sorting                         ...     0.051 sec

-------------------------- SECOND HALF TRANSFORMATION -------------------------
Formation of (ij|kl),(ij|ka), (ij|ab)      ... ok (     0.123 sec)
Formation of (ik|jl),(ik|ja), (ia|jb)      ... ok (     0.177 sec)


-----------------------
SPIN UNRESTRICTED GUESS
-----------------------

Entering MDCI_UHF_Guess, Tailored=0
Spin-components of the MP2 energy:
EMP2(aa)=     -0.047618613
EMP2(bb)=     -0.035873898
EMP2(ab)=     -0.250157237

Initial guess performed in     0.048 sec
E(0)                                       ...   -759.740977911
E(MP2)                                     ...     -0.333649748
Initial E(tot)                             ...   -760.074627660
<T|T>                                      ...      0.097321291
Number of pairs included                   ... 55

------------------------------------------------
                  UHF COUPLED CLUSTER ITERATIONS
------------------------------------------------

Number of amplitudes to be optimized       ...      1559133

Iter       E(tot)           E(Corr)          Delta-E          Residual     Time      <S|S>**1/2
  0   -760.074627660     -0.333649748     -0.000000000      0.013178188   86.63      0.000005774
                           *** Turning on DIIS ***
  1   -760.087995182     -0.347017271     -0.013367523      0.005892855  118.36      0.030013210
  2   -760.095214552     -0.354236641     -0.007219370      0.003721822  118.54      0.046360135
  3   -760.097008756     -0.356030845     -0.001794204      0.002017204  118.09      0.057820862
  4   -760.097988633     -0.357010722     -0.000979877      0.000701301  117.92      0.066878163
  5   -760.098285201     -0.357307290     -0.000296568      0.000369746  118.00      0.070977962
  6   -760.098322465     -0.357344553     -0.000037264      0.000309214  118.13      0.072020034
  7   -760.098327099     -0.357349187     -0.000004634      0.000238982  118.16      0.072472302
  8   -760.098319686     -0.357341774      0.000007413      0.000172225  118.07      0.072591521
  9   -760.098324734     -0.357346823     -0.000005049      0.000105449  118.09      0.072718916
 10   -760.098326312     -0.357348400     -0.000001577      0.000055862  118.20      0.072829435
 11   -760.098329849     -0.357351938     -0.000003538      0.000027312  118.00      0.072965441
 12   -760.098330197     -0.357352285     -0.000000348      0.000009860  118.06      0.073078790
               --- The Coupled-Cluster iterations have converged ---

----------------------
COUPLED CLUSTER ENERGY
----------------------

E(0)                                       ...   -759.740977911
E(CORR)                                    ...     -0.357352285
E(TOT)                                     ...   -760.098330197
Singles norm <S|S>**1/2                    ...      0.073078790 ( 0.037573329, 0.035505462)  
T1 diagnostic                              ...      0.022034084                              

------------------
LARGEST AMPLITUDES
------------------
   9b-> 34b  -1b-> -1b       0.055937
  10a-> 22a   9b-> 19b       0.055791
  10a-> 22a   9b-> 10b       0.054335
  10a-> 21a   9b-> 20b       0.051805
  10a-> 20a   9b-> 21b       0.051805
  10a-> 13a   9b-> 19b       0.047807
  10a-> 13a   9b-> 10b       0.046765
  10a-> 11a   9b-> 21b       0.045391
  10a-> 12a   9b-> 20b       0.045389
  10a-> 35a  -1a-> -1a       0.042426
  10a-> 22a   9b-> 38b       0.042422
  10a-> 41a   9b-> 19b       0.041801
  10a-> 21a   9b-> 40b       0.040140
  10a-> 20a   9b-> 41b       0.040140
  10a-> 41a   9b-> 10b       0.040123
  10a-> 21a   9b-> 11b       0.040025

----------------------
UHF TRIPLES CORRECTION (Algorithm 1)
----------------------

Multiplier for the singles contribution    ...      1.000000000

SPIN-CASE Alpha-Alpha-Alpha:
10% done
20% done
30% done
40% done
50% done
60% done
70% done
80% done
90% done


SPIN-CASE Beta-Beta-Beta:
10% done
20% done
30% done
40% done
50% done
60% done
70% done
80% done
90% done


SPIN-CASE Alpha-Alpha-Beta:
10% done
20% done
30% done
40% done
50% done
60% done
70% done
80% done
90% done


SPIN-CASE Beta-Beta-Alpha:
10% done
20% done
30% done
40% done
50% done
60% done
70% done
80% done
90% done


Triples Correction (T)                     ...     -0.013013840
    alpha-alpha-alpha ... -0.000429370 (  3.3%)
    alpha-alpha-beta  ... -0.006863044 ( 52.7%)
    alpha-beta -beta  ... -0.005456056 ( 41.9%)
    beta -beta -beta  ... -0.000265370 (  2.0%)
Scaling of triples based on CCSD energies (Peterson et al. Molecular Physics 113, 1551 (2015))
E(T*) = f*E(T) where f = E(F12-CCSD)/E(CCSD) 
f = CCSD (with F12)/ CCSD (without F12)    ...      1.000000000
Scaled triples correction (T)              ...     -0.013013840

Final correlation energy                   ...     -0.370366125
E(CCSD)                                    ...   -760.098330197
E(CCSD(T))                                 ...   -760.111344037



        !!!!!!!!!!!!!!!!!!!!!!!!!!!!!!!!!!!!!!!!!!!!!!!!!!!!!!!!!!!!!!!!!!!!!!!!!! 
        !  Warning: Densities are linearized densities                           !
        !!!!!!!!!!!!!!!!!!!!!!!!!!!!!!!!!!!!!!!!!!!!!!!!!!!!!!!!!!!!!!!!!!!!!!!!!! 

NORM  =      1.143777742 sqrt=     1.069475452
W(HF) =      0.874295734
------------------------------------------------------------------------------
                           ORCA POPULATION ANALYSIS
------------------------------------------------------------------------------
Input electron density              ... 21_Sc.mdcip
Input spin density                  ... 21_Sc.mdcir
BaseName (.gbw .S,...)              ... 21_Sc

                    ********************************
                    * MULLIKEN POPULATION ANALYSIS *
                    ********************************

------------------------------------------
MULLIKEN ATOMIC CHARGES AND SPIN DENSITIES
------------------------------------------
   0 Sc:    0.000000    1.000000
Sum of atomic charges       :    0.0000000
Sum of atomic spin densities:    1.0000000

---------------------------------------------------
MULLIKEN REDUCED ORBITAL CHARGES AND SPIN DENSITIES
---------------------------------------------------
CHARGE
  0 Scs       :     7.861132  s :     7.861132
      pz      :     4.009170  p :    12.029977
      px      :     4.010147
      py      :     4.010660
      dz2     :     0.021553  d :     1.087343
      dxz     :     0.610052
      dyz     :     0.407932
      dx2y2   :     0.022745
      dxy     :     0.025061
      f0      :     0.002464  f :     0.017998
      f+1     :     0.003182
      f-1     :     0.002587
      f+2     :     0.003358
      f-2     :     0.003369
      f+3     :     0.001520
      f-3     :     0.001519
      g0      :     0.000335  g :     0.003012
      g+1     :     0.000368
      g-1     :     0.000329
      g+2     :     0.000376
      g-2     :     0.000376
      g+3     :     0.000368
      g-3     :     0.000368
      g+4     :     0.000245
      g-4     :     0.000245
      h0      :     0.000048  h :     0.000500
      h+1     :     0.000053
      h-1     :     0.000045
      h+2     :     0.000052
      h-2     :     0.000052
      h+3     :     0.000053
      h-3     :     0.000053
      h+4     :     0.000047
      h-4     :     0.000047
      h+5     :     0.000026
      h-5     :     0.000026
      i0      :     0.000003  i :     0.000038
      i+1     :     0.000003
      i-1     :     0.000003
      i+2     :     0.000003
      i-2     :     0.000003
      i+3     :     0.000003
      i-3     :     0.000003
      i+4     :     0.000003
      i-4     :     0.000003
      i+5     :     0.000003
      i-5     :     0.000003
      i+6     :     0.000002
      i-6     :     0.000002

SPIN
  0 Scs       :     0.011346  s :     0.011346
      pz      :     0.003799  p :     0.007114
      px      :     0.002103
      py      :     0.001213
      dz2     :    -0.001325  d :     0.973682
      dxz     :     0.590071
      dyz     :     0.387114
      dx2y2   :     0.000110
      dxy     :    -0.002288
      f0      :     0.001009  f :     0.006955
      f+1     :     0.001644
      f-1     :     0.001060
      f+2     :     0.001680
      f-2     :     0.001685
      f+3     :    -0.000062
      f-3     :    -0.000062
      g0      :     0.000100  g :     0.000764
      g+1     :     0.000127
      g-1     :     0.000088
      g+2     :     0.000123
      g-2     :     0.000124
      g+3     :     0.000106
      g-3     :     0.000105
      g+4     :    -0.000004
      g-4     :    -0.000004
      h0      :     0.000014  h :     0.000127
      h+1     :     0.000017
      h-1     :     0.000012
      h+2     :     0.000016
      h-2     :     0.000016
      h+3     :     0.000016
      h-3     :     0.000016
      h+4     :     0.000011
      h-4     :     0.000011
      h+5     :    -0.000000
      h-5     :    -0.000000
      i0      :     0.000001  i :     0.000012
      i+1     :     0.000001
      i-1     :     0.000001
      i+2     :     0.000001
      i-2     :     0.000001
      i+3     :     0.000001
      i-3     :     0.000001
      i+4     :     0.000001
      i-4     :     0.000001
      i+5     :     0.000001
      i-5     :     0.000001
      i+6     :    -0.000000
      i-6     :    -0.000000


                     *******************************
                     * LOEWDIN POPULATION ANALYSIS *
                     *******************************

-----------------------------------------
LOEWDIN ATOMIC CHARGES AND SPIN DENSITIES
-----------------------------------------
   0 Sc:   -0.000000    1.000000

--------------------------------------------------
LOEWDIN REDUCED ORBITAL CHARGES AND SPIN DENSITIES
--------------------------------------------------
CHARGE
  0 Scs       :     7.861132  s :     7.861132
      pz      :     4.009170  p :    12.029977
      px      :     4.010147
      py      :     4.010660
      dz2     :     0.021553  d :     1.087343
      dxz     :     0.610052
      dyz     :     0.407932
      dx2y2   :     0.022745
      dxy     :     0.025061
      f0      :     0.002464  f :     0.017998
      f+1     :     0.003182
      f-1     :     0.002587
      f+2     :     0.003358
      f-2     :     0.003369
      f+3     :     0.001520
      f-3     :     0.001519
      g0      :     0.000335  g :     0.003012
      g+1     :     0.000368
      g-1     :     0.000329
      g+2     :     0.000376
      g-2     :     0.000376
      g+3     :     0.000368
      g-3     :     0.000368
      g+4     :     0.000245
      g-4     :     0.000245
      h0      :     0.000048  h :     0.000500
      h+1     :     0.000053
      h-1     :     0.000045
      h+2     :     0.000052
      h-2     :     0.000052
      h+3     :     0.000053
      h-3     :     0.000053
      h+4     :     0.000047
      h-4     :     0.000047
      h+5     :     0.000026
      h-5     :     0.000026
      i0      :     0.000003  i :     0.000038
      i+1     :     0.000003
      i-1     :     0.000003
      i+2     :     0.000003
      i-2     :     0.000003
      i+3     :     0.000003
      i-3     :     0.000003
      i+4     :     0.000003
      i-4     :     0.000003
      i+5     :     0.000003
      i-5     :     0.000003
      i+6     :     0.000002
      i-6     :     0.000002

SPIN
  0 Scs       :     0.011346  s :     0.011346
      pz      :     0.003799  p :     0.007114
      px      :     0.002103
      py      :     0.001213
      dz2     :    -0.001325  d :     0.973682
      dxz     :     0.590071
      dyz     :     0.387114
      dx2y2   :     0.000110
      dxy     :    -0.002288
      f0      :     0.001009  f :     0.006955
      f+1     :     0.001644
      f-1     :     0.001060
      f+2     :     0.001680
      f-2     :     0.001685
      f+3     :    -0.000062
      f-3     :    -0.000062
      g0      :     0.000100  g :     0.000764
      g+1     :     0.000127
      g-1     :     0.000088
      g+2     :     0.000123
      g-2     :     0.000124
      g+3     :     0.000106
      g-3     :     0.000105
      g+4     :    -0.000004
      g-4     :    -0.000004
      h0      :     0.000014  h :     0.000127
      h+1     :     0.000017
      h-1     :     0.000012
      h+2     :     0.000016
      h-2     :     0.000016
      h+3     :     0.000016
      h-3     :     0.000016
      h+4     :     0.000011
      h-4     :     0.000011
      h+5     :    -0.000000
      h-5     :    -0.000000
      i0      :     0.000001  i :     0.000012
      i+1     :     0.000001
      i-1     :     0.000001
      i+2     :     0.000001
      i-2     :     0.000001
      i+3     :     0.000001
      i-3     :     0.000001
      i+4     :     0.000001
      i-4     :     0.000001
      i+5     :     0.000001
      i-5     :     0.000001
      i+6     :    -0.000000
      i-6     :    -0.000000


                      *****************************
                      * MAYER POPULATION ANALYSIS *
                      *****************************

  NA   - Mulliken gross atomic population
  ZA   - Total nuclear charge
  QA   - Mulliken gross atomic charge
  VA   - Mayer's total valence
  BVA  - Mayer's bonded valence
  FA   - Mayer's free valence

  ATOM       NA         ZA         QA         VA         BVA        FA
  0 Sc    21.0000    21.0000     0.0000     1.9876     0.0000     1.9876





------------------------------------------------------------------------------- 
                                     TIMINGS                                   
------------------------------------------------------------------------------- 


Total execution time                   ...     2415.855 sec

Fock Matrix Formation                  ...      124.062 sec (  5.1%)
Initial Guess                          ...        0.048 sec (  0.0%)
DIIS Solver                            ...        3.915 sec (  0.2%)
State Vector Update                    ...        0.162 sec (  0.0%)
Sigma-vector construction              ...     1500.172 sec ( 62.1%)
  <0|H|D>                              ...        0.012 sec (  0.0% of sigma)
  <D|H|D>(0-ext Fock)                  ...        0.025 sec (  0.0% of sigma)
  <D|H|D>(0-ext)                       ...        0.096 sec (  0.0% of sigma)
  <D|H|D>(2-ext Fock)                  ...        0.022 sec (  0.0% of sigma)
  <D|H|D>(2-ext)                       ...        0.556 sec (  0.0% of sigma)
  <D|H|D>(4-ext)                       ...       93.128 sec (  6.2% of sigma)
  <S|H|0>                              ...        3.649 sec (  0.2% of sigma)
  <S|H|S>                              ...        0.004 sec (  0.0% of sigma)
  <S|H|D>(1-ext)                       ...        0.007 sec (  0.0% of sigma)
  <D|H|S>(1-ext)                       ...        0.168 sec (  0.0% of sigma)
  Fock-dressing                        ...     1389.827 sec ( 92.6% of sigma)
  (ik|jl)-dressing                     ...        0.096 sec (  0.0% of sigma)
  (ij|ab),(ia|jb)-dressing             ...        9.637 sec (  0.6% of sigma)
  Pair energies                        ...        0.010 sec (  0.0% of sigma)
Total Time for computing (T)           ...       16.715 sec (  0.7% of ALL)
  I/O of integral and amplitudes       ...        4.249 sec ( 25.4% of (T))
  External N**7 contributions          ...        4.346 sec ( 26.0% of (T))
  Internal N**7 contributions          ...        0.921 sec (  5.5% of (T))
  N**6 triples energy contributions    ...        5.942 sec ( 35.5% of (T))


-------------------------   --------------------
FINAL SINGLE POINT ENERGY      -760.111344036620
-------------------------   --------------------


                            ***************************************
                            *     ORCA property calculations      *
                            ***************************************

                                    ---------------------
                                    Active property flags
                                    ---------------------
   (+) Dipole Moment


------------------------------------------------------------------------------
                       ORCA ELECTRIC PROPERTIES CALCULATION
------------------------------------------------------------------------------

Dipole Moment Calculation                       ... on
Quadrupole Moment Calculation                   ... off
Polarizability Calculation                      ... off
GBWName                                         ... 21_Sc.gbw
Electron density file                           ... 21_Sc.scfp
The origin for moment calculation is the CENTER OF MASS  = ( 0.000000,  0.000000  0.000000)

-------------
DIPOLE MOMENT
-------------
                                X             Y             Z
Electronic contribution:      0.00000       0.00000      -0.00000
Nuclear contribution   :      0.00000       0.00000       0.00000
                        -----------------------------------------
Total Dipole Moment    :      0.00000       0.00000      -0.00000
                        -----------------------------------------
Magnitude (a.u.)       :      0.00000
Magnitude (Debye)      :      0.00000



--------------------
Rotational spectrum 
--------------------
 
Rotational constants in cm-1:     0.000000     0.000000     0.000000 
Rotational constants in MHz :     0.000000     0.000000     0.000000 

 Dipole components along the rotational axes: 
x,y,z [a.u.] :     0.000000     0.000000    -0.000000 
x,y,z [Debye]:     0.000000     0.000000    -0.000000 

 

                           *** MDCI DENSITY ***

------------------------------------------------------------------------------
                       ORCA ELECTRIC PROPERTIES CALCULATION
------------------------------------------------------------------------------

Dipole Moment Calculation                       ... on
Quadrupole Moment Calculation                   ... off
Polarizability Calculation                      ... off
GBWName                                         ... 21_Sc.gbw
Electron density file                           ... 21_Sc.mdcip
The origin for moment calculation is the CENTER OF MASS  = ( 0.000000,  0.000000  0.000000)

-------------
DIPOLE MOMENT
-------------
                                X             Y             Z
Electronic contribution:     -0.00000      -0.00000       0.00000
Nuclear contribution   :      0.00000       0.00000       0.00000
                        -----------------------------------------
Total Dipole Moment    :     -0.00000      -0.00000       0.00000
                        -----------------------------------------
Magnitude (a.u.)       :      0.00000
Magnitude (Debye)      :      0.00000



--------------------
Rotational spectrum 
--------------------
 
Rotational constants in cm-1:     0.000000     0.000000     0.000000 
Rotational constants in MHz :     0.000000     0.000000     0.000000 

 Dipole components along the rotational axes: 
x,y,z [a.u.] :    -0.000000    -0.000000     0.000000 
x,y,z [Debye]:    -0.000000    -0.000000     0.000000 

 

Timings for individual modules:

Sum of individual times         ...     3295.276 sec (=  54.921 min)
GTO integral calculation        ...       17.276 sec (=   0.288 min)   0.5 %
SCF iterations                  ...      859.100 sec (=  14.318 min)  26.1 %
MDCI module                     ...     2418.900 sec (=  40.315 min)  73.4 %
                             ****ORCA TERMINATED NORMALLY****
TOTAL RUN TIME: 0 days 0 hours 54 minutes 56 seconds 839 msec
