
                                 *****************
                                 * O   R   C   A *
                                 *****************

           --- An Ab Initio, DFT and Semiempirical electronic structure package ---

                  #######################################################
                  #                        -***-                        #
                  #          Department of theory and spectroscopy      #
                  #               Directorship: Frank Neese             #
                  #        Max Planck Institute fuer Kohlenforschung    #
                  #                Kaiser Wilhelm Platz 1               #
                  #                 D-45470 Muelheim/Ruhr               #
                  #                      Germany                        #
                  #                                                     #
                  #                  All rights reserved                #
                  #                        -***-                        #
                  #######################################################


                         Program Version 4.2.0 -  RELEASE  -


 With contributions from (in alphabetic order):
   Daniel Aravena         : Magnetic Suceptibility
   Michael Atanasov       : Ab Initio Ligand Field Theory (pilot matlab implementation)
   Alexander A. Auer      : GIAO ZORA, VPT2
   Ute Becker             : Parallelization
   Giovanni Bistoni       : ED, misc. LED, open-shell LED, HFLED
   Martin Brehm           : Molecular dynamics
   Dmytro Bykov           : SCF Hessian
   Vijay G. Chilkuri      : MRCI spin determinant printing, contributions to CSF-ICE
   Dipayan Datta          : RHF DLPNO-CCSD density
   Achintya Kumar Dutta   : EOM-CC, STEOM-CC
   Dmitry Ganyushin       : Spin-Orbit,Spin-Spin,Magnetic field MRCI
   Miquel Garcia          : C-PCM Hessian, Gaussian charge scheme
   Yang Guo               : DLPNO-NEVPT2, CIM, IAO-localization
   Andreas Hansen         : Spin unrestricted coupled pair/coupled cluster methods
   Benjamin Helmich-Paris : CASSCF linear response (MC-RPA)
   Lee Huntington         : MR-EOM, pCC
   Robert Izsak           : Overlap fitted RIJCOSX, COSX-SCS-MP3, EOM
   Christian Kollmar      : KDIIS, OOCD, Brueckner-CCSD(T), CCSD density
   Simone Kossmann        : Meta GGA functionals, TD-DFT gradient, OOMP2, MP2 Hessian
   Martin Krupicka        : AUTO-CI
   Lucas Lang             : DCDCAS
   Dagmar Lenk            : GEPOL surface, SMD
   Dimitrios Liakos       : Extrapolation schemes; Compound Job, initial MDCI parallelization
   Dimitrios Manganas     : Further ROCIS development; embedding schemes
   Dimitrios Pantazis     : SARC Basis sets
   Taras Petrenko         : DFT Hessian,TD-DFT gradient, ASA, ECA, R-Raman, ABS, FL, XAS/XES, NRVS
   Peter Pinski           : DLPNO-MP2, DLPNO-MP2 Gradient
   Christoph Reimann      : Effective Core Potentials
   Marius Retegan         : Local ZFS, SOC
   Christoph Riplinger    : Optimizer, TS searches, QM/MM, DLPNO-CCSD(T), (RO)-DLPNO pert. Triples
   Tobias Risthaus        : Range-separated hybrids, TD-DFT gradient, RPA, STAB
   Michael Roemelt        : Original ROCIS implementation
   Masaaki Saitow         : Open-shell DLPNO-CCSD energy and density
   Barbara Sandhoefer     : DKH picture change effects
   Avijit Sen             : IP-ROCIS
   Kantharuban Sivalingam : CASSCF convergence, NEVPT2, FIC-MRCI
   Bernardo de Souza      : ESD, SOC TD-DFT
   Georgi Stoychev        : AutoAux, RI-MP2 NMR
   Willem Van den Heuvel  : Paramagnetic NMR
   Boris Wezisla          : Elementary symmetry handling
   Frank Wennmohs         : Technical directorship


 We gratefully acknowledge several colleagues who have allowed us to
 interface, adapt or use parts of their codes:
   Stefan Grimme, W. Hujo, H. Kruse,             : VdW corrections, initial TS optimization,
                  C. Bannwarth                     DFT functionals, gCP, sTDA/sTD-DF
   Ed Valeev, F. Pavosevic, A. Kumar             : LibInt (2-el integral package), F12 methods
   Garnet Chan, S. Sharma, J. Yang, R. Olivares  : DMRG
   Ulf Ekstrom                                   : XCFun DFT Library
   Mihaly Kallay                                 : mrcc  (arbitrary order and MRCC methods)
   Andreas Klamt, Michael Diedenhofen            : otool_cosmo (COSMO solvation model)
   Jiri Pittner, Ondrej Demel                    : Mk-CCSD
   Frank Weinhold                                : gennbo (NPA and NBO analysis)
   Christopher J. Cramer and Donald G. Truhlar   : smd solvation model
   Lars Goerigk                                  : TD-DFT with DH, B97 family of functionals
   V. Asgeirsson, H. Jonsson                     : NEB implementation
   FAccTs GmbH                                   : IRC, NEB, NEB-TS, Multilevel, MM, QM/MM, CI optimization
   S Lehtola, MJT Oliveira, MAL Marques          : LibXC Library


 Your calculation uses the libint2 library for the computation of 2-el integrals
 For citations please refer to: http://libint.valeyev.net

 Your ORCA version has been built with support for libXC version: 4.2.3
 For citations please refer to: https://tddft.org/programs/libxc/

 This ORCA versions uses:
   CBLAS   interface :  Fast vector & matrix operations
   LAPACKE interface :  Fast linear algebra routines
   SCALAPACK package :  Parallel linear algebra routines


Setting NCore(Be) from 0 to 2
----- Orbital basis set information -----
Your calculation utilizes the basis: def2-TZVP
   F. Weigend and R. Ahlrichs, Phys. Chem. Chem. Phys. 7, 3297 (2005).

================================================================================
                                        WARNINGS
                       Please study these warnings very carefully!
================================================================================


WARNING: MDCI localization with Augmented Hessian Foster-Boys
  ===> : Switching off randomization!

WARNING: Post HF methods need fully converged wavefunctions
  ===> : Setting SCFConvForced true
         You can overwrite this default with %scf ConvForced false 


INFO   : the flag for use of LIBINT has been found!

================================================================================
                                       INPUT FILE
================================================================================
NAME = 04_Be.in
|  1> #
|  2> # 04_Be CCSD(T)/Def2-TZVP
|  3> #
|  4> ! CCSD(T) Def2-TZVP tightscf
|  5> 
|  6> *xyz 0 1
|  7>  Be 0.0 0.0 0.0
|  8> *
|  9> 
| 10> %maxcore 5000 
| 11> 
| 12> %pal
| 13> nprocs 1 
| 14> end
| 15> 
| 16> %method
| 17> NewNCore Be 2 end
| 18> end
| 19> 
| 20> 
| 21>                          ****END OF INPUT****
================================================================================

                       ****************************
                       * Single Point Calculation *
                       ****************************

---------------------------------
CARTESIAN COORDINATES (ANGSTROEM)
---------------------------------
  Be     0.000000    0.000000    0.000000

----------------------------
CARTESIAN COORDINATES (A.U.)
----------------------------
  NO LB      ZA    FRAG     MASS         X           Y           Z
   0 Be    4.0000    0     9.012    0.000000    0.000000    0.000000

--------------------------------
INTERNAL COORDINATES (ANGSTROEM)
--------------------------------
 Be     0   0   0     0.000000000000     0.00000000     0.00000000

---------------------------
INTERNAL COORDINATES (A.U.)
---------------------------
 Be     0   0   0     0.000000000000     0.00000000     0.00000000

---------------------
BASIS SET INFORMATION
---------------------
There are 1 groups of distinct atoms

 Group   1 Type Be  : 11s4p1d contracted to 5s3p1d pattern {62111/121/1}

Atom   0Be   basis set group =>   1
------------------------------------------------------------------------------
                           ORCA GTO INTEGRAL CALCULATION
------------------------------------------------------------------------------

                         BASIS SET STATISTICS AND STARTUP INFO

 # of primitive gaussian shells          ...   16
 # of primitive gaussian functions       ...   28
 # of contracted shells                  ...    9
 # of contracted basis functions         ...   19
 Highest angular momentum                ...    2
 Maximum contraction depth               ...    6
 Integral package used                   ... LIBINT
 Integral threshhold            Thresh   ...  2.500e-11
 Primitive cut-off              TCut     ...  2.500e-12


------------------------------ INTEGRAL EVALUATION ----------------------------


 * One electron integrals 
 Pre-screening matrix                    ... done
 Shell pair data                         ... done (   0.000 sec)

-------------------------------------------------------------------------------
                                 ORCA SCF
-------------------------------------------------------------------------------

------------
SCF SETTINGS
------------
Hamiltonian:
 Ab initio Hamiltonian  Method          .... Hartree-Fock(GTOs)


General Settings:
 Integral files         IntName         .... 04_Be
 Hartree-Fock type      HFTyp           .... RHF
 Total Charge           Charge          ....    0
 Multiplicity           Mult            ....    1
 Number of Electrons    NEL             ....    4
 Basis Dimension        Dim             ....   19
 Nuclear Repulsion      ENuc            ....      0.0000000000 Eh

Convergence Acceleration:
 DIIS                   CNVDIIS         .... on
   Start iteration      DIISMaxIt       ....    12
   Startup error        DIISStart       ....  0.200000
   # of expansion vecs  DIISMaxEq       ....     5
   Bias factor          DIISBfac        ....   1.050
   Max. coefficient     DIISMaxC        ....  10.000
 Newton-Raphson         CNVNR           .... off
 SOSCF                  CNVSOSCF        .... on
   Start iteration      SOSCFMaxIt      ....   150
   Startup grad/error   SOSCFStart      ....  0.003300
 Level Shifting         CNVShift        .... on
   Level shift para.    LevelShift      ....    0.2500
   Turn off err/grad.   ShiftErr        ....    0.0010
 Zerner damping         CNVZerner       .... off
 Static damping         CNVDamp         .... on
   Fraction old density DampFac         ....    0.7000
   Max. Damping (<1)    DampMax         ....    0.9800
   Min. Damping (>=0)   DampMin         ....    0.0000
   Turn off err/grad.   DampErr         ....    0.1000
 Fernandez-Rico         CNVRico         .... off

SCF Procedure:
 Maximum # iterations   MaxIter         ....   125
 SCF integral mode      SCFMode         .... Direct
   Integral package                     .... LIBINT
 Reset frequency        DirectResetFreq ....    20
 Integral Threshold     Thresh          ....  2.500e-11 Eh
 Primitive CutOff       TCut            ....  2.500e-12 Eh

Convergence Tolerance:
 Convergence Check Mode ConvCheckMode   .... Total+1el-Energy
 Convergence forced     ConvForced      .... 1
 Energy Change          TolE            ....  1.000e-08 Eh
 1-El. energy change                    ....  1.000e-05 Eh
 Orbital Gradient       TolG            ....  1.000e-05
 Orbital Rotation angle TolX            ....  1.000e-05
 DIIS Error             TolErr          ....  5.000e-07


Diagonalization of the overlap matrix:
Smallest eigenvalue                        ... 2.689e-02
Time for diagonalization                   ...    0.001 sec
Threshold for overlap eigenvalues          ... 1.000e-08
Number of eigenvalues below threshold      ... 0
Time for construction of square roots      ...    0.002 sec
Total time needed                          ...    0.003 sec

-------------------
DFT GRID GENERATION
-------------------

General Integration Accuracy     IntAcc      ...  4.340
Radial Grid Type                 RadialGrid  ... Gauss-Chebyshev
Angular Grid (max. acc.)         AngularGrid ... Lebedev-110
Angular grid pruning method      GridPruning ... 3 (G Style)
Weight generation scheme         WeightScheme... Becke
Basis function cutoff            BFCut       ...    1.0000e-11
Integration weight cutoff        WCut        ...    1.0000e-14
Grids for H and He will be reduced by one unit

# of grid points (after initial pruning)     ...   1678 (   0.0 sec)
# of grid points (after weights+screening)   ...   1678 (   0.0 sec)
Grid point division into batches done        ...    0.0 sec
Reduced shell lists constructed in    0.0 sec

Total number of grid points                  ...     1678
Total number of batches                      ...       27
Average number of points per batch           ...       62
Average number of grid points per atom       ...     1678
Average number of shells per batch           ...     7.50 (83.33%)
Average number of basis functions per batch  ...    16.21 (85.34%)
Average number of large shells per batch     ...     7.43 (99.05%)
Average number of large basis fcns per batch ...    16.07 (99.12%)
Maximum spatial batch extension              ...  21.83, 39.91, 39.91 au
Average spatial batch extension              ...  10.55, 12.37, 14.01 au

Time for grid setup =    0.013 sec

------------------------------
INITIAL GUESS: MODEL POTENTIAL
------------------------------
Loading Hartree-Fock densities                     ... done
Calculating cut-offs                               ... done
Setting up the integral package                    ... done
Initializing the effective Hamiltonian             ... done
Starting the Coulomb interaction                   ... done (   0.0 sec)
Reading the grid                                   ... done
Mapping shells                                     ... done
Starting the XC term evaluation                    ... done (   0.0 sec)
Transforming the Hamiltonian                       ... done (   0.0 sec)
Diagonalizing the Hamiltonian                      ... done (   0.0 sec)
Back transforming the eigenvectors                 ... done (   0.0 sec)
Now organizing SCF variables                       ... done
                      ------------------
                      INITIAL GUESS DONE (   0.1 sec)
                      ------------------
--------------
SCF ITERATIONS
--------------
ITER       Energy         Delta-E        Max-DP      RMS-DP      [F,P]     Damp
               ***  Starting incremental Fock matrix formation  ***
  0    -14.5690364843   0.000000000000 0.01057277  0.00099933  0.1515103 0.7000
  1    -14.5700436354  -0.001007151158 0.00818408  0.00078349  0.1091728 0.7000
                               ***Turning on DIIS***
  2    -14.5707754728  -0.000731837352 0.01993600  0.00193424  0.0779322 0.0000
  3    -14.5724114370  -0.001635964210 0.00375875  0.00027185  0.0035633 0.0000
                      *** Initiating the SOSCF procedure ***
                           *** Shutting down DIIS ***
                      *** Re-Reading the Fockian *** 
                      *** Removing any level shift *** 
ITER      Energy       Delta-E        Grad      Rot      Max-DP    RMS-DP
  4    -14.57280185  -0.0003904113  0.000437  0.000437  0.001863  0.000195
               *** Restarting incremental Fock matrix formation ***
  5    -14.57257977   0.0002220772  0.000111  0.000280  0.000840  0.000065
  6    -14.57257986  -0.0000000867  0.000036  0.000131  0.000500  0.000035
                 **** Energy Check signals convergence ****
              ***Rediagonalizing the Fockian in SOSCF/NRSCF***

               *****************************************************
               *                     SUCCESS                       *
               *           SCF CONVERGED AFTER   7 CYCLES          *
               *****************************************************


----------------
TOTAL SCF ENERGY
----------------

Total Energy       :          -14.57257987 Eh            -396.54006 eV

Components:
Nuclear Repulsion  :            0.00000000 Eh               0.00000 eV
Electronic Energy  :          -14.57257987 Eh            -396.54006 eV
One Electron Energy:          -19.06163832 Eh            -518.69355 eV
Two Electron Energy:            4.48905845 Eh             122.15349 eV

Virial components:
Potential Energy   :          -29.14515826 Eh            -793.08008 eV
Kinetic Energy     :           14.57257839 Eh             396.54002 eV
Virial Ratio       :            2.00000010


---------------
SCF CONVERGENCE
---------------

  Last Energy change         ...   -9.5707e-09  Tolerance :   1.0000e-08
  Last MAX-Density change    ...    2.8363e-05  Tolerance :   1.0000e-07
  Last RMS-Density change    ...    1.7669e-06  Tolerance :   5.0000e-09
  Last Orbital Gradient      ...    2.1337e-06  Tolerance :   1.0000e-05
  Last Orbital Rotation      ...    2.6222e-06  Tolerance :   1.0000e-05

             **** THE GBW FILE WAS UPDATED (04_Be.gbw) ****
             **** DENSITY FILE WAS UPDATED (04_Be.scfp) ****
             **** ENERGY FILE WAS UPDATED (04_Be.en.tmp) ****
             **** THE GBW FILE WAS UPDATED (04_Be.gbw) ****
             **** DENSITY FILE WAS UPDATED (04_Be.scfp) ****
----------------
ORBITAL ENERGIES
----------------

  NO   OCC          E(Eh)            E(eV) 
   0   2.0000      -4.732556      -128.7794 
   1   2.0000      -0.309207        -8.4139 
   2   0.0000       0.058138         1.5820 
   3   0.0000       0.058138         1.5820 
   4   0.0000       0.058138         1.5820 
   5   0.0000       0.087734         2.3874 
   6   0.0000       0.349301         9.5050 
   7   0.0000       0.349301         9.5050 
   8   0.0000       0.349301         9.5050 
   9   0.0000       0.492669        13.4062 
  10   0.0000       0.505069        13.7436 
  11   0.0000       0.505069        13.7436 
  12   0.0000       0.505069        13.7436 
  13   0.0000       0.505069        13.7436 
  14   0.0000       0.505069        13.7436 
  15   0.0000       5.639494       153.4584 
  16   0.0000       5.639494       153.4584 
  17   0.0000       5.639494       153.4584 
  18   0.0000       7.693872       209.3609 

                    ********************************
                    * MULLIKEN POPULATION ANALYSIS *
                    ********************************

-----------------------
MULLIKEN ATOMIC CHARGES
-----------------------
   0 Be:    0.000000
Sum of atomic charges:    0.0000000

--------------------------------
MULLIKEN REDUCED ORBITAL CHARGES
--------------------------------
  0 Bes       :     4.000000  s :     4.000000
      pz      :     0.000000  p :     0.000000
      px      :     0.000000
      py      :     0.000000
      dz2     :     0.000000  d :     0.000000
      dxz     :     0.000000
      dyz     :     0.000000
      dx2y2   :     0.000000
      dxy     :     0.000000


                     *******************************
                     * LOEWDIN POPULATION ANALYSIS *
                     *******************************

----------------------
LOEWDIN ATOMIC CHARGES
----------------------
   0 Be:    0.000000

-------------------------------
LOEWDIN REDUCED ORBITAL CHARGES
-------------------------------
  0 Bes       :     4.000000  s :     4.000000
      pz      :     0.000000  p :     0.000000
      px      :     0.000000
      py      :     0.000000
      dz2     :     0.000000  d :     0.000000
      dxz     :     0.000000
      dyz     :     0.000000
      dx2y2   :     0.000000
      dxy     :     0.000000


                      *****************************
                      * MAYER POPULATION ANALYSIS *
                      *****************************

  NA   - Mulliken gross atomic population
  ZA   - Total nuclear charge
  QA   - Mulliken gross atomic charge
  VA   - Mayer's total valence
  BVA  - Mayer's bonded valence
  FA   - Mayer's free valence

  ATOM       NA         ZA         QA         VA         BVA        FA
  0 Be     4.0000     4.0000     0.0000     0.0000     0.0000     0.0000

  Mayer bond orders larger than 0.100000


--------------------------
ATOM BASIS FOR ELEMENT Be
--------------------------
 NewGTO Be
 S 11
    1       4700.236562600000         0.000377672907
    2        704.828456220000         0.002921502565
    3        160.431104780000         0.015047439559
    4         45.425347336000         0.059104775274
    5         14.798334125000         0.174510074311
    6          5.351245253700         0.347405360858
    7          2.154204481900         0.377237099619
    8          0.933637444000         0.176121024294
    9          0.187914329900         0.007832445377
   10          0.074648267900        -0.003751580556
   11          0.032650484600         0.001198824451
 S 11
    1       4700.236562600000         0.000074498076
    2        704.828456220000         0.000576282586
    3        160.431104780000         0.002968190917
    4         45.425347336000         0.011658744759
    5         14.798334125000         0.034423080113
    6          5.351245253700         0.068527634383
    7          2.154204481900         0.143049064639
    8          0.933637444000         0.066785445583
    9          0.187914329900        -0.448803647691
   10          0.074648267900        -0.531913441531
   11          0.032650484600        -0.130610058297
 S 11
    1       4700.236562600000        -0.000030850462
    2        704.828456220000        -0.000238644872
    3        160.431104780000        -0.001229160068
    4         45.425347336000        -0.004828012722
    5         14.798334125000        -0.014254971022
    6          5.351245253700        -0.028378037036
    7          2.154204481900        -0.047436952109
    8          0.933637444000        -0.022146932534
    9          0.187914329900        -0.191706484640
   10          0.074648267900         2.129845442047
   11          0.032650484600        -2.271072318121
 S 11
    1       4700.236562600000        -0.000085542995
    2        704.828456220000        -0.000661720965
    3        160.431104780000        -0.003408248325
    4         45.425347336000        -0.013387244425
    5         14.798334125000        -0.039526569700
    6          5.351245253700        -0.078687389621
    7          2.154204481900        -0.238694797299
    8          0.933637444000        -0.111439654892
    9          0.187914329900         2.832152421662
   10          0.074648267900        -3.999818274019
   11          0.032650484600         1.732010351230
 S 11
    1       4700.236562600000         0.000931376798
    2        704.828456220000         0.007204699230
    3        160.431104780000         0.037108396722
    4         45.425347336000         0.145757917182
    5         14.798334125000         0.430358204409
    6          5.351245253700         0.856734190797
    7          2.154204481900        -1.147489434801
    8          0.933637444000        -0.535729425414
    9          0.187914329900         1.211160515867
   10          0.074648267900        -1.111002302071
   11          0.032650484600         0.431070735382
 P 4
    1          3.631691714500         0.018771895701
    2          0.716956943700         0.078092166642
    3          0.195419328600         0.237838554866
    4          0.060515465900         0.795487554822
 P 4
    1          3.631691714500         0.034252256063
    2          0.716956943700         0.320722314525
    3          0.195419328600         0.976796202227
    4          0.060515465900        -0.958309019432
 P 4
    1          3.631691714500         1.036847111767
    2          0.716956943700        -0.103714777736
    3          0.195419328600        -0.315875124428
    4          0.060515465900         0.188724972983
 D 1
    1          0.180000000000         1.000000000000
 end
  // -----------------------------------------------
  // The basis set
  // -----------------------------------------------
  BAS[ATNO] = new BFNGauss[NSH];
  // Basis function   1 L = s
  InitBFNGauss(BAS[ATNO][  0]);
  BAS[ATNO][  0].l  = 0;
  BAS[ATNO][  0].ng = 11;
  BAS[ATNO][  0].a[  0] =      4700.236562600000;     BAS[ATNO][  0].d[  0] =         0.000377672907;
  BAS[ATNO][  0].a[  1] =       704.828456220000;     BAS[ATNO][  0].d[  1] =         0.002921502565;
  BAS[ATNO][  0].a[  2] =       160.431104780000;     BAS[ATNO][  0].d[  2] =         0.015047439559;
  BAS[ATNO][  0].a[  3] =        45.425347336000;     BAS[ATNO][  0].d[  3] =         0.059104775274;
  BAS[ATNO][  0].a[  4] =        14.798334125000;     BAS[ATNO][  0].d[  4] =         0.174510074311;
  BAS[ATNO][  0].a[  5] =         5.351245253700;     BAS[ATNO][  0].d[  5] =         0.347405360858;
  BAS[ATNO][  0].a[  6] =         2.154204481900;     BAS[ATNO][  0].d[  6] =         0.377237099619;
  BAS[ATNO][  0].a[  7] =         0.933637444000;     BAS[ATNO][  0].d[  7] =         0.176121024294;
  BAS[ATNO][  0].a[  8] =         0.187914329900;     BAS[ATNO][  0].d[  8] =         0.007832445377;
  BAS[ATNO][  0].a[  9] =         0.074648267900;     BAS[ATNO][  0].d[  9] =        -0.003751580556;
  BAS[ATNO][  0].a[ 10] =         0.032650484600;     BAS[ATNO][  0].d[ 10] =         0.001198824451;

  // Basis function   2 L = s
  InitBFNGauss(BAS[ATNO][  1]);
  BAS[ATNO][  1].l  = 0;
  BAS[ATNO][  1].ng = 11;
  BAS[ATNO][  1].a[  0] =      4700.236562600000;     BAS[ATNO][  1].d[  0] =        -0.000074498076;
  BAS[ATNO][  1].a[  1] =       704.828456220000;     BAS[ATNO][  1].d[  1] =        -0.000576282586;
  BAS[ATNO][  1].a[  2] =       160.431104780000;     BAS[ATNO][  1].d[  2] =        -0.002968190917;
  BAS[ATNO][  1].a[  3] =        45.425347336000;     BAS[ATNO][  1].d[  3] =        -0.011658744759;
  BAS[ATNO][  1].a[  4] =        14.798334125000;     BAS[ATNO][  1].d[  4] =        -0.034423080113;
  BAS[ATNO][  1].a[  5] =         5.351245253700;     BAS[ATNO][  1].d[  5] =        -0.068527634383;
  BAS[ATNO][  1].a[  6] =         2.154204481900;     BAS[ATNO][  1].d[  6] =        -0.143049064639;
  BAS[ATNO][  1].a[  7] =         0.933637444000;     BAS[ATNO][  1].d[  7] =        -0.066785445583;
  BAS[ATNO][  1].a[  8] =         0.187914329900;     BAS[ATNO][  1].d[  8] =         0.448803647691;
  BAS[ATNO][  1].a[  9] =         0.074648267900;     BAS[ATNO][  1].d[  9] =         0.531913441531;
  BAS[ATNO][  1].a[ 10] =         0.032650484600;     BAS[ATNO][  1].d[ 10] =         0.130610058297;

  // Basis function   3 L = s
  InitBFNGauss(BAS[ATNO][  2]);
  BAS[ATNO][  2].l  = 0;
  BAS[ATNO][  2].ng = 11;
  BAS[ATNO][  2].a[  0] =      4700.236562600000;     BAS[ATNO][  2].d[  0] =         0.000030850462;
  BAS[ATNO][  2].a[  1] =       704.828456220000;     BAS[ATNO][  2].d[  1] =         0.000238644872;
  BAS[ATNO][  2].a[  2] =       160.431104780000;     BAS[ATNO][  2].d[  2] =         0.001229160068;
  BAS[ATNO][  2].a[  3] =        45.425347336000;     BAS[ATNO][  2].d[  3] =         0.004828012722;
  BAS[ATNO][  2].a[  4] =        14.798334125000;     BAS[ATNO][  2].d[  4] =         0.014254971022;
  BAS[ATNO][  2].a[  5] =         5.351245253700;     BAS[ATNO][  2].d[  5] =         0.028378037036;
  BAS[ATNO][  2].a[  6] =         2.154204481900;     BAS[ATNO][  2].d[  6] =         0.047436952109;
  BAS[ATNO][  2].a[  7] =         0.933637444000;     BAS[ATNO][  2].d[  7] =         0.022146932534;
  BAS[ATNO][  2].a[  8] =         0.187914329900;     BAS[ATNO][  2].d[  8] =         0.191706484640;
  BAS[ATNO][  2].a[  9] =         0.074648267900;     BAS[ATNO][  2].d[  9] =        -2.129845442047;
  BAS[ATNO][  2].a[ 10] =         0.032650484600;     BAS[ATNO][  2].d[ 10] =         2.271072318121;

  // Basis function   4 L = s
  InitBFNGauss(BAS[ATNO][  3]);
  BAS[ATNO][  3].l  = 0;
  BAS[ATNO][  3].ng = 11;
  BAS[ATNO][  3].a[  0] =      4700.236562600000;     BAS[ATNO][  3].d[  0] =         0.000085542995;
  BAS[ATNO][  3].a[  1] =       704.828456220000;     BAS[ATNO][  3].d[  1] =         0.000661720965;
  BAS[ATNO][  3].a[  2] =       160.431104780000;     BAS[ATNO][  3].d[  2] =         0.003408248325;
  BAS[ATNO][  3].a[  3] =        45.425347336000;     BAS[ATNO][  3].d[  3] =         0.013387244425;
  BAS[ATNO][  3].a[  4] =        14.798334125000;     BAS[ATNO][  3].d[  4] =         0.039526569700;
  BAS[ATNO][  3].a[  5] =         5.351245253700;     BAS[ATNO][  3].d[  5] =         0.078687389621;
  BAS[ATNO][  3].a[  6] =         2.154204481900;     BAS[ATNO][  3].d[  6] =         0.238694797299;
  BAS[ATNO][  3].a[  7] =         0.933637444000;     BAS[ATNO][  3].d[  7] =         0.111439654892;
  BAS[ATNO][  3].a[  8] =         0.187914329900;     BAS[ATNO][  3].d[  8] =        -2.832152421662;
  BAS[ATNO][  3].a[  9] =         0.074648267900;     BAS[ATNO][  3].d[  9] =         3.999818274019;
  BAS[ATNO][  3].a[ 10] =         0.032650484600;     BAS[ATNO][  3].d[ 10] =        -1.732010351230;

  // Basis function   5 L = s
  InitBFNGauss(BAS[ATNO][  4]);
  BAS[ATNO][  4].l  = 0;
  BAS[ATNO][  4].ng = 11;
  BAS[ATNO][  4].a[  0] =      4700.236562600000;     BAS[ATNO][  4].d[  0] =         0.000931376798;
  BAS[ATNO][  4].a[  1] =       704.828456220000;     BAS[ATNO][  4].d[  1] =         0.007204699230;
  BAS[ATNO][  4].a[  2] =       160.431104780000;     BAS[ATNO][  4].d[  2] =         0.037108396722;
  BAS[ATNO][  4].a[  3] =        45.425347336000;     BAS[ATNO][  4].d[  3] =         0.145757917182;
  BAS[ATNO][  4].a[  4] =        14.798334125000;     BAS[ATNO][  4].d[  4] =         0.430358204409;
  BAS[ATNO][  4].a[  5] =         5.351245253700;     BAS[ATNO][  4].d[  5] =         0.856734190797;
  BAS[ATNO][  4].a[  6] =         2.154204481900;     BAS[ATNO][  4].d[  6] =        -1.147489434801;
  BAS[ATNO][  4].a[  7] =         0.933637444000;     BAS[ATNO][  4].d[  7] =        -0.535729425414;
  BAS[ATNO][  4].a[  8] =         0.187914329900;     BAS[ATNO][  4].d[  8] =         1.211160515867;
  BAS[ATNO][  4].a[  9] =         0.074648267900;     BAS[ATNO][  4].d[  9] =        -1.111002302071;
  BAS[ATNO][  4].a[ 10] =         0.032650484600;     BAS[ATNO][  4].d[ 10] =         0.431070735382;

  // Basis function   6 L = p
  InitBFNGauss(BAS[ATNO][  5]);
  BAS[ATNO][  5].l  = 1;
  BAS[ATNO][  5].ng = 4;
  BAS[ATNO][  5].a[  0] =         3.631691714500;     BAS[ATNO][  5].d[  0] =         0.018771895701;
  BAS[ATNO][  5].a[  1] =         0.716956943700;     BAS[ATNO][  5].d[  1] =         0.078092166642;
  BAS[ATNO][  5].a[  2] =         0.195419328600;     BAS[ATNO][  5].d[  2] =         0.237838554866;
  BAS[ATNO][  5].a[  3] =         0.060515465900;     BAS[ATNO][  5].d[  3] =         0.795487554822;

  // Basis function   7 L = p
  InitBFNGauss(BAS[ATNO][  6]);
  BAS[ATNO][  6].l  = 1;
  BAS[ATNO][  6].ng = 4;
  BAS[ATNO][  6].a[  0] =         3.631691714500;     BAS[ATNO][  6].d[  0] =         0.034252256063;
  BAS[ATNO][  6].a[  1] =         0.716956943700;     BAS[ATNO][  6].d[  1] =         0.320722314525;
  BAS[ATNO][  6].a[  2] =         0.195419328600;     BAS[ATNO][  6].d[  2] =         0.976796202227;
  BAS[ATNO][  6].a[  3] =         0.060515465900;     BAS[ATNO][  6].d[  3] =        -0.958309019432;

  // Basis function   8 L = p
  InitBFNGauss(BAS[ATNO][  7]);
  BAS[ATNO][  7].l  = 1;
  BAS[ATNO][  7].ng = 4;
  BAS[ATNO][  7].a[  0] =         3.631691714500;     BAS[ATNO][  7].d[  0] =         1.036847111767;
  BAS[ATNO][  7].a[  1] =         0.716956943700;     BAS[ATNO][  7].d[  1] =        -0.103714777736;
  BAS[ATNO][  7].a[  2] =         0.195419328600;     BAS[ATNO][  7].d[  2] =        -0.315875124428;
  BAS[ATNO][  7].a[  3] =         0.060515465900;     BAS[ATNO][  7].d[  3] =         0.188724972983;

  // Basis function   9 L = d
  InitBFNGauss(BAS[ATNO][  8]);
  BAS[ATNO][  8].l  = 2;
  BAS[ATNO][  8].ng = 1;
  BAS[ATNO][  8].a[  0] =         0.180000000000;     BAS[ATNO][  8].d[  0] =         1.000000000000;

-------------------------------------------
RADIAL EXPECTATION VALUES <R**-3> TO <R**3>
-------------------------------------------
   0 :     0.000000    27.718001     3.681366     0.415031     0.233007     0.165393
   1 :     0.000000     1.069010     0.522911     2.649958     8.430351    31.430487
   2 :     0.000000     0.182384     0.200026     6.369858    44.347305   326.631239
   3 :     0.000000     1.433446     0.513229     3.716077    19.446695   126.804081
   4 :     0.000000    48.908664     3.974263     0.775685     1.679239     8.062606
   5 :     0.117496     0.152980     0.333156     3.712629    16.052529    77.966028
   6 :     0.117496     0.152980     0.333156     3.712629    16.052529    77.966028
   7 :     0.117496     0.152980     0.333156     3.712629    16.052529    77.966028
   8 :     0.525278     0.426444     0.524578     3.084970    13.719738    74.028735
   9 :     0.525278     0.426444     0.524578     3.084970    13.719738    74.028735
  10 :     0.525278     0.426444     0.524578     3.084970    13.719738    74.028735
  11 :    14.775682     4.771880     1.972856     0.692212     0.965343     3.229617
  12 :    14.775682     4.771880     1.972856     0.692212     0.965343     3.229617
  13 :    14.775682     4.771880     1.972856     0.692212     0.965343     3.229617
  14 :     0.064995     0.144000     0.361081     3.009011     9.722222   167.167284
  15 :     0.064995     0.144000     0.361081     3.009011     9.722222   167.167284
  16 :     0.064995     0.144000     0.361081     3.009011     9.722222   167.167284
  17 :     0.064995     0.144000     0.361081     3.009011     9.722222   167.167284
  18 :     0.064995     0.144000     0.361081     3.009011     9.722222   167.167284
-------
TIMINGS
-------

Total SCF time: 0 days 0 hours 0 min 0 sec 

Total time                  ....       0.736 sec
Sum of individual times     ....       0.564 sec  ( 76.6%)

Fock matrix formation       ....       0.456 sec  ( 62.0%)
Diagonalization             ....       0.001 sec  (  0.1%)
Density matrix formation    ....       0.000 sec  (  0.0%)
Population analysis         ....       0.007 sec  (  0.9%)
Initial guess               ....       0.079 sec  ( 10.7%)
Orbital Transformation      ....       0.000 sec  (  0.0%)
Orbital Orthonormalization  ....       0.000 sec  (  0.0%)
DIIS solution               ....       0.006 sec  (  0.8%)
SOSCF solution              ....       0.002 sec  (  0.3%)


------------------------------------------------------------------------------- 
                              ORCA-MATRIX DRIVEN CI                            
------------------------------------------------------------------------------- 

--------------------------------
AUTOMATIC CHOICE OF INCORE LEVEL
--------------------------------

Memory available                           ...   2500.00 MB
Memory needed for S+T                      ...      0.01 MB
Memory needed for J+K                      ...      0.01 MB
Memory needed for DIIS                     ...      0.09 MB
Memory needed for 3-ext                    ...      0.04 MB
Memory needed for 4-ext                    ...      0.34 MB
Memory needed for triples                  ...      0.19 MB
 -> Final InCoreLevel    ... 5
 -> check shows that triples correction can be computed


Wavefunction type
-----------------
Correlation treatment                      ...      CCSD     
Single excitations                         ... ON
Orbital optimization                       ... OFF
Calculation of Z vector                    ... OFF
Calculation of Brueckner orbitals          ... OFF
Perturbative triple excitations            ... ON
Calculation of F12 correction              ... OFF
Frozen core treatment                      ... chemical core (2 el)
Reference Wavefunction                     ... RHF
  Internal Orbitals:     1 ...    1 (  1 MO's/  2 electrons)
  Virtual  Orbitals:     2 ...   18 ( 17 MO's              )
Number of AO's                             ...     19
Number of electrons                        ...      4
Number of correlated electrons             ...      2

Algorithmic settings
--------------------
Integral transformation                    ... AO direct full transformation
K(C) Formation                             ... FULL-MO TRAFO
Maximum number of iterations               ...        50
Convergence tolerance (max. residuum)      ... 1.000e-05
Level shift for amplitude update           ... 2.000e-01
Maximum number of DIIS vectors             ...         7
DIIS turned on at iteration                ...         0
Damping before turning on DIIS             ...     0.500
Damping after turning on DIIS              ...     0.000
Pair specific amplitude update             ... OFF
Natural orbital iterations                 ... OFF
Perturbative natural orbital generation    ... OFF
Printlevel                                 ... 2

Memory handling:
----------------
Maximum memory for working arrays          ...   2500 MB
Data storage in matrix containers          ... UNCOMPRESSED
Data type for integral storage             ... DOUBLE
In-Core Storage of quantities:
   Amplitudes+Sigma Vector      ... YES
   J+K operators                ... YES
   DIIS vectors                 ... YES
   3-external integrals         ... YES
   4-external integrals         ... YES


Initializing the integral package          ... done
Warning: reference  - re-canonicalizations have been set to INT 1 VIRT 1

--------------------------
CLOSED-SHELL FOCK OPERATOR
--------------------------

<ss|ss>:          120 b            0 skpd (  0.0%)    0.000 s ( 0.001 ms/b)
<ss|sp>:          225 b            0 skpd (  0.0%)    0.000 s ( 0.001 ms/b)
<ss|sd>:           75 b            0 skpd (  0.0%)    0.000 s ( 0.001 ms/b)
<ss|pp>:           90 b            0 skpd (  0.0%)    0.000 s ( 0.001 ms/b)
<ss|pd>:           45 b            0 skpd (  0.0%)    0.000 s ( 0.001 ms/b)
<ss|dd>:           15 b            0 skpd (  0.0%)    0.000 s ( 0.002 ms/b)
<sp|sp>:          120 b            0 skpd (  0.0%)    0.000 s ( 0.001 ms/b)
<sp|sd>:           75 b            0 skpd (  0.0%)    0.000 s ( 0.001 ms/b)
<sp|pp>: done
<sp|pd>: done
<sp|dd>: done
<sd|sd>:           15 b            0 skpd (  0.0%)    0.000 s ( 0.002 ms/b)
<sd|pp>: done
<sd|pd>: done
<sd|dd>: done
<pp|pp>: done
<pp|pd>: done
<pp|dd>: done
<pd|pd>: done
<pd|dd>: done
<dd|dd>: done
Recanonicalizing the internal orbitals
Recanonicalizing the virtual orbitals
Time needed for Fock operator              ...            0.006 sec
Reference energy                           ...    -14.572579867

------------------------------
PARTIAL COULOMB TRANSFORMATION
------------------------------

Transformation type                        ... one-operator
Dimension of the basis                     ...   19
Number of internal MOs                     ...   18 (1-18)
Pair cutoff                                ... 0.000e+00 Eh
Number of AO pairs included in the trafo   ...  190
Total Number of distinct AO pairs          ...  190
Memory devoted for trafo                   ... 2500.0 MB 
Max. Number of MO pairs treated together   ... 1724631      
Max. Number of MOs treated per batch       ... 90770      
Number Format for Storage                  ... Double (8 Byte)
AO-integral source                         ... DIRECT
Integral package used                      ... LIBINT

Starting integral evaluation:
<ss|**>:          675 b        0 skpd     0.006 s (  0.009 ms/b)
<sp|**>:          675 b        0 skpd     0.017 s (  0.026 ms/b)
<sd|**>:          225 b        0 skpd     0.010 s (  0.045 ms/b)
<pp|**>:          270 b        0 skpd     0.016 s (  0.060 ms/b)
<pd|**>:          135 b        0 skpd     0.016 s (  0.119 ms/b)
<dd|**>:           45 b        0 skpd     0.006 s (  0.123 ms/b)
Closing buffer AOJ ( 0.00 GB; CompressionRatio= 0.99)
Collecting buffer AOJ 
    ... done with AO integral generation
Number of MO pairs included in the trafo   ...  171
    ... Now sorting integrals
IBATCH = 1 of  1
Closing buffer JAO ( 0.00 GB; CompressionRatio= 0.99)
Collecting buffer JAO 
TOTAL TIME for half transformation         ...     0.137 sec
AO-integral generation                     ...     0.006 sec
Half transformation                        ...     0.066 sec
J-integral sorting                         ...     0.062 sec

-------------------------- SECOND HALF TRANSFORMATION -------------------------
Formation of (pq|rs)                       ... ok (     0.066 sec)
Integral sorting                           ... ok (     0.005 sec)

------------------
CLOSED SHELL GUESS
------------------

Initial guess performed in     0.000 sec
E(0)                                       ...    -14.572579867
E(MP2)                                     ...     -0.026075533
Initial E(tot)                             ...    -14.598655400
<T|T>                                      ...      0.027636543
Number of pairs included                   ... 1
Total number of pairs                      ... 1

------------------------------------------------
                  RHF COUPLED CLUSTER ITERATIONS
------------------------------------------------

Number of amplitudes to be optimized       ... 306

Iter       E(tot)           E(Corr)          Delta-E          Residual     Time
  0    -14.598655400     -0.026075533      0.000000000      0.024960690    0.00
                           *** Turning on DIIS ***
  1    -14.606399135     -0.033819268     -0.007743735      0.015843694    0.00
  2    -14.614729280     -0.042149412     -0.008330145      0.004914804    0.00
  3    -14.617272590     -0.044692723     -0.002543310      0.000990748    0.00
  4    -14.617605647     -0.045025780     -0.000333057      0.000286715    0.00
  5    -14.617657940     -0.045078073     -0.000052293      0.000104854    0.00
  6    -14.617669843     -0.045089976     -0.000011903      0.000016317    0.00
  7    -14.617670335     -0.045090467     -0.000000491      0.000004620    0.00
               --- The Coupled-Cluster iterations have converged ---

----------------------
COUPLED CLUSTER ENERGY
----------------------

E(0)                                       ...    -14.572579867
E(CORR)                                    ...     -0.045090467
E(TOT)                                     ...    -14.617670335
Singles Norm <S|S>**1/2                    ...      0.029020864  
T1 diagnostic                              ...      0.020520850  

------------------
LARGEST AMPLITUDES
------------------
   1->  4   1->  4       0.148775
   1->  2   1->  2       0.148775
   1->  3   1->  3       0.148775
   1->  3   1->  8       0.061221
   1->  8   1->  3       0.061221
   1->  2   1->  6       0.060588
   1->  6   1->  2       0.060588
   1->  7   1->  4       0.057027
   1->  4   1->  7       0.057027
   1->  8   1->  8       0.035127
   1->  7   1->  7       0.035127
   1->  6   1->  6       0.035127
   1->  2   1->  7       0.033237
   1->  7   1->  2       0.033237
   1->  8   1->  4       0.032055
   1->  4   1->  8       0.032055


        !!!!!!!!!!!!!!!!!!!!!!!!!!!!!!!!!!!!!!!!!!!!!!!!!!!!!!!!!!!!!!!!!!!!!!!!!! 
        !  Warning: Densities are linearized densities !                         !
        !!!!!!!!!!!!!!!!!!!!!!!!!!!!!!!!!!!!!!!!!!!!!!!!!!!!!!!!!!!!!!!!!!!!!!!!!! 

Trace of internal density part =     -0.205369289
Trace of external density part =      0.205369289
----------------------
RHF TRIPLES CORRECTION (Algorithm 1)
----------------------

Multiplier for the singles contribution    ...      1.000000000

Triples Correction (T)                     ...      0.000000000
Scaling of triples based on CCSD energies (Peterson et al. Molecular Physics 113, 1551 (2015))
E(T*) = f*E(T) where f = E(F12-CCSD)/E(CCSD) 
f = CCSD (with F12)/ CCSD (without F12)    ...      1.000000000
Scaled triples correction (T)              ...      0.000000000

Final correlation energy                   ...     -0.045090467
E(CCSD)                                    ...    -14.617670335
E(CCSD(T))                                 ...    -14.617670335

NORM  =      1.103526855 sqrt=     1.050488865
W(HF) =      0.906185468
------------------------------------------------------------------------------
                           ORCA POPULATION ANALYSIS
------------------------------------------------------------------------------
Input electron density              ... 04_Be.mdcip
BaseName (.gbw .S,...)              ... 04_Be

                    ********************************
                    * MULLIKEN POPULATION ANALYSIS *
                    ********************************

-----------------------
MULLIKEN ATOMIC CHARGES
-----------------------
   0 Be:    0.000000
Sum of atomic charges:    0.0000000

--------------------------------
MULLIKEN REDUCED ORBITAL CHARGES
--------------------------------
  0 Bes       :     3.800022  s :     3.800022
      pz      :     0.066397  p :     0.199191
      px      :     0.066397
      py      :     0.066397
      dz2     :     0.000157  d :     0.000787
      dxz     :     0.000157
      dyz     :     0.000157
      dx2y2   :     0.000157
      dxy     :     0.000157


                     *******************************
                     * LOEWDIN POPULATION ANALYSIS *
                     *******************************

----------------------
LOEWDIN ATOMIC CHARGES
----------------------
   0 Be:    0.000000

-------------------------------
LOEWDIN REDUCED ORBITAL CHARGES
-------------------------------
  0 Bes       :     3.800022  s :     3.800022
      pz      :     0.066397  p :     0.199191
      px      :     0.066397
      py      :     0.066397
      dz2     :     0.000157  d :     0.000787
      dxz     :     0.000157
      dyz     :     0.000157
      dx2y2   :     0.000157
      dxy     :     0.000157


                      *****************************
                      * MAYER POPULATION ANALYSIS *
                      *****************************

  NA   - Mulliken gross atomic population
  ZA   - Total nuclear charge
  QA   - Mulliken gross atomic charge
  VA   - Mayer's total valence
  BVA  - Mayer's bonded valence
  FA   - Mayer's free valence

  ATOM       NA         ZA         QA         VA         BVA        FA
  0 Be     4.0000     4.0000     0.0000     0.7598     0.0000     0.7598





------------------------------------------------------------------------------- 
                                     TIMINGS                                   
------------------------------------------------------------------------------- 


Total execution time                   ...        0.368 sec

Fock Matrix Formation                  ...        0.006 sec (  1.6%)
Initial Guess                          ...        0.000 sec (  0.0%)
DIIS Solver                            ...        0.001 sec (  0.1%)
State Vector Update                    ...        0.000 sec (  0.0%)
Sigma-vector construction              ...        0.019 sec (  5.2%)
  <D|H|D>(4-ext)                       ...        0.003 sec ( 14.9% of sigma)
  Fock-dressing                        ...        0.012 sec ( 64.1% of sigma)
Total Time for computing (T)           ...        0.000 sec (  0.0% of ALL)


-------------------------   --------------------
FINAL SINGLE POINT ENERGY       -14.617670334797
-------------------------   --------------------


                            ***************************************
                            *     ORCA property calculations      *
                            ***************************************

                                    ---------------------
                                    Active property flags
                                    ---------------------
   (+) Dipole Moment


------------------------------------------------------------------------------
                       ORCA ELECTRIC PROPERTIES CALCULATION
------------------------------------------------------------------------------

Dipole Moment Calculation                       ... on
Quadrupole Moment Calculation                   ... off
Polarizability Calculation                      ... off
GBWName                                         ... 04_Be.gbw
Electron density file                           ... 04_Be.scfp
The origin for moment calculation is the CENTER OF MASS  = ( 0.000000,  0.000000  0.000000)

-------------
DIPOLE MOMENT
-------------
                                X             Y             Z
Electronic contribution:      0.00000      -0.00000       0.00000
Nuclear contribution   :      0.00000       0.00000       0.00000
                        -----------------------------------------
Total Dipole Moment    :      0.00000      -0.00000       0.00000
                        -----------------------------------------
Magnitude (a.u.)       :      0.00000
Magnitude (Debye)      :      0.00000



--------------------
Rotational spectrum 
--------------------
 
Rotational constants in cm-1:     0.000000     0.000000     0.000000 
Rotational constants in MHz :     0.000000     0.000000     0.000000 

 Dipole components along the rotational axes: 
x,y,z [a.u.] :     0.000000    -0.000000     0.000000 
x,y,z [Debye]:     0.000000    -0.000000     0.000000 

 

                           *** MDCI DENSITY ***

------------------------------------------------------------------------------
                       ORCA ELECTRIC PROPERTIES CALCULATION
------------------------------------------------------------------------------

Dipole Moment Calculation                       ... on
Quadrupole Moment Calculation                   ... off
Polarizability Calculation                      ... off
GBWName                                         ... 04_Be.gbw
Electron density file                           ... 04_Be.mdcip
The origin for moment calculation is the CENTER OF MASS  = ( 0.000000,  0.000000  0.000000)

-------------
DIPOLE MOMENT
-------------
                                X             Y             Z
Electronic contribution:     -0.00000      -0.00000      -0.00000
Nuclear contribution   :      0.00000       0.00000       0.00000
                        -----------------------------------------
Total Dipole Moment    :     -0.00000      -0.00000      -0.00000
                        -----------------------------------------
Magnitude (a.u.)       :      0.00000
Magnitude (Debye)      :      0.00000



--------------------
Rotational spectrum 
--------------------
 
Rotational constants in cm-1:     0.000000     0.000000     0.000000 
Rotational constants in MHz :     0.000000     0.000000     0.000000 

 Dipole components along the rotational axes: 
x,y,z [a.u.] :    -0.000000    -0.000000    -0.000000 
x,y,z [Debye]:    -0.000000    -0.000000    -0.000000 

 

Timings for individual modules:

Sum of individual times         ...        1.942 sec (=   0.032 min)
GTO integral calculation        ...        0.724 sec (=   0.012 min)  37.3 %
SCF iterations                  ...        0.782 sec (=   0.013 min)  40.3 %
MDCI module                     ...        0.437 sec (=   0.007 min)  22.5 %
                             ****ORCA TERMINATED NORMALLY****
TOTAL RUN TIME: 0 days 0 hours 0 minutes 2 seconds 237 msec
