
                                 *****************
                                 * O   R   C   A *
                                 *****************

           --- An Ab Initio, DFT and Semiempirical electronic structure package ---

                  #######################################################
                  #                        -***-                        #
                  #          Department of theory and spectroscopy      #
                  #               Directorship: Frank Neese             #
                  #        Max Planck Institute fuer Kohlenforschung    #
                  #                Kaiser Wilhelm Platz 1               #
                  #                 D-45470 Muelheim/Ruhr               #
                  #                      Germany                        #
                  #                                                     #
                  #                  All rights reserved                #
                  #                        -***-                        #
                  #######################################################


                         Program Version 4.2.0 -  RELEASE  -


 With contributions from (in alphabetic order):
   Daniel Aravena         : Magnetic Suceptibility
   Michael Atanasov       : Ab Initio Ligand Field Theory (pilot matlab implementation)
   Alexander A. Auer      : GIAO ZORA, VPT2
   Ute Becker             : Parallelization
   Giovanni Bistoni       : ED, misc. LED, open-shell LED, HFLED
   Martin Brehm           : Molecular dynamics
   Dmytro Bykov           : SCF Hessian
   Vijay G. Chilkuri      : MRCI spin determinant printing, contributions to CSF-ICE
   Dipayan Datta          : RHF DLPNO-CCSD density
   Achintya Kumar Dutta   : EOM-CC, STEOM-CC
   Dmitry Ganyushin       : Spin-Orbit,Spin-Spin,Magnetic field MRCI
   Miquel Garcia          : C-PCM Hessian, Gaussian charge scheme
   Yang Guo               : DLPNO-NEVPT2, CIM, IAO-localization
   Andreas Hansen         : Spin unrestricted coupled pair/coupled cluster methods
   Benjamin Helmich-Paris : CASSCF linear response (MC-RPA)
   Lee Huntington         : MR-EOM, pCC
   Robert Izsak           : Overlap fitted RIJCOSX, COSX-SCS-MP3, EOM
   Christian Kollmar      : KDIIS, OOCD, Brueckner-CCSD(T), CCSD density
   Simone Kossmann        : Meta GGA functionals, TD-DFT gradient, OOMP2, MP2 Hessian
   Martin Krupicka        : AUTO-CI
   Lucas Lang             : DCDCAS
   Dagmar Lenk            : GEPOL surface, SMD
   Dimitrios Liakos       : Extrapolation schemes; Compound Job, initial MDCI parallelization
   Dimitrios Manganas     : Further ROCIS development; embedding schemes
   Dimitrios Pantazis     : SARC Basis sets
   Taras Petrenko         : DFT Hessian,TD-DFT gradient, ASA, ECA, R-Raman, ABS, FL, XAS/XES, NRVS
   Peter Pinski           : DLPNO-MP2, DLPNO-MP2 Gradient
   Christoph Reimann      : Effective Core Potentials
   Marius Retegan         : Local ZFS, SOC
   Christoph Riplinger    : Optimizer, TS searches, QM/MM, DLPNO-CCSD(T), (RO)-DLPNO pert. Triples
   Tobias Risthaus        : Range-separated hybrids, TD-DFT gradient, RPA, STAB
   Michael Roemelt        : Original ROCIS implementation
   Masaaki Saitow         : Open-shell DLPNO-CCSD energy and density
   Barbara Sandhoefer     : DKH picture change effects
   Avijit Sen             : IP-ROCIS
   Kantharuban Sivalingam : CASSCF convergence, NEVPT2, FIC-MRCI
   Bernardo de Souza      : ESD, SOC TD-DFT
   Georgi Stoychev        : AutoAux, RI-MP2 NMR
   Willem Van den Heuvel  : Paramagnetic NMR
   Boris Wezisla          : Elementary symmetry handling
   Frank Wennmohs         : Technical directorship


 We gratefully acknowledge several colleagues who have allowed us to
 interface, adapt or use parts of their codes:
   Stefan Grimme, W. Hujo, H. Kruse,             : VdW corrections, initial TS optimization,
                  C. Bannwarth                     DFT functionals, gCP, sTDA/sTD-DF
   Ed Valeev, F. Pavosevic, A. Kumar             : LibInt (2-el integral package), F12 methods
   Garnet Chan, S. Sharma, J. Yang, R. Olivares  : DMRG
   Ulf Ekstrom                                   : XCFun DFT Library
   Mihaly Kallay                                 : mrcc  (arbitrary order and MRCC methods)
   Andreas Klamt, Michael Diedenhofen            : otool_cosmo (COSMO solvation model)
   Jiri Pittner, Ondrej Demel                    : Mk-CCSD
   Frank Weinhold                                : gennbo (NPA and NBO analysis)
   Christopher J. Cramer and Donald G. Truhlar   : smd solvation model
   Lars Goerigk                                  : TD-DFT with DH, B97 family of functionals
   V. Asgeirsson, H. Jonsson                     : NEB implementation
   FAccTs GmbH                                   : IRC, NEB, NEB-TS, Multilevel, MM, QM/MM, CI optimization
   S Lehtola, MJT Oliveira, MAL Marques          : LibXC Library


 Your calculation uses the libint2 library for the computation of 2-el integrals
 For citations please refer to: http://libint.valeyev.net

 Your ORCA version has been built with support for libXC version: 4.2.3
 For citations please refer to: https://tddft.org/programs/libxc/

 This ORCA versions uses:
   CBLAS   interface :  Fast vector & matrix operations
   LAPACKE interface :  Fast linear algebra routines
   SCALAPACK package :  Parallel linear algebra routines


----- Orbital basis set information -----
Your calculation utilizes the basis: def2-TZVP
   F. Weigend and R. Ahlrichs, Phys. Chem. Chem. Phys. 7, 3297 (2005).

================================================================================
                                        WARNINGS
                       Please study these warnings very carefully!
================================================================================


WARNING: your system is open-shell and RHF/RKS was chosen
  ===> : WILL SWITCH to UHF/UKS


WARNING: MDCI localization with Augmented Hessian Foster-Boys
  ===> : Switching off randomization!

WARNING: Post HF methods need fully converged wavefunctions
  ===> : Setting SCFConvForced true
         You can overwrite this default with %scf ConvForced false 


INFO   : the flag for use of LIBINT has been found!

================================================================================
                                       INPUT FILE
================================================================================
NAME = 06_C.in
|  1> #
|  2> # 06_C CCSD(T)/Def2-TZVP
|  3> #
|  4> ! CCSD(T) Def2-TZVP tightscf
|  5> 
|  6> *xyz 0 3
|  7>  C 0.0 0.0 0.0
|  8> *
|  9> 
| 10> %maxcore 5000 
| 11> 
| 12> %pal
| 13> nprocs 6 
| 14> end
| 15> 
| 16> 
| 17>                          ****END OF INPUT****
================================================================================

                       ****************************
                       * Single Point Calculation *
                       ****************************

---------------------------------
CARTESIAN COORDINATES (ANGSTROEM)
---------------------------------
  C      0.000000    0.000000    0.000000

----------------------------
CARTESIAN COORDINATES (A.U.)
----------------------------
  NO LB      ZA    FRAG     MASS         X           Y           Z
   0 C     6.0000    0    12.011    0.000000    0.000000    0.000000

--------------------------------
INTERNAL COORDINATES (ANGSTROEM)
--------------------------------
 C      0   0   0     0.000000000000     0.00000000     0.00000000

---------------------------
INTERNAL COORDINATES (A.U.)
---------------------------
 C      0   0   0     0.000000000000     0.00000000     0.00000000

---------------------
BASIS SET INFORMATION
---------------------
There are 1 groups of distinct atoms

 Group   1 Type C   : 11s6p2d1f contracted to 5s3p2d1f pattern {62111/411/11/1}

Atom   0C    basis set group =>   1


           ************************************************************
           *        Program running with 6 parallel MPI-processes     *
           *              working on a common directory               *
           ************************************************************
------------------------------------------------------------------------------
                           ORCA GTO INTEGRAL CALCULATION
------------------------------------------------------------------------------

                         BASIS SET STATISTICS AND STARTUP INFO

 # of primitive gaussian shells          ...   20
 # of primitive gaussian functions       ...   46
 # of contracted shells                  ...   11
 # of contracted basis functions         ...   31
 Highest angular momentum                ...    3
 Maximum contraction depth               ...    6
 Integral package used                   ... LIBINT
 Integral threshhold            Thresh   ...  2.500e-11
 Primitive cut-off              TCut     ...  2.500e-12


------------------------------ INTEGRAL EVALUATION ----------------------------


 * One electron integrals 
 Pre-screening matrix                    ... done
 Shell pair data                         ... done (   0.000 sec)



           ************************************************************
           *        Program running with 6 parallel MPI-processes     *
           *              working on a common directory               *
           ************************************************************
-------------------------------------------------------------------------------
                                 ORCA SCF
-------------------------------------------------------------------------------

------------
SCF SETTINGS
------------
Hamiltonian:
 Ab initio Hamiltonian  Method          .... Hartree-Fock(GTOs)


General Settings:
 Integral files         IntName         .... 06_C
 Hartree-Fock type      HFTyp           .... UHF
 Total Charge           Charge          ....    0
 Multiplicity           Mult            ....    3
 Number of Electrons    NEL             ....    6
 Basis Dimension        Dim             ....   31
 Nuclear Repulsion      ENuc            ....      0.0000000000 Eh

Convergence Acceleration:
 DIIS                   CNVDIIS         .... on
   Start iteration      DIISMaxIt       ....    12
   Startup error        DIISStart       ....  0.200000
   # of expansion vecs  DIISMaxEq       ....     5
   Bias factor          DIISBfac        ....   1.050
   Max. coefficient     DIISMaxC        ....  10.000
 Newton-Raphson         CNVNR           .... off
 SOSCF                  CNVSOSCF        .... off
 Level Shifting         CNVShift        .... on
   Level shift para.    LevelShift      ....    0.2500
   Turn off err/grad.   ShiftErr        ....    0.0010
 Zerner damping         CNVZerner       .... off
 Static damping         CNVDamp         .... on
   Fraction old density DampFac         ....    0.7000
   Max. Damping (<1)    DampMax         ....    0.9800
   Min. Damping (>=0)   DampMin         ....    0.0000
   Turn off err/grad.   DampErr         ....    0.1000
 Fernandez-Rico         CNVRico         .... off

SCF Procedure:
 Maximum # iterations   MaxIter         ....   125
 SCF integral mode      SCFMode         .... Direct
   Integral package                     .... LIBINT
 Reset frequency        DirectResetFreq ....    20
 Integral Threshold     Thresh          ....  2.500e-11 Eh
 Primitive CutOff       TCut            ....  2.500e-12 Eh

Convergence Tolerance:
 Convergence Check Mode ConvCheckMode   .... Total+1el-Energy
 Convergence forced     ConvForced      .... 1
 Energy Change          TolE            ....  1.000e-08 Eh
 1-El. energy change                    ....  1.000e-05 Eh
 DIIS Error             TolErr          ....  5.000e-07


Diagonalization of the overlap matrix:
Smallest eigenvalue                        ... 2.860e-02
Time for diagonalization                   ...    0.000 sec
Threshold for overlap eigenvalues          ... 1.000e-08
Number of eigenvalues below threshold      ... 0
Time for construction of square roots      ...    0.005 sec
Total time needed                          ...    0.005 sec

-------------------
DFT GRID GENERATION
-------------------

General Integration Accuracy     IntAcc      ...  4.340
Radial Grid Type                 RadialGrid  ... Gauss-Chebyshev
Angular Grid (max. acc.)         AngularGrid ... Lebedev-110
Angular grid pruning method      GridPruning ... 3 (G Style)
Weight generation scheme         WeightScheme... Becke
Basis function cutoff            BFCut       ...    1.0000e-11
Integration weight cutoff        WCut        ...    1.0000e-14
Grids for H and He will be reduced by one unit

# of grid points (after initial pruning)     ...   1656 (   0.0 sec)
# of grid points (after weights+screening)   ...   1656 (   0.0 sec)
Grid point division into batches done        ...    0.0 sec
Reduced shell lists constructed in    0.0 sec

Total number of grid points                  ...     1656
Total number of batches                      ...       26
Average number of points per batch           ...       63
Average number of grid points per atom       ...     1656
Average number of shells per batch           ...     7.17 (65.15%)
Average number of basis functions per batch  ...    22.50 (72.58%)
Average number of large shells per batch     ...     5.50 (76.74%)
Average number of large basis fcns per batch ...    16.17 (71.85%)
Maximum spatial batch extension              ...  16.97, 31.36, 31.36 au
Average spatial batch extension              ...   2.98,  4.37,  5.53 au

Time for grid setup =    0.019 sec

------------------------------
INITIAL GUESS: MODEL POTENTIAL
------------------------------
Loading Hartree-Fock densities                     ... done
Calculating cut-offs                               ... done
Setting up the integral package                    ... done
Initializing the effective Hamiltonian             ... done
Starting the Coulomb interaction                   ... done (   0.0 sec)
Reading the grid                                   ... done
Mapping shells                                     ... done
Starting the XC term evaluation                    ... done (   0.0 sec)
Transforming the Hamiltonian                       ... done (   0.0 sec)
Diagonalizing the Hamiltonian                      ... done (   0.0 sec)
Back transforming the eigenvectors                 ... done (   0.0 sec)
Now organizing SCF variables                       ... done
                      ------------------
                      INITIAL GUESS DONE (   0.1 sec)
                      ------------------
--------------
SCF ITERATIONS
--------------
ITER       Energy         Delta-E        Max-DP      RMS-DP      [F,P]     Damp
               ***  Starting incremental Fock matrix formation  ***
  0    -37.6772544449   0.000000000000 0.01070953  0.00067189  0.2314370 0.7000
  1    -37.6808175004  -0.003563055447 0.01035569  0.00063770  0.1637045 0.7000
                               ***Turning on DIIS***
  2    -37.6836749680  -0.002857467612 0.00845897  0.00052438  0.1151361 0.7000
  3    -37.6526752415   0.030999726462 0.02462777  0.00159706  0.0809508 0.0000
  4    -37.6904248159  -0.037749574413 0.00513597  0.00036701  0.0042848 0.0000
  5    -37.6899110778   0.000513738128 0.00413713  0.00030487  0.0027508 0.0000
  6    -37.6909316393  -0.001020561502 0.00248564  0.00013471  0.0010818 0.0000
  7    -37.6919763719  -0.001044732646 0.00164571  0.00006012  0.0002984 0.0000
  8    -37.6924569509  -0.000480578944 0.00022220  0.00000668  0.0000396 0.0000
  9    -37.6924830772  -0.000026126276 0.00001529  0.00000063  0.0000063 0.0000
                            ***DIIS convergence achieved***

               *****************************************************
               *                     SUCCESS                       *
               *           SCF CONVERGED AFTER  10 CYCLES          *
               *****************************************************


----------------
TOTAL SCF ENERGY
----------------

Total Energy       :          -37.69247875 Eh           -1025.66449 eV

Components:
Nuclear Repulsion  :            0.00000000 Eh               0.00000 eV
Electronic Energy  :          -37.69247875 Eh           -1025.66449 eV
One Electron Energy:          -50.45045553 Eh           -1372.82669 eV
Two Electron Energy:           12.75797678 Eh             347.16220 eV

Virial components:
Potential Energy   :          -75.38658419 Eh           -2051.37325 eV
Kinetic Energy     :           37.69410544 Eh            1025.70875 eV
Virial Ratio       :            1.99995685


---------------
SCF CONVERGENCE
---------------

  Last Energy change         ...    4.3259e-06  Tolerance :   1.0000e-08
  Last MAX-Density change    ...    4.2119e-06  Tolerance :   1.0000e-07
  Last RMS-Density change    ...    1.2384e-07  Tolerance :   5.0000e-09
  Last DIIS Error            ...    7.3441e-07  Tolerance :   5.0000e-07

             **** THE GBW FILE WAS UPDATED (06_C.gbw) ****
             **** DENSITY FILE WAS UPDATED (06_C.scfp) ****
             **** ENERGY FILE WAS UPDATED (06_C.en.tmp) ****
----------------------
UHF SPIN CONTAMINATION
----------------------

Expectation value of <S**2>     :     2.009981
Ideal value S*(S+1) for S=1.0   :     2.000000
Deviation                       :     0.009981

             **** THE GBW FILE WAS UPDATED (06_C.gbw) ****
             **** DENSITY FILE WAS UPDATED (06_C.scfp) ****
----------------
ORBITAL ENERGIES
----------------
                 SPIN UP ORBITALS
  NO   OCC          E(Eh)            E(eV) 
   0   1.0000     -11.345382      -308.7235 
   1   1.0000      -0.828803       -22.5529 
   2   1.0000      -0.438835       -11.9413 
   3   1.0000      -0.438835       -11.9413 
   4   0.0000       0.030122         0.8197 
   5   0.0000       0.240710         6.5501 
   6   0.0000       0.325247         8.8504 
   7   0.0000       0.325247         8.8504 
   8   0.0000       0.382316        10.4033 
   9   0.0000       0.819654        22.3039 
  10   0.0000       0.819654        22.3039 
  11   0.0000       0.838348        22.8126 
  12   0.0000       0.838348        22.8126 
  13   0.0000       0.845919        23.0186 
  14   0.0000       1.432282        38.9744 
  15   0.0000       1.642234        44.6875 
  16   0.0000       1.642234        44.6875 
  17   0.0000       1.689953        45.9859 
  18   0.0000       2.933074        79.8130 
  19   0.0000       2.934986        79.8650 
  20   0.0000       2.934986        79.8650 
  21   0.0000       2.940659        80.0194 
  22   0.0000       2.940659        80.0194 
  23   0.0000       2.949899        80.2708 
  24   0.0000       2.949899        80.2708 
  25   0.0000       3.229391        87.8762 
  26   0.0000       3.229391        87.8762 
  27   0.0000       3.238368        88.1205 
  28   0.0000       3.238368        88.1205 
  29   0.0000       3.241729        88.2119 
  30   0.0000      22.260047       605.7267 

                 SPIN DOWN ORBITALS
  NO   OCC          E(Eh)            E(eV) 
   0   1.0000     -11.299559      -307.4766 
   1   1.0000      -0.583089       -15.8667 
   2   0.0000       0.061222         1.6659 
   3   0.0000       0.110163         2.9977 
   4   0.0000       0.110163         2.9977 
   5   0.0000       0.272007         7.4017 
   6   0.0000       0.406728        11.0676 
   7   0.0000       0.451337        12.2815 
   8   0.0000       0.451337        12.2815 
   9   0.0000       0.888485        24.1769 
  10   0.0000       0.899354        24.4727 
  11   0.0000       0.899354        24.4727 
  12   0.0000       0.934956        25.4414 
  13   0.0000       0.934956        25.4414 
  14   0.0000       1.500504        40.8308 
  15   0.0000       1.716439        46.7067 
  16   0.0000       1.770119        48.1674 
  17   0.0000       1.770119        48.1674 
  18   0.0000       2.973449        80.9116 
  19   0.0000       2.980737        81.1100 
  20   0.0000       2.980737        81.1100 
  21   0.0000       3.002823        81.7110 
  22   0.0000       3.002823        81.7110 
  23   0.0000       3.040538        82.7373 
  24   0.0000       3.040538        82.7373 
  25   0.0000       3.302009        89.8522 
  26   0.0000       3.318160        90.2917 
  27   0.0000       3.318160        90.2917 
  28   0.0000       3.370454        91.7147 
  29   0.0000       3.370454        91.7147 
  30   0.0000      22.291270       606.5763 

                    ********************************
                    * MULLIKEN POPULATION ANALYSIS *
                    ********************************

--------------------------------------------
MULLIKEN ATOMIC CHARGES AND SPIN POPULATIONS
--------------------------------------------
   0 C :   -0.000000    2.000000
Sum of atomic charges         :   -0.0000000
Sum of atomic spin populations:    2.0000000

-----------------------------------------------------
MULLIKEN REDUCED ORBITAL CHARGES AND SPIN POPULATIONS
-----------------------------------------------------
CHARGE
  0 C s       :     3.997166  s :     3.997166
      pz      :     0.996370  p :     1.999997
      px      :     0.003628
      py      :     0.999998
      dz2     :     0.000693  d :     0.002834
      dxz     :     0.000031
      dyz     :     0.000000
      dx2y2   :     0.002110
      dxy     :     0.000000
      f0      :     0.000001  f :     0.000003
      f+1     :     0.000000
      f-1     :     0.000000
      f+2     :     0.000001
      f-2     :     0.000000
      f+3     :     0.000000
      f-3     :     0.000002

SPIN
  0 C s       :    -0.000211  s :    -0.000211
      pz      :     0.996370  p :     1.999997
      px      :     0.003628
      py      :     0.999998
      dz2     :     0.000052  d :     0.000211
      dxz     :     0.000002
      dyz     :     0.000000
      dx2y2   :     0.000157
      dxy     :     0.000000
      f0      :     0.000001  f :     0.000003
      f+1     :     0.000000
      f-1     :     0.000000
      f+2     :     0.000001
      f-2     :     0.000000
      f+3     :     0.000000
      f-3     :     0.000002


                     *******************************
                     * LOEWDIN POPULATION ANALYSIS *
                     *******************************

-------------------------------------------
LOEWDIN ATOMIC CHARGES AND SPIN POPULATIONS
-------------------------------------------
   0 C :   -0.000000    2.000000

----------------------------------------------------
LOEWDIN REDUCED ORBITAL CHARGES AND SPIN POPULATIONS
----------------------------------------------------
CHARGE
  0 C s       :     3.997166  s :     3.997166
      pz      :     0.996370  p :     1.999997
      px      :     0.003628
      py      :     0.999998
      dz2     :     0.000693  d :     0.002834
      dxz     :     0.000031
      dyz     :     0.000000
      dx2y2   :     0.002110
      dxy     :     0.000000
      f0      :     0.000001  f :     0.000003
      f+1     :     0.000000
      f-1     :     0.000000
      f+2     :     0.000001
      f-2     :     0.000000
      f+3     :     0.000000
      f-3     :     0.000002

SPIN
  0 C s       :    -0.000211  s :    -0.000211
      pz      :     0.996370  p :     1.999997
      px      :     0.003628
      py      :     0.999998
      dz2     :     0.000052  d :     0.000211
      dxz     :     0.000002
      dyz     :     0.000000
      dx2y2   :     0.000157
      dxy     :     0.000000
      f0      :     0.000001  f :     0.000003
      f+1     :     0.000000
      f-1     :     0.000000
      f+2     :     0.000001
      f-2     :     0.000000
      f+3     :     0.000000
      f-3     :     0.000002


                      *****************************
                      * MAYER POPULATION ANALYSIS *
                      *****************************

  NA   - Mulliken gross atomic population
  ZA   - Total nuclear charge
  QA   - Mulliken gross atomic charge
  VA   - Mayer's total valence
  BVA  - Mayer's bonded valence
  FA   - Mayer's free valence

  ATOM       NA         ZA         QA         VA         BVA        FA
  0 C      6.0000     6.0000    -0.0000     2.0200     0.0000     2.0200

  Mayer bond orders larger than 0.100000


-------
TIMINGS
-------

Total SCF time: 0 days 0 hours 0 min 1 sec 

Total time                  ....       1.902 sec
Sum of individual times     ....       1.673 sec  ( 88.0%)

Fock matrix formation       ....       1.189 sec  ( 62.5%)
Diagonalization             ....       0.016 sec  (  0.8%)
Density matrix formation    ....       0.001 sec  (  0.0%)
Population analysis         ....       0.224 sec  ( 11.8%)
Initial guess               ....       0.087 sec  (  4.6%)
Orbital Transformation      ....       0.000 sec  (  0.0%)
Orbital Orthonormalization  ....       0.000 sec  (  0.0%)
DIIS solution               ....       0.137 sec  (  7.2%)


           ************************************************************
           *        Program running with 6 parallel MPI-processes     *
           *              working on a common directory               *
           ************************************************************


------------------------------------------------------------------------------- 
                              ORCA-MATRIX DRIVEN CI                            
------------------------------------------------------------------------------- 

--------------------------------
AUTOMATIC CHOICE OF INCORE LEVEL
--------------------------------

Memory available                           ...   2500.00 MB
Memory needed for S+T                      ...      0.10 MB
Memory needed for J+K                      ...      0.20 MB
Memory needed for DIIS                     ...      1.40 MB
Memory needed for 3-ext                    ...      0.45 MB
Memory needed for 4-ext                    ...      2.10 MB
Memory needed for triples                  ...      0.75 MB
 -> Final InCoreLevel    ... 5
 -> check shows that triples correction can be computed


Wavefunction type
-----------------
Correlation treatment                      ...      CCSD     
Single excitations                         ... ON
Orbital optimization                       ... OFF
Calculation of Z vector                    ... OFF
Calculation of Brueckner orbitals          ... OFF
Perturbative triple excitations            ... ON
Calculation of F12 correction              ... OFF
Frozen core treatment                      ... chemical core (2 el)
Reference Wavefunction                     ... UHF
  Alpha-MOs occ    :     1 ...    3 (  3 MO's/  3 electrons)
  Beta-MOs occ     :     1 ...    1 (  1 MO's/  1 electrons)
  Alpha-MOs virt   :     4 ...   30 ( 27 MO's              )
  Beta-MOs virt    :     2 ...   30 ( 29 MO's              )
Number of AO's                             ...     31
Number of electrons                        ...      6
Number of correlated electrons             ...      4

Algorithmic settings
--------------------
Integral transformation                    ... AO direct full transformation
K(C) Formation                             ... FULL-MO TRAFO
Maximum number of iterations               ...        50
Convergence tolerance (max. residuum)      ... 1.000e-05
Level shift for amplitude update           ... 2.000e-01
Maximum number of DIIS vectors             ...         7
DIIS turned on at iteration                ...         0
Damping before turning on DIIS             ...     0.500
Damping after turning on DIIS              ...     0.000
Pair specific amplitude update             ... OFF
Natural orbital iterations                 ... OFF
Perturbative natural orbital generation    ... OFF
Printlevel                                 ... 2

Memory handling:
----------------
Maximum memory for working arrays          ...   2500 MB
Data storage in matrix containers          ... UNCOMPRESSED
Data type for integral storage             ... DOUBLE
In-Core Storage of quantities:
   Amplitudes+Sigma Vector      ... YES
   J+K operators                ... YES
   DIIS vectors                 ... YES
   3-external integrals         ... YES
   4-external integrals         ... YES


Initializing the integral package          ... done
Warning: reference  - re-canonicalizations have been set to INT 1 VIRT 1

--------------------------
UNRESTRICTED FOCK OPERATOR
--------------------------

<ss|ss>:          120 b            0 skpd (  0.0%)    0.000 s ( 0.001 ms/b)
<ss|sp>:          225 b            0 skpd (  0.0%)    0.000 s ( 0.001 ms/b)
<ss|sd>:          150 b            0 skpd (  0.0%)    0.000 s ( 0.000 ms/b)
<ss|sf>:           75 b            0 skpd (  0.0%)    0.000 s ( 0.001 ms/b)
<ss|pp>:           90 b            0 skpd (  0.0%)    0.000 s ( 0.001 ms/b)
<ss|pd>:           90 b            0 skpd (  0.0%)    0.000 s ( 0.001 ms/b)
<ss|pf>:           45 b            0 skpd (  0.0%)    0.000 s ( 0.001 ms/b)
<ss|dd>:           45 b            0 skpd (  0.0%)    0.000 s ( 0.001 ms/b)
<ss|df>:           30 b            0 skpd (  0.0%)    0.000 s ( 0.002 ms/b)
<ss|ff>:           15 b            0 skpd (  0.0%)    0.000 s ( 0.005 ms/b)
<sp|sp>:          120 b            0 skpd (  0.0%)    0.000 s ( 0.001 ms/b)
<sp|sd>:          150 b            0 skpd (  0.0%)    0.000 s ( 0.000 ms/b)
<sp|sf>:           75 b            0 skpd (  0.0%)    0.000 s ( 0.001 ms/b)
<sp|pp>:           90 b            0 skpd (  0.0%)    0.000 s ( 0.002 ms/b)
<sp|pd>:           90 b            0 skpd (  0.0%)    0.000 s ( 0.001 ms/b)
<sp|pf>:           45 b            0 skpd (  0.0%)    0.000 s ( 0.003 ms/b)
<sp|dd>:           45 b            0 skpd (  0.0%)    0.000 s ( 0.002 ms/b)
<sp|df>:           30 b            0 skpd (  0.0%)    0.000 s ( 0.004 ms/b)
<sp|ff>:           15 b            0 skpd (  0.0%)    0.000 s ( 0.011 ms/b)
<sd|sd>:           55 b            0 skpd (  0.0%)    0.000 s ( 0.001 ms/b)
<sd|sf>:           50 b            0 skpd (  0.0%)    0.000 s ( 0.001 ms/b)
<sd|pp>:           60 b            0 skpd (  0.0%)    0.000 s ( 0.002 ms/b)
<sd|pd>:           60 b            0 skpd (  0.0%)    0.000 s ( 0.001 ms/b)
<sd|pf>:           30 b            0 skpd (  0.0%)    0.000 s ( 0.004 ms/b)
<sd|dd>:           30 b            0 skpd (  0.0%)    0.000 s ( 0.003 ms/b)
<sd|df>:           20 b            0 skpd (  0.0%)    0.000 s ( 0.007 ms/b)
<sd|ff>:           10 b            0 skpd (  0.0%)    0.000 s ( 0.018 ms/b)
<sf|sf>:           15 b            0 skpd (  0.0%)    0.000 s ( 0.002 ms/b)
<sf|pp>:           30 b            0 skpd (  0.0%)    0.000 s ( 0.004 ms/b)
<sf|pd>:           30 b            0 skpd (  0.0%)    0.000 s ( 0.002 ms/b)
<sf|pf>:           15 b            0 skpd (  0.0%)    0.000 s ( 0.009 ms/b)
<sf|dd>:           15 b            0 skpd (  0.0%)    0.000 s ( 0.004 ms/b)
<sf|df>:           10 b            0 skpd (  0.0%)    0.000 s ( 0.012 ms/b)
<sf|ff>:            5 b            0 skpd (  0.0%)    0.000 s ( 0.034 ms/b)
<pp|pp>:           21 b            0 skpd (  0.0%)    0.000 s ( 0.007 ms/b)
<pp|pd>:           36 b            0 skpd (  0.0%)    0.000 s ( 0.003 ms/b)
<pp|pf>:           18 b            0 skpd (  0.0%)    0.000 s ( 0.007 ms/b)
<pp|dd>:           18 b            0 skpd (  0.0%)    0.000 s ( 0.004 ms/b)
<pp|df>:           12 b            0 skpd (  0.0%)    0.000 s ( 0.010 ms/b)
<pp|ff>:            6 b            0 skpd (  0.0%)    0.000 s ( 0.029 ms/b)
<pd|pd>:           21 b            0 skpd (  0.0%)    0.000 s ( 0.006 ms/b)
<pd|pf>:           18 b            0 skpd (  0.0%)    0.000 s ( 0.009 ms/b)
<pd|dd>:           18 b            0 skpd (  0.0%)    0.000 s ( 0.009 ms/b)
<pd|df>:           12 b            0 skpd (  0.0%)    0.000 s ( 0.019 ms/b)
<pd|ff>:            6 b            0 skpd (  0.0%)    0.000 s ( 0.047 ms/b)
<pf|pf>:            6 b            0 skpd (  0.0%)    0.000 s ( 0.023 ms/b)
<pf|dd>:            9 b            0 skpd (  0.0%)    0.000 s ( 0.010 ms/b)
<pf|df>:            6 b            0 skpd (  0.0%)    0.000 s ( 0.032 ms/b)
<pf|ff>:            3 b            0 skpd (  0.0%)    0.000 s ( 0.083 ms/b)
<dd|dd>:            6 b            0 skpd (  0.0%)    0.000 s ( 0.013 ms/b)
<dd|df>:            6 b            0 skpd (  0.0%)    0.000 s ( 0.029 ms/b)
<dd|ff>:            3 b            0 skpd (  0.0%)    0.000 s ( 0.073 ms/b)
<df|df>:            3 b            0 skpd (  0.0%)    0.000 s ( 0.058 ms/b)
<df|ff>:            2 b            0 skpd (  0.0%)    0.000 s ( 0.141 ms/b)
<ff|ff>:            1 b            0 skpd (  0.0%)    0.000 s ( 0.257 ms/b)
Recanonicalizing the internal orbitals
Recanonicalizing the virtual orbitals
Time needed for Fock operator              ...            0.023 sec
Reference energy                           ...    -37.692478829
Warning: for UHF the TrafoType has to be JK
Warning: for UHF the K(C)-option cannot be MO but must be AOX

-------------------------------
PARTIAL EXCHANGE TRANSFORMATION
-------------------------------

Transformation type                        ... two-operators
Generation of integrals (i,mue|j,nue)      ... ON
Generation of integrals (mue,kappa|nue,tau)... ON
Generation of integrals (i,mue|a,nue)      ... ON
Dimension of the basis                     ...   31
Number of internal alpha-MOs               ...    3 (   1-   3)
Number of internal beta-MOs                ...    1 (   1-   1)
Number of external alpha-MOs               ...   27 (   4-  30)
Number of external beta-MOs                ...   29 (   2-  30)
Pair cutoff                                ... 0.000e+00 Eh
Number of AO pairs in the trafo            ...  496
Total Number of distinct AO pairs          ...  496
Memory devoted for trafo                   ... 2500.0 MB 
Max. Number of MO pairs treated together   ... 340978      
Number Format for Storage                  ... Double (8 Byte)
Integral package used                      ... LIBINT

Starting integral evaluation:
    ... done with AO integral generation
Closing buffer AOK[aa] ( 0.00 GB; CompressionRatio= 0.86)
Closing buffer AOK[bb] ( 0.00 GB; CompressionRatio= 0.40)
Closing buffer AOK[ab] ( 0.00 GB; CompressionRatio= 0.67)
Closing buffer AOK[ba] ( 0.00 GB; CompressionRatio= 0.67)
Collecting buffer AOK 
Closing buffer IAAO1[aa] ( 0.00 GB; CompressionRatio= 0.98)
Closing buffer IAAO1[bb] ( 0.00 GB; CompressionRatio= 0.95)
Closing buffer IAAO1[ab] ( 0.00 GB; CompressionRatio= 0.98)
Closing buffer IAAO1[ba] ( 0.00 GB; CompressionRatio= 0.95)
Closing buffer IAAO2[aa] ( 0.00 GB; CompressionRatio= 0.98)
Closing buffer IAAO2[bb] ( 0.00 GB; CompressionRatio= 0.95)
Closing buffer IAAO2[ab] ( 0.00 GB; CompressionRatio= 0.98)
Closing buffer IAAO2[ba] ( 0.00 GB; CompressionRatio= 0.95)
Collecting buffer IAAO 
Closing buffer PRQS    ( 0.00 GB; CompressionRatio= 1.00)
Collecting buffer PRQS 
Number of alpha/alpha MO pairs in trafo    ...    6
Number of beta /beta  MO pairs in trafo    ...    1
Number of alpha/ beta MO pairs in trafo    ...    3
------------------------
SORTING OF (i,mue|j,nue)
------------------------

SORTING OF ALPHA/ALPHA PAIRS
IBATCH = 1 of  1
Closing buffer KAO[aa] ( 0.00 GB; CompressionRatio= 1.00)
Collecting buffer KAO 
SORTING OF BETA /BETA  PAIRS
IBATCH = 1 of  1
Closing buffer KAO[bb] ( 0.00 GB; CompressionRatio= 1.00)
Collecting buffer KAO 
SORTING OF ALPHA/BETA  PAIRS
IBATCH = 1 of  1
Closing buffer KAO[ab] ( 0.00 GB; CompressionRatio= 0.998441558442)
Collecting buffer KAO[ab] 
------------------------
SORTING OF (i,mue|a,nue)
------------------------

Number of alpha/alpha (i,a) pairs in trafo  ...   81
Number of beta /beta  (i,a) pairs in trafo  ...   29
Number of alpha/ beta (i,a) pairs in trafo  ...   87
Number of beta /alpha (i,a) pairs in trafo  ...   27
Setting up the alpha/alpha list             ... done
Setting up the beta /beta  list             ... done
Setting up the alpha/beta  list             ... done
Setting up the beta /alpha list             ... done
    ... Now sorting (i,mue|a,nue)integrals
    ... Integrals (i,b|a,c) will be made on the fly
SORTING OF ALPHA/ALPHA PAIRS
IBATCH = 1 of  1
Closing buffer IPAQ[aa]  0.00 GB; CompressionRatio= 1.00)
SORTING OF BETA /BETA  PAIRS
IBATCH = 1 of  1
Closing buffer IPAQ[bb]( 0.00 GB; CompressionRatio= 1.00)
SORTING OF ALPHA/BETA  PAIRS (NMatSort_ab=15)
IBATCH = 1 of  1
Closing buffer IPAQ[ab]( 0.00 GB; CompressionRatio= 1.00)
SORTING OF BETA/ALPHA  PAIRS
IBATCH = 1 of  1
Closing buffer IPAQ[ba]( 0.00 GB; CompressionRatio= 1.00)
N(AO-Batches) Done                         ...       726 
N(AO-Batches) Skipped                      ...         0 
N(IJ)-pairs Skipped                        ...         0 
TOTAL TIME for half transformation         ...     0.915 sec
AO-integral generation                     ...     0.009 sec
Half transformation                        ...     0.267 sec
K-integral sorting                         ...     0.115 sec
<ss|**>: 
------------------------------
PARTIAL COULOMB TRANSFORMATION
------------------------------

Transformation type                        ... two-operators
Dimension of the basis                     ...   31
Number of internal alpha-MOs               ...    3 (1-3)
Number of internal beta-MOs                ...    1 (1-1)
Pair cutoff                                ... 0.000e+00 Eh
Number of AO pairs included in the trafo   ...  496
Total Number of distinct AO pairs          ...  496
Memory devoted for trafo                   ... 2500.0 MB 
Max. Number of MO pairs treated together   ... 660645      
Max. Number of MOs treated per batch       ... 21311      
Number Format for Storage                  ... Double (8 Byte)
AO-integral source                         ... DIRECT
Integral package used                      ... LIBINT

Starting integral evaluation:
<sp|**>:          990 b        0 skpd     0.002 s (  0.002 ms/b)
<sd|**>:          990 b        0 skpd     0.010 s (  0.010 ms/b)
         660 b        0 skpd     0.010 s (  0.016 ms/b)
<sf|**>: <pp|**>:          330 b        0 skpd     0.008 s (  0.024 ms/b)
         396 b        0 skpd     0.009 s (  0.023 ms/b)
<pd|**>:          396 b        0 skpd     0.017 s (  0.044 ms/b)
<pf|**>:          198 b        0 skpd     0.018 s (  0.090 ms/b)
<dd|**>:          198 b        0 skpd     0.018 s (  0.090 ms/b)
<df|**>:          132 b        0 skpd     0.024 s (  0.180 ms/b)
<ff|**>:           66 b        0 skpd     0.015 s (  0.232 ms/b)
Closing buffer AOJ[aa] ( 0.00 GB; CompressionRatio= 0.80)
Closing buffer AOJ[bb] ( 0.00 GB; CompressionRatio= 0.00)
Collecting buffer AOJ 
    ... done with AO integral generation
Number of Alpha-MO pairs included          ...    6
Number of Beta-MO pairs included           ...    1
    ... Now sorting integrals
SORTING ALPHA/ALPHA PAIRS
IBATCH = 1 of  1
Closing buffer JAO[aa] ( 0.00 GB; CompressionRatio= 1.00)
SORTING BETA/BETA PAIRS
IBATCH = 1 of  1
Closing buffer JAO[bb] ( 0.00 GB; CompressionRatio= 1.00)
Collecting buffer JAO 
TOTAL TIME for half transformation         ...     0.160 sec
AO-integral generation                     ...     0.051 sec
Half transformation                        ...     0.081 sec
J-integral sorting                         ...     0.017 sec

-------------------------- SECOND HALF TRANSFORMATION -------------------------
Formation of (ij|kl),(ij|ka), (ij|ab)      ... ok (     0.022 sec)
Formation of (ik|jl),(ik|ja), (ia|jb)      ... ok (     0.034 sec)


-----------------------
SPIN UNRESTRICTED GUESS
-----------------------

Entering MDCI_UHF_Guess, Tailored=0
Spin-components of the MP2 energy:
EMP2(aa)=     -0.012421465
EMP2(bb)=      0.000000000
EMP2(ab)=     -0.053688795

Initial guess performed in     0.001 sec
E(0)                                       ...    -37.692478829
E(MP2)                                     ...     -0.066110260
Initial E(tot)                             ...    -37.758589089
<T|T>                                      ...      0.025203846
Number of pairs included                   ... 6

------------------------------------------------
                  UHF COUPLED CLUSTER ITERATIONS
------------------------------------------------

Number of amplitudes to be optimized       ...         3495

Iter       E(tot)           E(Corr)          Delta-E          Residual     Time      <S|S>**1/2
  0    -37.758589089     -0.066110260     -0.000000000      0.035052529    0.03      0.000000121
                           *** Turning on DIIS ***
  1    -37.770954665     -0.078475836     -0.012365576      0.019995964    0.02      0.007322242
  2    -37.777537006     -0.085058177     -0.006582341      0.007287883    0.01      0.014146094
  3    -37.778783442     -0.086304613     -0.001246436      0.001660136    0.01      0.017477162
  4    -37.778997953     -0.086519124     -0.000214511      0.000200340    0.01      0.018209416
  5    -37.778998103     -0.086519274     -0.000000150      0.000032635    0.01      0.018226559
  6    -37.778999244     -0.086520415     -0.000001141      0.000010209    0.01      0.018207488
  7    -37.778999324     -0.086520495     -0.000000080      0.000003285    0.01      0.018194252
               --- The Coupled-Cluster iterations have converged ---

----------------------
COUPLED CLUSTER ENERGY
----------------------

E(0)                                       ...    -37.692478829
E(CORR)                                    ...     -0.086520495
E(TOT)                                     ...    -37.778999324
Singles norm <S|S>**1/2                    ...      0.018194252 ( 0.013892347, 0.004301905)  
T1 diagnostic                              ...      0.009097126                              

------------------
LARGEST AMPLITUDES
------------------
   1a->  4a   1b->  2b       0.104748
   1a->  4a   1b->  6b       0.060216
   1a->  8a   1b->  2b       0.052492
   2a-> 12a   1b->  2b       0.040833
   3a-> 11a   1b->  2b       0.040833
   1a->  8a   1b->  6b       0.033136
   3a->  7a   2a->  6a       0.032652
   3a->  6a   2a->  7a       0.032652
   3a->  9a   1b->  3b       0.030836
   2a->  9a   1b->  4b       0.030836
   2a-> 10a   1b->  3b       0.030836
   3a-> 10a   1b->  4b       0.030836
   3a->  9a   2a-> 10a       0.027899
   3a-> 10a   2a->  9a       0.027899
   3a->  4a   1b-> 10b       0.027560
   2a->  4a   1b-> 11b       0.027560

----------------------
UHF TRIPLES CORRECTION (Algorithm 1)
----------------------

Multiplier for the singles contribution    ...      1.000000000

SPIN-CASE Alpha-Alpha-Alpha:
10% done
20% done
30% done
40% done
50% done
60% done
70% done
80% done
90% done


SPIN-CASE Beta-Beta-Beta:

SPIN-CASE Alpha-Alpha-Beta:
10% done
20% done
30% done
40% done
50% done
60% done
70% done
80% done
90% done


SPIN-CASE Beta-Beta-Alpha:

Triples Correction (T)                     ...     -0.002030608
    alpha-alpha-alpha ... -0.000049345 (  2.4%)
    alpha-alpha-beta  ... -0.001981262 ( 97.6%)
    alpha-beta -beta  ...  0.000000000 ( -0.0%)
    beta -beta -beta  ...  0.000000000 ( -0.0%)
Scaling of triples based on CCSD energies (Peterson et al. Molecular Physics 113, 1551 (2015))
E(T*) = f*E(T) where f = E(F12-CCSD)/E(CCSD) 
f = CCSD (with F12)/ CCSD (without F12)    ...      1.000000000
Scaled triples correction (T)              ...     -0.002030608

Final correlation energy                   ...     -0.088551103
E(CCSD)                                    ...    -37.778999324
E(CCSD(T))                                 ...    -37.781029932



        !!!!!!!!!!!!!!!!!!!!!!!!!!!!!!!!!!!!!!!!!!!!!!!!!!!!!!!!!!!!!!!!!!!!!!!!!! 
        !  Warning: Densities are linearized densities                           !
        !!!!!!!!!!!!!!!!!!!!!!!!!!!!!!!!!!!!!!!!!!!!!!!!!!!!!!!!!!!!!!!!!!!!!!!!!! 

NORM  =      1.053200634 sqrt=     1.026255638
W(HF) =      0.949486705
------------------------------------------------------------------------------
                           ORCA POPULATION ANALYSIS
------------------------------------------------------------------------------
Input electron density              ... 06_C.mdcip
Input spin density                  ... 06_C.mdcir
BaseName (.gbw .S,...)              ... 06_C

                    ********************************
                    * MULLIKEN POPULATION ANALYSIS *
                    ********************************

------------------------------------------
MULLIKEN ATOMIC CHARGES AND SPIN DENSITIES
------------------------------------------
   0 C :   -0.000000    2.000000
Sum of atomic charges       :   -0.0000000
Sum of atomic spin densities:    2.0000000

---------------------------------------------------
MULLIKEN REDUCED ORBITAL CHARGES AND SPIN DENSITIES
---------------------------------------------------
CHARGE
  0 C s       :     3.934773  s :     3.934773
      pz      :     0.992639  p :     2.037297
      px      :     0.048568
      py      :     0.996090
      dz2     :     0.006035  d :     0.026900
      dxz     :     0.004723
      dyz     :     0.006707
      dx2y2   :     0.004704
      dxy     :     0.004731
      f0      :     0.000185  f :     0.001030
      f+1     :     0.000118
      f-1     :     0.000230
      f+2     :     0.000149
      f-2     :     0.000141
      f+3     :     0.000104
      f-3     :     0.000103

SPIN
  0 C s       :     0.022077  s :     0.022077
      pz      :     0.978023  p :     1.960944
      px      :     0.001328
      py      :     0.981593
      dz2     :     0.004533  d :     0.016521
      dxz     :     0.002054
      dyz     :     0.005761
      dx2y2   :     0.002105
      dxy     :     0.002067
      f0      :     0.000076  f :     0.000458
      f+1     :     0.000057
      f-1     :     0.000090
      f+2     :     0.000066
      f-2     :     0.000062
      f+3     :     0.000053
      f-3     :     0.000053


                     *******************************
                     * LOEWDIN POPULATION ANALYSIS *
                     *******************************

-----------------------------------------
LOEWDIN ATOMIC CHARGES AND SPIN DENSITIES
-----------------------------------------
   0 C :   -0.000000    2.000000

--------------------------------------------------
LOEWDIN REDUCED ORBITAL CHARGES AND SPIN DENSITIES
--------------------------------------------------
CHARGE
  0 C s       :     3.934773  s :     3.934773
      pz      :     0.992639  p :     2.037297
      px      :     0.048568
      py      :     0.996090
      dz2     :     0.006035  d :     0.026900
      dxz     :     0.004723
      dyz     :     0.006707
      dx2y2   :     0.004704
      dxy     :     0.004731
      f0      :     0.000185  f :     0.001030
      f+1     :     0.000118
      f-1     :     0.000230
      f+2     :     0.000149
      f-2     :     0.000141
      f+3     :     0.000104
      f-3     :     0.000103

SPIN
  0 C s       :     0.022077  s :     0.022077
      pz      :     0.978023  p :     1.960944
      px      :     0.001328
      py      :     0.981593
      dz2     :     0.004533  d :     0.016521
      dxz     :     0.002054
      dyz     :     0.005761
      dx2y2   :     0.002105
      dxy     :     0.002067
      f0      :     0.000076  f :     0.000458
      f+1     :     0.000057
      f-1     :     0.000090
      f+2     :     0.000066
      f-2     :     0.000062
      f+3     :     0.000053
      f-3     :     0.000053


                      *****************************
                      * MAYER POPULATION ANALYSIS *
                      *****************************

  NA   - Mulliken gross atomic population
  ZA   - Total nuclear charge
  QA   - Mulliken gross atomic charge
  VA   - Mayer's total valence
  BVA  - Mayer's bonded valence
  FA   - Mayer's free valence

  ATOM       NA         ZA         QA         VA         BVA        FA
  0 C      6.0000     6.0000    -0.0000     2.3301     0.0000     2.3301





------------------------------------------------------------------------------- 
                                     TIMINGS                                   
------------------------------------------------------------------------------- 


Total execution time                   ...        1.536 sec

Fock Matrix Formation                  ...        0.023 sec (  1.5%)
Initial Guess                          ...        0.001 sec (  0.0%)
DIIS Solver                            ...        0.003 sec (  0.2%)
State Vector Update                    ...        0.000 sec (  0.0%)
Sigma-vector construction              ...        0.122 sec (  7.9%)
  <D|H|D>(4-ext)                       ...        0.052 sec ( 42.6% of sigma)
  Fock-dressing                        ...        0.043 sec ( 35.0% of sigma)
  (ij|ab),(ia|jb)-dressing             ...        0.016 sec ( 12.8% of sigma)
Total Time for computing (T)           ...        0.002 sec (  0.1% of ALL)


-------------------------   --------------------
FINAL SINGLE POINT ENERGY       -37.781029931735
-------------------------   --------------------


                            ***************************************
                            *     ORCA property calculations      *
                            ***************************************

                                    ---------------------
                                    Active property flags
                                    ---------------------
   (+) Dipole Moment


------------------------------------------------------------------------------
                       ORCA ELECTRIC PROPERTIES CALCULATION
------------------------------------------------------------------------------

Dipole Moment Calculation                       ... on
Quadrupole Moment Calculation                   ... off
Polarizability Calculation                      ... off
GBWName                                         ... 06_C.gbw
Electron density file                           ... 06_C.scfp
The origin for moment calculation is the CENTER OF MASS  = ( 0.000000,  0.000000  0.000000)

-------------
DIPOLE MOMENT
-------------
                                X             Y             Z
Electronic contribution:      0.00000       0.00000      -0.00000
Nuclear contribution   :      0.00000       0.00000       0.00000
                        -----------------------------------------
Total Dipole Moment    :      0.00000       0.00000      -0.00000
                        -----------------------------------------
Magnitude (a.u.)       :      0.00000
Magnitude (Debye)      :      0.00000



--------------------
Rotational spectrum 
--------------------
 
Rotational constants in cm-1:     0.000000     0.000000     0.000000 
Rotational constants in MHz :     0.000000     0.000000     0.000000 

 Dipole components along the rotational axes: 
x,y,z [a.u.] :     0.000000     0.000000    -0.000000 
x,y,z [Debye]:     0.000000     0.000000    -0.000000 

 

                           *** MDCI DENSITY ***

------------------------------------------------------------------------------
                       ORCA ELECTRIC PROPERTIES CALCULATION
------------------------------------------------------------------------------

Dipole Moment Calculation                       ... on
Quadrupole Moment Calculation                   ... off
Polarizability Calculation                      ... off
GBWName                                         ... 06_C.gbw
Electron density file                           ... 06_C.mdcip
The origin for moment calculation is the CENTER OF MASS  = ( 0.000000,  0.000000  0.000000)

-------------
DIPOLE MOMENT
-------------
                                X             Y             Z
Electronic contribution:      0.00000       0.00000       0.00000
Nuclear contribution   :      0.00000       0.00000       0.00000
                        -----------------------------------------
Total Dipole Moment    :      0.00000       0.00000       0.00000
                        -----------------------------------------
Magnitude (a.u.)       :      0.00000
Magnitude (Debye)      :      0.00000



--------------------
Rotational spectrum 
--------------------
 
Rotational constants in cm-1:     0.000000     0.000000     0.000000 
Rotational constants in MHz :     0.000000     0.000000     0.000000 

 Dipole components along the rotational axes: 
x,y,z [a.u.] :     0.000000     0.000000     0.000000 
x,y,z [Debye]:     0.000000     0.000000     0.000000 

 

Timings for individual modules:

Sum of individual times         ...        4.480 sec (=   0.075 min)
GTO integral calculation        ...        0.496 sec (=   0.008 min)  11.1 %
SCF iterations                  ...        2.168 sec (=   0.036 min)  48.4 %
MDCI module                     ...        1.816 sec (=   0.030 min)  40.5 %
                             ****ORCA TERMINATED NORMALLY****
TOTAL RUN TIME: 0 days 0 hours 0 minutes 5 seconds 15 msec
