
                                 *****************
                                 * O   R   C   A *
                                 *****************

           --- An Ab Initio, DFT and Semiempirical electronic structure package ---

                  #######################################################
                  #                        -***-                        #
                  #          Department of theory and spectroscopy      #
                  #               Directorship: Frank Neese             #
                  #        Max Planck Institute fuer Kohlenforschung    #
                  #                Kaiser Wilhelm Platz 1               #
                  #                 D-45470 Muelheim/Ruhr               #
                  #                      Germany                        #
                  #                                                     #
                  #                  All rights reserved                #
                  #                        -***-                        #
                  #######################################################


                         Program Version 4.2.0 -  RELEASE  -


 With contributions from (in alphabetic order):
   Daniel Aravena         : Magnetic Suceptibility
   Michael Atanasov       : Ab Initio Ligand Field Theory (pilot matlab implementation)
   Alexander A. Auer      : GIAO ZORA, VPT2
   Ute Becker             : Parallelization
   Giovanni Bistoni       : ED, misc. LED, open-shell LED, HFLED
   Martin Brehm           : Molecular dynamics
   Dmytro Bykov           : SCF Hessian
   Vijay G. Chilkuri      : MRCI spin determinant printing, contributions to CSF-ICE
   Dipayan Datta          : RHF DLPNO-CCSD density
   Achintya Kumar Dutta   : EOM-CC, STEOM-CC
   Dmitry Ganyushin       : Spin-Orbit,Spin-Spin,Magnetic field MRCI
   Miquel Garcia          : C-PCM Hessian, Gaussian charge scheme
   Yang Guo               : DLPNO-NEVPT2, CIM, IAO-localization
   Andreas Hansen         : Spin unrestricted coupled pair/coupled cluster methods
   Benjamin Helmich-Paris : CASSCF linear response (MC-RPA)
   Lee Huntington         : MR-EOM, pCC
   Robert Izsak           : Overlap fitted RIJCOSX, COSX-SCS-MP3, EOM
   Christian Kollmar      : KDIIS, OOCD, Brueckner-CCSD(T), CCSD density
   Simone Kossmann        : Meta GGA functionals, TD-DFT gradient, OOMP2, MP2 Hessian
   Martin Krupicka        : AUTO-CI
   Lucas Lang             : DCDCAS
   Dagmar Lenk            : GEPOL surface, SMD
   Dimitrios Liakos       : Extrapolation schemes; Compound Job, initial MDCI parallelization
   Dimitrios Manganas     : Further ROCIS development; embedding schemes
   Dimitrios Pantazis     : SARC Basis sets
   Taras Petrenko         : DFT Hessian,TD-DFT gradient, ASA, ECA, R-Raman, ABS, FL, XAS/XES, NRVS
   Peter Pinski           : DLPNO-MP2, DLPNO-MP2 Gradient
   Christoph Reimann      : Effective Core Potentials
   Marius Retegan         : Local ZFS, SOC
   Christoph Riplinger    : Optimizer, TS searches, QM/MM, DLPNO-CCSD(T), (RO)-DLPNO pert. Triples
   Tobias Risthaus        : Range-separated hybrids, TD-DFT gradient, RPA, STAB
   Michael Roemelt        : Original ROCIS implementation
   Masaaki Saitow         : Open-shell DLPNO-CCSD energy and density
   Barbara Sandhoefer     : DKH picture change effects
   Avijit Sen             : IP-ROCIS
   Kantharuban Sivalingam : CASSCF convergence, NEVPT2, FIC-MRCI
   Bernardo de Souza      : ESD, SOC TD-DFT
   Georgi Stoychev        : AutoAux, RI-MP2 NMR
   Willem Van den Heuvel  : Paramagnetic NMR
   Boris Wezisla          : Elementary symmetry handling
   Frank Wennmohs         : Technical directorship


 We gratefully acknowledge several colleagues who have allowed us to
 interface, adapt or use parts of their codes:
   Stefan Grimme, W. Hujo, H. Kruse,             : VdW corrections, initial TS optimization,
                  C. Bannwarth                     DFT functionals, gCP, sTDA/sTD-DF
   Ed Valeev, F. Pavosevic, A. Kumar             : LibInt (2-el integral package), F12 methods
   Garnet Chan, S. Sharma, J. Yang, R. Olivares  : DMRG
   Ulf Ekstrom                                   : XCFun DFT Library
   Mihaly Kallay                                 : mrcc  (arbitrary order and MRCC methods)
   Andreas Klamt, Michael Diedenhofen            : otool_cosmo (COSMO solvation model)
   Jiri Pittner, Ondrej Demel                    : Mk-CCSD
   Frank Weinhold                                : gennbo (NPA and NBO analysis)
   Christopher J. Cramer and Donald G. Truhlar   : smd solvation model
   Lars Goerigk                                  : TD-DFT with DH, B97 family of functionals
   V. Asgeirsson, H. Jonsson                     : NEB implementation
   FAccTs GmbH                                   : IRC, NEB, NEB-TS, Multilevel, MM, QM/MM, CI optimization
   S Lehtola, MJT Oliveira, MAL Marques          : LibXC Library


 Your calculation uses the libint2 library for the computation of 2-el integrals
 For citations please refer to: http://libint.valeyev.net

 Your ORCA version has been built with support for libXC version: 4.2.3
 For citations please refer to: https://tddft.org/programs/libxc/

 This ORCA versions uses:
   CBLAS   interface :  Fast vector & matrix operations
   LAPACKE interface :  Fast linear algebra routines
   SCALAPACK package :  Parallel linear algebra routines


----- Orbital basis set information -----
Your calculation utilizes the basis: def2-TZVP
   F. Weigend and R. Ahlrichs, Phys. Chem. Chem. Phys. 7, 3297 (2005).

================================================================================
                                        WARNINGS
                       Please study these warnings very carefully!
================================================================================


WARNING: your system is open-shell and RHF/RKS was chosen
  ===> : WILL SWITCH to UHF/UKS


WARNING: MDCI localization with Augmented Hessian Foster-Boys
  ===> : Switching off randomization!

WARNING: Post HF methods need fully converged wavefunctions
  ===> : Setting SCFConvForced true
         You can overwrite this default with %scf ConvForced false 


INFO   : the flag for use of LIBINT has been found!

================================================================================
                                       INPUT FILE
================================================================================
NAME = 08_O.in
|  1> #
|  2> # 08_O CCSD(T)/Def2-TZVP
|  3> #
|  4> ! CCSD(T) Def2-TZVP tightscf
|  5> 
|  6> *xyz 0 3
|  7>  O 0.0 0.0 0.0
|  8> *
|  9> 
| 10> %maxcore 5000 
| 11> 
| 12> %pal
| 13> nprocs 15
| 14> end
| 15> 
| 16> 
| 17>                          ****END OF INPUT****
================================================================================

                       ****************************
                       * Single Point Calculation *
                       ****************************

---------------------------------
CARTESIAN COORDINATES (ANGSTROEM)
---------------------------------
  O      0.000000    0.000000    0.000000

----------------------------
CARTESIAN COORDINATES (A.U.)
----------------------------
  NO LB      ZA    FRAG     MASS         X           Y           Z
   0 O     8.0000    0    15.999    0.000000    0.000000    0.000000

--------------------------------
INTERNAL COORDINATES (ANGSTROEM)
--------------------------------
 O      0   0   0     0.000000000000     0.00000000     0.00000000

---------------------------
INTERNAL COORDINATES (A.U.)
---------------------------
 O      0   0   0     0.000000000000     0.00000000     0.00000000

---------------------
BASIS SET INFORMATION
---------------------
There are 1 groups of distinct atoms

 Group   1 Type O   : 11s6p2d1f contracted to 5s3p2d1f pattern {62111/411/11/1}

Atom   0O    basis set group =>   1


           ************************************************************
           *        Program running with 15 parallel MPI-processes    *
           *              working on a common directory               *
           ************************************************************
------------------------------------------------------------------------------
                           ORCA GTO INTEGRAL CALCULATION
------------------------------------------------------------------------------

                         BASIS SET STATISTICS AND STARTUP INFO

 # of primitive gaussian shells          ...   20
 # of primitive gaussian functions       ...   46
 # of contracted shells                  ...   11
 # of contracted basis functions         ...   31
 Highest angular momentum                ...    3
 Maximum contraction depth               ...    6
 Integral package used                   ... LIBINT
 Integral threshhold            Thresh   ...  2.500e-11
 Primitive cut-off              TCut     ...  2.500e-12


------------------------------ INTEGRAL EVALUATION ----------------------------


 * One electron integrals 
 Pre-screening matrix                    ... done
 Shell pair data                         ... done (   0.000 sec)



           ************************************************************
           *        Program running with 15 parallel MPI-processes    *
           *              working on a common directory               *
           ************************************************************
-------------------------------------------------------------------------------
                                 ORCA SCF
-------------------------------------------------------------------------------

------------
SCF SETTINGS
------------
Hamiltonian:
 Ab initio Hamiltonian  Method          .... Hartree-Fock(GTOs)


General Settings:
 Integral files         IntName         .... 08_O
 Hartree-Fock type      HFTyp           .... UHF
 Total Charge           Charge          ....    0
 Multiplicity           Mult            ....    3
 Number of Electrons    NEL             ....    8
 Basis Dimension        Dim             ....   31
 Nuclear Repulsion      ENuc            ....      0.0000000000 Eh

Convergence Acceleration:
 DIIS                   CNVDIIS         .... on
   Start iteration      DIISMaxIt       ....    12
   Startup error        DIISStart       ....  0.200000
   # of expansion vecs  DIISMaxEq       ....     5
   Bias factor          DIISBfac        ....   1.050
   Max. coefficient     DIISMaxC        ....  10.000
 Newton-Raphson         CNVNR           .... off
 SOSCF                  CNVSOSCF        .... off
 Level Shifting         CNVShift        .... on
   Level shift para.    LevelShift      ....    0.2500
   Turn off err/grad.   ShiftErr        ....    0.0010
 Zerner damping         CNVZerner       .... off
 Static damping         CNVDamp         .... on
   Fraction old density DampFac         ....    0.7000
   Max. Damping (<1)    DampMax         ....    0.9800
   Min. Damping (>=0)   DampMin         ....    0.0000
   Turn off err/grad.   DampErr         ....    0.1000
 Fernandez-Rico         CNVRico         .... off

SCF Procedure:
 Maximum # iterations   MaxIter         ....   125
 SCF integral mode      SCFMode         .... Direct
   Integral package                     .... LIBINT
 Reset frequency        DirectResetFreq ....    20
 Integral Threshold     Thresh          ....  2.500e-11 Eh
 Primitive CutOff       TCut            ....  2.500e-12 Eh

Convergence Tolerance:
 Convergence Check Mode ConvCheckMode   .... Total+1el-Energy
 Convergence forced     ConvForced      .... 1
 Energy Change          TolE            ....  1.000e-08 Eh
 1-El. energy change                    ....  1.000e-05 Eh
 DIIS Error             TolErr          ....  5.000e-07


Diagonalization of the overlap matrix:
Smallest eigenvalue                        ... 3.025e-02
Time for diagonalization                   ...    0.001 sec
Threshold for overlap eigenvalues          ... 1.000e-08
Number of eigenvalues below threshold      ... 0
Time for construction of square roots      ...    0.008 sec
Total time needed                          ...    0.009 sec

-------------------
DFT GRID GENERATION
-------------------

General Integration Accuracy     IntAcc      ...  4.340
Radial Grid Type                 RadialGrid  ... Gauss-Chebyshev
Angular Grid (max. acc.)         AngularGrid ... Lebedev-110
Angular grid pruning method      GridPruning ... 3 (G Style)
Weight generation scheme         WeightScheme... Becke
Basis function cutoff            BFCut       ...    1.0000e-11
Integration weight cutoff        WCut        ...    1.0000e-14
Grids for H and He will be reduced by one unit

# of grid points (after initial pruning)     ...   1716 (   0.0 sec)
# of grid points (after weights+screening)   ...   1716 (   0.0 sec)
Grid point division into batches done        ...    0.0 sec
Reduced shell lists constructed in    0.0 sec

Total number of grid points                  ...     1716
Total number of batches                      ...       27
Average number of points per batch           ...       63
Average number of grid points per atom       ...     1716
Average number of shells per batch           ...     4.67 (42.42%)
Average number of basis functions per batch  ...    14.00 (45.16%)
Average number of large shells per batch     ...     3.33 (71.43%)
Average number of large basis fcns per batch ...     8.67 (61.90%)
Maximum spatial batch extension              ...  13.89, 25.65, 25.65 au
Average spatial batch extension              ...   1.03,  1.90,  1.90 au

Time for grid setup =    0.031 sec

------------------------------
INITIAL GUESS: MODEL POTENTIAL
------------------------------
Loading Hartree-Fock densities                     ... done
Calculating cut-offs                               ... done
Setting up the integral package                    ... done
Initializing the effective Hamiltonian             ... done
Starting the Coulomb interaction                   ... done (   0.0 sec)
Reading the grid                                   ... done
Mapping shells                                     ... done
Starting the XC term evaluation                    ... done (   0.0 sec)
Transforming the Hamiltonian                       ... done (   0.0 sec)
Diagonalizing the Hamiltonian                      ... done (   0.0 sec)
Back transforming the eigenvectors                 ... done (   0.0 sec)
Now organizing SCF variables                       ... done
                      ------------------
                      INITIAL GUESS DONE (   0.2 sec)
                      ------------------
--------------
SCF ITERATIONS
--------------
ITER       Energy         Delta-E        Max-DP      RMS-DP      [F,P]     Damp
               ***  Starting incremental Fock matrix formation  ***
  0    -74.7968744282   0.000000000000 0.00897423  0.00066912  0.3154435 0.7000
  1    -74.8013781140  -0.004503685748 0.00814040  0.00059410  0.2229987 0.7000
                               ***Turning on DIIS***
  2    -74.8049174474  -0.003539333451 0.00648342  0.00046901  0.1572857 0.7000
  3    -74.7724795541   0.032437893270 0.00568133  0.00041547  0.1110311 0.7000
  4    -74.7782489131  -0.005769358989 0.01517116  0.00114703  0.0781570 0.0000
  5    -74.8148114109  -0.036562497769 0.00242941  0.00017542  0.0045096 0.0000
  6    -74.8142683681   0.000543042820 0.00266077  0.00016132  0.0026482 0.0000
  7    -74.8154513570  -0.001182988951 0.00135857  0.00006779  0.0006835 0.0000
  8    -74.8156394429  -0.000188085896 0.00031906  0.00001443  0.0000754 0.0000
  9    -74.8156408695  -0.000001426532 0.00011180  0.00000548  0.0000136 0.0000
 10    -74.8156253483   0.000015521134 0.00003816  0.00000198  0.0000040 0.0000
 11    -74.8156247832   0.000000565115 0.00001716  0.00000092  0.0000022 0.0000
                            ***DIIS convergence achieved***

               *****************************************************
               *                     SUCCESS                       *
               *           SCF CONVERGED AFTER  12 CYCLES          *
               *****************************************************


----------------
TOTAL SCF ENERGY
----------------

Total Energy       :          -74.81562534 Eh           -2035.83667 eV

Components:
Nuclear Repulsion  :            0.00000000 Eh               0.00000 eV
Electronic Energy  :          -74.81562534 Eh           -2035.83667 eV
One Electron Energy:         -103.25836962 Eh           -2809.80309 eV
Two Electron Energy:           28.44274429 Eh             773.96642 eV

Virial components:
Potential Energy   :         -149.63757952 Eh           -4071.84555 eV
Kinetic Energy     :           74.82195418 Eh            2036.00888 eV
Virial Ratio       :            1.99991541


---------------
SCF CONVERGENCE
---------------

  Last Energy change         ...   -5.5204e-07  Tolerance :   1.0000e-08
  Last MAX-Density change    ...    7.3965e-06  Tolerance :   1.0000e-07
  Last RMS-Density change    ...    4.0291e-07  Tolerance :   5.0000e-09
  Last DIIS Error            ...    7.1815e-07  Tolerance :   5.0000e-07

             **** THE GBW FILE WAS UPDATED (08_O.gbw) ****
             **** DENSITY FILE WAS UPDATED (08_O.scfp) ****
             **** ENERGY FILE WAS UPDATED (08_O.en.tmp) ****
----------------------
UHF SPIN CONTAMINATION
----------------------

Expectation value of <S**2>     :     2.008227
Ideal value S*(S+1) for S=1.0   :     2.000000
Deviation                       :     0.008227

             **** THE GBW FILE WAS UPDATED (08_O.gbw) ****
             **** DENSITY FILE WAS UPDATED (08_O.scfp) ****
----------------
ORBITAL ENERGIES
----------------
                 SPIN UP ORBITALS
  NO   OCC          E(Eh)            E(eV) 
   0   1.0000     -20.706003      -563.4390 
   1   1.0000      -1.416246       -38.5380 
   2   1.0000      -0.709256       -19.2998 
   3   1.0000      -0.709256       -19.2998 
   4   1.0000      -0.610025       -16.5996 
   5   0.0000       0.471856        12.8399 
   6   0.0000       0.526319        14.3219 
   7   0.0000       0.526319        14.3219 
   8   0.0000       0.561782        15.2869 
   9   0.0000       1.609728        43.8029 
  10   0.0000       1.609728        43.8029 
  11   0.0000       1.658896        45.1409 
  12   0.0000       1.658896        45.1409 
  13   0.0000       1.676162        45.6107 
  14   0.0000       2.792614        75.9909 
  15   0.0000       2.792614        75.9909 
  16   0.0000       2.860223        77.8306 
  17   0.0000       2.863818        77.9285 
  18   0.0000       5.406752       147.1252 
  19   0.0000       5.406752       147.1252 
  20   0.0000       5.454787       148.4323 
  21   0.0000       5.454787       148.4323 
  22   0.0000       5.484086       149.2296 
  23   0.0000       5.484086       149.2296 
  24   0.0000       5.493942       149.4978 
  25   0.0000       6.511693       177.1922 
  26   0.0000       6.511693       177.1922 
  27   0.0000       6.580245       179.0576 
  28   0.0000       6.580245       179.0576 
  29   0.0000       6.604180       179.7089 
  30   0.0000      44.161146      1201.6859 

                 SPIN DOWN ORBITALS
  NO   OCC          E(Eh)            E(eV) 
   0   1.0000     -20.626702      -561.2811 
   1   1.0000      -1.074501       -29.2387 
   2   1.0000      -0.520892       -14.1742 
   3   0.0000       0.099938         2.7194 
   4   0.0000       0.099938         2.7194 
   5   0.0000       0.515970        14.0403 
   6   0.0000       0.584661        15.9094 
   7   0.0000       0.675258        18.3747 
   8   0.0000       0.675258        18.3747 
   9   0.0000       1.738635        47.3107 
  10   0.0000       1.746267        47.5183 
  11   0.0000       1.746267        47.5183 
  12   0.0000       1.773467        48.2585 
  13   0.0000       1.773467        48.2585 
  14   0.0000       2.910580        79.2009 
  15   0.0000       2.958693        80.5101 
  16   0.0000       2.976787        81.0025 
  17   0.0000       2.976787        81.0025 
  18   0.0000       5.529002       150.4518 
  19   0.0000       5.529002       150.4518 
  20   0.0000       5.539938       150.7494 
  21   0.0000       5.539938       150.7494 
  22   0.0000       5.546365       150.9243 
  23   0.0000       5.546365       150.9243 
  24   0.0000       5.548484       150.9819 
  25   0.0000       6.696613       182.2241 
  26   0.0000       6.700719       182.3358 
  27   0.0000       6.700719       182.3358 
  28   0.0000       6.713930       182.6953 
  29   0.0000       6.713930       182.6953 
  30   0.0000      44.208130      1202.9644 

                    ********************************
                    * MULLIKEN POPULATION ANALYSIS *
                    ********************************

--------------------------------------------
MULLIKEN ATOMIC CHARGES AND SPIN POPULATIONS
--------------------------------------------
   0 O :   -0.000000    2.000000
Sum of atomic charges         :   -0.0000000
Sum of atomic spin populations:    2.0000000

-----------------------------------------------------
MULLIKEN REDUCED ORBITAL CHARGES AND SPIN POPULATIONS
-----------------------------------------------------
CHARGE
  0 O s       :     3.998617  s :     3.998617
      pz      :     0.999941  p :     3.999790
      px      :     0.999941
      py      :     1.999908
      dz2     :     0.000346  d :     0.001383
      dxz     :     0.000000
      dyz     :     0.000000
      dx2y2   :     0.001037
      dxy     :     0.000000
      f0      :     0.000022  f :     0.000210
      f+1     :     0.000004
      f-1     :     0.000034
      f+2     :     0.000037
      f-2     :     0.000000
      f+3     :     0.000056
      f-3     :     0.000057

SPIN
  0 O s       :     0.000424  s :     0.000424
      pz      :     0.999941  p :     1.999793
      px      :     0.999941
      py      :    -0.000088
      dz2     :    -0.000106  d :    -0.000424
      dxz     :     0.000000
      dyz     :    -0.000000
      dx2y2   :    -0.000318
      dxy     :    -0.000000
      f0      :     0.000022  f :     0.000207
      f+1     :     0.000004
      f-1     :     0.000033
      f+2     :     0.000037
      f-2     :     0.000000
      f+3     :     0.000056
      f-3     :     0.000055


                     *******************************
                     * LOEWDIN POPULATION ANALYSIS *
                     *******************************

-------------------------------------------
LOEWDIN ATOMIC CHARGES AND SPIN POPULATIONS
-------------------------------------------
   0 O :   -0.000000    2.000000

----------------------------------------------------
LOEWDIN REDUCED ORBITAL CHARGES AND SPIN POPULATIONS
----------------------------------------------------
CHARGE
  0 O s       :     3.998617  s :     3.998617
      pz      :     0.999941  p :     3.999790
      px      :     0.999941
      py      :     1.999908
      dz2     :     0.000346  d :     0.001383
      dxz     :     0.000000
      dyz     :     0.000000
      dx2y2   :     0.001037
      dxy     :     0.000000
      f0      :     0.000022  f :     0.000210
      f+1     :     0.000004
      f-1     :     0.000034
      f+2     :     0.000037
      f-2     :     0.000000
      f+3     :     0.000056
      f-3     :     0.000057

SPIN
  0 O s       :     0.000424  s :     0.000424
      pz      :     0.999941  p :     1.999793
      px      :     0.999941
      py      :    -0.000088
      dz2     :    -0.000106  d :    -0.000424
      dxz     :     0.000000
      dyz     :    -0.000000
      dx2y2   :    -0.000318
      dxy     :    -0.000000
      f0      :     0.000022  f :     0.000207
      f+1     :     0.000004
      f-1     :     0.000033
      f+2     :     0.000037
      f-2     :     0.000000
      f+3     :     0.000056
      f-3     :     0.000055


                      *****************************
                      * MAYER POPULATION ANALYSIS *
                      *****************************

  NA   - Mulliken gross atomic population
  ZA   - Total nuclear charge
  QA   - Mulliken gross atomic charge
  VA   - Mayer's total valence
  BVA  - Mayer's bonded valence
  FA   - Mayer's free valence

  ATOM       NA         ZA         QA         VA         BVA        FA
  0 O      8.0000     8.0000    -0.0000     2.0165     0.0000     2.0165

  Mayer bond orders larger than 0.100000


-------
TIMINGS
-------

Total SCF time: 0 days 0 hours 0 min 2 sec 

Total time                  ....       2.656 sec
Sum of individual times     ....       2.034 sec  ( 76.6%)

Fock matrix formation       ....       1.506 sec  ( 56.7%)
Diagonalization             ....       0.039 sec  (  1.5%)
Density matrix formation    ....       0.001 sec  (  0.0%)
Population analysis         ....       0.240 sec  (  9.1%)
Initial guess               ....       0.125 sec  (  4.7%)
Orbital Transformation      ....       0.000 sec  (  0.0%)
Orbital Orthonormalization  ....       0.000 sec  (  0.0%)
DIIS solution               ....       0.090 sec  (  3.4%)


           ************************************************************
           *        Program running with 15 parallel MPI-processes    *
           *              working on a common directory               *
           ************************************************************


------------------------------------------------------------------------------- 
                              ORCA-MATRIX DRIVEN CI                            
------------------------------------------------------------------------------- 

--------------------------------
AUTOMATIC CHOICE OF INCORE LEVEL
--------------------------------

Memory available                           ...   2500.00 MB
Memory needed for S+T                      ...      0.15 MB
Memory needed for J+K                      ...      0.31 MB
Memory needed for DIIS                     ...      2.17 MB
Memory needed for 3-ext                    ...      0.54 MB
Memory needed for 4-ext                    ...      1.81 MB
Memory needed for triples                  ...      0.67 MB
 -> Final InCoreLevel    ... 5
 -> check shows that triples correction can be computed


Wavefunction type
-----------------
Correlation treatment                      ...      CCSD     
Single excitations                         ... ON
Orbital optimization                       ... OFF
Calculation of Z vector                    ... OFF
Calculation of Brueckner orbitals          ... OFF
Perturbative triple excitations            ... ON
Calculation of F12 correction              ... OFF
Frozen core treatment                      ... chemical core (2 el)
Reference Wavefunction                     ... UHF
  Alpha-MOs occ    :     1 ...    4 (  4 MO's/  4 electrons)
  Beta-MOs occ     :     1 ...    2 (  2 MO's/  2 electrons)
  Alpha-MOs virt   :     5 ...   30 ( 26 MO's              )
  Beta-MOs virt    :     3 ...   30 ( 28 MO's              )
Number of AO's                             ...     31
Number of electrons                        ...      8
Number of correlated electrons             ...      6

Algorithmic settings
--------------------
Integral transformation                    ... AO direct full transformation
K(C) Formation                             ... FULL-MO TRAFO
Maximum number of iterations               ...        50
Convergence tolerance (max. residuum)      ... 1.000e-05
Level shift for amplitude update           ... 2.000e-01
Maximum number of DIIS vectors             ...         7
DIIS turned on at iteration                ...         0
Damping before turning on DIIS             ...     0.500
Damping after turning on DIIS              ...     0.000
Pair specific amplitude update             ... OFF
Natural orbital iterations                 ... OFF
Perturbative natural orbital generation    ... OFF
Printlevel                                 ... 2

Memory handling:
----------------
Maximum memory for working arrays          ...   2500 MB
Data storage in matrix containers          ... UNCOMPRESSED
Data type for integral storage             ... DOUBLE
In-Core Storage of quantities:
   Amplitudes+Sigma Vector      ... YES
   J+K operators                ... YES
   DIIS vectors                 ... YES
   3-external integrals         ... YES
   4-external integrals         ... YES


Initializing the integral package          ... done
Warning: reference  - re-canonicalizations have been set to INT 1 VIRT 1

--------------------------
UNRESTRICTED FOCK OPERATOR
--------------------------

<ss|ss>:          120 b            0 skpd (  0.0%)    0.000 s ( 0.001 ms/b)
<ss|sp>:          225 b            0 skpd (  0.0%)    0.000 s ( 0.001 ms/b)
<ss|sd>:          150 b            0 skpd (  0.0%)    0.000 s ( 0.000 ms/b)
<ss|sf>:           75 b            0 skpd (  0.0%)    0.000 s ( 0.001 ms/b)
<ss|pp>:           90 b            0 skpd (  0.0%)    0.000 s ( 0.001 ms/b)
<ss|pd>:           90 b            0 skpd (  0.0%)    0.000 s ( 0.001 ms/b)
<ss|pf>:           45 b            0 skpd (  0.0%)    0.000 s ( 0.001 ms/b)
<ss|dd>:           45 b            0 skpd (  0.0%)    0.000 s ( 0.001 ms/b)
<ss|df>:           30 b            0 skpd (  0.0%)    0.000 s ( 0.002 ms/b)
<ss|ff>:           15 b            0 skpd (  0.0%)    0.000 s ( 0.005 ms/b)
<sp|sp>:          120 b            0 skpd (  0.0%)    0.000 s ( 0.001 ms/b)
<sp|sd>:          150 b            0 skpd (  0.0%)    0.000 s ( 0.000 ms/b)
<sp|sf>:           75 b            0 skpd (  0.0%)    0.000 s ( 0.001 ms/b)
<sp|pp>:           90 b            0 skpd (  0.0%)    0.000 s ( 0.002 ms/b)
<sp|pd>:           90 b            0 skpd (  0.0%)    0.000 s ( 0.001 ms/b)
<sp|pf>:           45 b            0 skpd (  0.0%)    0.000 s ( 0.003 ms/b)
<sp|dd>:           45 b            0 skpd (  0.0%)    0.000 s ( 0.002 ms/b)
<sp|df>:           30 b            0 skpd (  0.0%)    0.000 s ( 0.004 ms/b)
<sp|ff>:           15 b            0 skpd (  0.0%)    0.000 s ( 0.010 ms/b)
<sd|sd>:           55 b            0 skpd (  0.0%)    0.000 s ( 0.000 ms/b)
<sd|sf>:           50 b            0 skpd (  0.0%)    0.000 s ( 0.001 ms/b)
<sd|pp>:           60 b            0 skpd (  0.0%)    0.000 s ( 0.002 ms/b)
<sd|pd>:           60 b            0 skpd (  0.0%)    0.000 s ( 0.001 ms/b)
<sd|pf>:           30 b            0 skpd (  0.0%)    0.000 s ( 0.004 ms/b)
<sd|dd>:           30 b            0 skpd (  0.0%)    0.000 s ( 0.004 ms/b)
<sd|df>:           20 b            0 skpd (  0.0%)    0.000 s ( 0.007 ms/b)
<sd|ff>:           10 b            0 skpd (  0.0%)    0.000 s ( 0.018 ms/b)
<sf|sf>:           15 b            0 skpd (  0.0%)    0.000 s ( 0.002 ms/b)
<sf|pp>:           30 b            0 skpd (  0.0%)    0.000 s ( 0.004 ms/b)
<sf|pd>:           30 b            0 skpd (  0.0%)    0.000 s ( 0.002 ms/b)
<sf|pf>:           15 b            0 skpd (  0.0%)    0.000 s ( 0.008 ms/b)
<sf|dd>:           15 b            0 skpd (  0.0%)    0.000 s ( 0.004 ms/b)
<sf|df>:           10 b            0 skpd (  0.0%)    0.000 s ( 0.012 ms/b)
<sf|ff>:            5 b            0 skpd (  0.0%)    0.000 s ( 0.035 ms/b)
<pp|pp>:           21 b            0 skpd (  0.0%)    0.000 s ( 0.007 ms/b)
<pp|pd>:           36 b            0 skpd (  0.0%)    0.000 s ( 0.003 ms/b)
<pp|pf>:           18 b            0 skpd (  0.0%)    0.000 s ( 0.007 ms/b)
<pp|dd>:           18 b            0 skpd (  0.0%)    0.000 s ( 0.005 ms/b)
<pp|df>:           12 b            0 skpd (  0.0%)    0.000 s ( 0.011 ms/b)
<pp|ff>:            6 b            0 skpd (  0.0%)    0.000 s ( 0.029 ms/b)
<pd|pd>:           21 b            0 skpd (  0.0%)    0.000 s ( 0.006 ms/b)
<pd|pf>:           18 b            0 skpd (  0.0%)    0.000 s ( 0.009 ms/b)
<pd|dd>:           18 b            0 skpd (  0.0%)    0.000 s ( 0.011 ms/b)
<pd|df>:           12 b            0 skpd (  0.0%)    0.000 s ( 0.019 ms/b)
<pd|ff>:            6 b            0 skpd (  0.0%)    0.000 s ( 0.048 ms/b)
<pf|pf>:            6 b            0 skpd (  0.0%)    0.000 s ( 0.022 ms/b)
<pf|dd>:            9 b            0 skpd (  0.0%)    0.000 s ( 0.011 ms/b)
<pf|df>:            6 b            0 skpd (  0.0%)    0.000 s ( 0.032 ms/b)
<pf|ff>:            3 b            0 skpd (  0.0%)    0.000 s ( 0.082 ms/b)
<dd|dd>:            6 b            0 skpd (  0.0%)    0.000 s ( 0.013 ms/b)
<dd|df>:            6 b            0 skpd (  0.0%)    0.000 s ( 0.028 ms/b)
<dd|ff>:            3 b            0 skpd (  0.0%)    0.000 s ( 0.074 ms/b)
<df|df>:            3 b            0 skpd (  0.0%)    0.000 s ( 0.058 ms/b)
<df|ff>:            2 b            0 skpd (  0.0%)    0.000 s ( 0.141 ms/b)
<ff|ff>:            1 b            0 skpd (  0.0%)    0.000 s ( 0.259 ms/b)
Recanonicalizing the internal orbitals
Recanonicalizing the virtual orbitals
Time needed for Fock operator              ...            0.035 sec
Reference energy                           ...    -74.815625091
Warning: for UHF the TrafoType has to be JK
Warning: for UHF the K(C)-option cannot be MO but must be AOX

-------------------------------
PARTIAL EXCHANGE TRANSFORMATION
-------------------------------

Transformation type                        ... two-operators
Generation of integrals (i,mue|j,nue)      ... ON
Generation of integrals (mue,kappa|nue,tau)... ON
Generation of integrals (i,mue|a,nue)      ... ON
Dimension of the basis                     ...   31
Number of internal alpha-MOs               ...    4 (   1-   4)
Number of internal beta-MOs                ...    2 (   1-   2)
Number of external alpha-MOs               ...   26 (   5-  30)
Number of external beta-MOs                ...   28 (   3-  30)
Pair cutoff                                ... 0.000e+00 Eh
Number of AO pairs in the trafo            ...  496
Total Number of distinct AO pairs          ...  496
Memory devoted for trafo                   ... 2500.0 MB 
Max. Number of MO pairs treated together   ... 340978      
Number Format for Storage                  ... Double (8 Byte)
Integral package used                      ... LIBINT

Starting integral evaluation:
    ... done with AO integral generation
Closing buffer AOK[aa] ( 0.00 GB; CompressionRatio= 0.00)
Closing buffer AOK[bb] ( 0.00 GB; CompressionRatio= 0.00)
Closing buffer AOK[ab] ( 0.00 GB; CompressionRatio= 0.00)
Closing buffer AOK[ba] ( 0.00 GB; CompressionRatio= 0.00)
Collecting buffer AOK 
Closing buffer IAAO1[aa] ( 0.00 GB; CompressionRatio= 0.00)
Closing buffer IAAO1[bb] ( 0.00 GB; CompressionRatio= 0.00)
Closing buffer IAAO1[ab] ( 0.00 GB; CompressionRatio= 0.00)
Closing buffer IAAO1[ba] ( 0.00 GB; CompressionRatio= 0.00)
Closing buffer IAAO2[aa] ( 0.00 GB; CompressionRatio= 0.00)
Closing buffer IAAO2[bb] ( 0.00 GB; CompressionRatio= 0.00)
Closing buffer IAAO2[ab] ( 0.00 GB; CompressionRatio= 0.00)
Closing buffer IAAO2[ba] ( 0.00 GB; CompressionRatio= 0.00)
Collecting buffer IAAO 
Closing buffer PRQS    ( 0.00 GB; CompressionRatio= 0.00)
Collecting buffer PRQS 
Number of alpha/alpha MO pairs in trafo    ...   10
Number of beta /beta  MO pairs in trafo    ...    3
Number of alpha/ beta MO pairs in trafo    ...    8
------------------------
SORTING OF (i,mue|j,nue)
------------------------

SORTING OF ALPHA/ALPHA PAIRS
IBATCH = 1 of  1
Closing buffer KAO[aa] ( 0.00 GB; CompressionRatio= 1.00)
Collecting buffer KAO 
SORTING OF BETA /BETA  PAIRS
IBATCH = 1 of  1
Closing buffer KAO[bb] ( 0.00 GB; CompressionRatio= 1.00)
Collecting buffer KAO 
SORTING OF ALPHA/BETA  PAIRS
IBATCH = 1 of  1
Closing buffer KAO[ab] ( 0.00 GB; CompressionRatio= 0.998441558442)
Collecting buffer KAO[ab] 
------------------------
SORTING OF (i,mue|a,nue)
------------------------

Number of alpha/alpha (i,a) pairs in trafo  ...  104
Number of beta /beta  (i,a) pairs in trafo  ...   56
Number of alpha/ beta (i,a) pairs in trafo  ...  112
Number of beta /alpha (i,a) pairs in trafo  ...   52
Setting up the alpha/alpha list             ... done
Setting up the beta /beta  list             ... done
Setting up the alpha/beta  list             ... done
Setting up the beta /alpha list             ... done
    ... Now sorting (i,mue|a,nue)integrals
    ... Integrals (i,b|a,c) will be made on the fly
SORTING OF ALPHA/ALPHA PAIRS
IBATCH = 1 of  1
Closing buffer IPAQ[aa]  0.00 GB; CompressionRatio= 1.00)
SORTING OF BETA /BETA  PAIRS
IBATCH = 1 of  1
Closing buffer IPAQ[bb]( 0.00 GB; CompressionRatio= 1.00)
SORTING OF ALPHA/BETA  PAIRS (NMatSort_ab=8)
IBATCH = 1 of  1
Closing buffer IPAQ[ab]( 0.00 GB; CompressionRatio= 1.00)
SORTING OF BETA/ALPHA  PAIRS
IBATCH = 1 of  1
Closing buffer IPAQ[ba]( 0.00 GB; CompressionRatio= 1.00)
N(AO-Batches) Done                         ...         0 
N(AO-Batches) Skipped                      ...         0 
N(IJ)-pairs Skipped                        ...         0 
TOTAL TIME for half transformation         ...     1.395 sec
AO-integral generation                     ...     0.000 sec
Half transformation                        ...     0.000 sec
K-integral sorting                         ...     0.427 sec
<ss|**>: 
------------------------------
PARTIAL COULOMB TRANSFORMATION
------------------------------

Transformation type                        ... two-operators
Dimension of the basis                     ...   31
Number of internal alpha-MOs               ...    4 (1-4)
Number of internal beta-MOs                ...    2 (1-2)
Pair cutoff                                ... 0.000e+00 Eh
Number of AO pairs included in the trafo   ...  496
Total Number of distinct AO pairs          ...  496
Memory devoted for trafo                   ... 2500.0 MB 
Max. Number of MO pairs treated together   ... 660645      
Max. Number of MOs treated per batch       ... 21311      
Number Format for Storage                  ... Double (8 Byte)
AO-integral source                         ... DIRECT
Integral package used                      ... LIBINT

Starting integral evaluation:
<sp|**>:          990 b        0 skpd     0.001 s (  0.001 ms/b)
<sd|**>:          990 b        0 skpd     0.009 s (  0.009 ms/b)
         660 b        0 skpd     0.007 s (  0.011 ms/b)
<sf|**>:          330 b        0 skpd     0.007 s (  0.021 ms/b)
<pp|**>: <pd|**>:          396 b        0 skpd     0.009 s (  0.022 ms/b)
         396 b        0 skpd     0.016 s (  0.040 ms/b)
<pf|**>:          198 b        0 skpd     0.018 s (  0.092 ms/b)
<dd|**>:          198 b        0 skpd     0.020 s (  0.099 ms/b)
<df|**>:          132 b        0 skpd     0.025 s (  0.191 ms/b)
<ff|**>:           66 b        0 skpd     0.018 s (  0.272 ms/b)
Closing buffer AOJ[aa] ( 0.00 GB; CompressionRatio= 0.87)
Closing buffer AOJ[bb] ( 0.00 GB; CompressionRatio= 0.00)
Collecting buffer AOJ 
    ... done with AO integral generation
Number of Alpha-MO pairs included          ...   10
Number of Beta-MO pairs included           ...    3
    ... Now sorting integrals
SORTING ALPHA/ALPHA PAIRS
IBATCH = 1 of  1
Closing buffer JAO[aa] ( 0.00 GB; CompressionRatio= 1.00)
SORTING BETA/BETA PAIRS
IBATCH = 1 of  1
Closing buffer JAO[bb] ( 0.00 GB; CompressionRatio= 1.00)
Collecting buffer JAO 
TOTAL TIME for half transformation         ...     0.205 sec
AO-integral generation                     ...     0.104 sec
Half transformation                        ...     0.027 sec
J-integral sorting                         ...     0.051 sec

-------------------------- SECOND HALF TRANSFORMATION -------------------------
Formation of (ij|kl),(ij|ka), (ij|ab)      ... ok (     0.067 sec)
Formation of (ik|jl),(ik|ja), (ia|jb)      ... ok (     0.148 sec)


-----------------------
SPIN UNRESTRICTED GUESS
-----------------------

Entering MDCI_UHF_Guess, Tailored=0
Spin-components of the MP2 energy:
EMP2(aa)=     -0.030712663
EMP2(bb)=     -0.004175273
EMP2(ab)=     -0.106780444

Initial guess performed in     0.001 sec
E(0)                                       ...    -74.815625091
E(MP2)                                     ...     -0.141668380
Initial E(tot)                             ...    -74.957293472
<T|T>                                      ...      0.028170666
Number of pairs included                   ... 15

------------------------------------------------
                  UHF COUPLED CLUSTER ITERATIONS
------------------------------------------------

Number of amplitudes to be optimized       ...         8324

Iter       E(tot)           E(Corr)          Delta-E          Residual     Time      <S|S>**1/2
  0    -74.957293472     -0.141668380     -0.000000000      0.017241406    0.04      0.000000103
                           *** Turning on DIIS ***
  1    -74.969711581     -0.154086490     -0.012418109      0.006153579    0.02      0.009293291
  2    -74.973261452     -0.157636361     -0.003549871      0.002903602    0.02      0.013971272
  3    -74.973784161     -0.158159070     -0.000522709      0.001546826    0.02      0.015882495
  4    -74.973886227     -0.158261135     -0.000102065      0.000537857    0.02      0.016422391
  5    -74.973899685     -0.158274593     -0.000013458      0.000112016    0.02      0.016447204
  6    -74.973899029     -0.158273937      0.000000656      0.000017635    0.02      0.016404744
  7    -74.973899586     -0.158274494     -0.000000557      0.000003984    0.02      0.016395900
               --- The Coupled-Cluster iterations have converged ---

----------------------
COUPLED CLUSTER ENERGY
----------------------

E(0)                                       ...    -74.815625091
E(CORR)                                    ...     -0.158274494
E(TOT)                                     ...    -74.973899586
Singles norm <S|S>**1/2                    ...      0.016395900 ( 0.012340392, 0.004055508)  
T1 diagnostic                              ...      0.006693598                              

------------------
LARGEST AMPLITUDES
------------------
   4a->  8a   2b->  6b       0.043016
   3a->  7a   2b->  6b       0.029310
   2a->  6a   2b->  6b       0.029310
   4a-> 11a   1b->  3b       0.027081
   4a-> 12a   1b->  4b       0.027081
   3a->  9a   1b->  3b       0.027000
   2a->  9a   1b->  4b       0.027000
   3a-> 10a   1b->  4b       0.027000
   2a-> 10a   1b->  3b       0.027000
   4a-> 13a   2b->  9b       0.025665
   1a->  5a   2b->  6b       0.022207
   4a->  8a   1b->  5b       0.021955
   4a-> 17a   2b-> 14b       0.021782
   4a->  7a   3a->  8a       0.021662
   4a->  8a   3a->  7a       0.021662
   4a->  6a   2a->  8a       0.021662

----------------------
UHF TRIPLES CORRECTION (Algorithm 1)
----------------------

Multiplier for the singles contribution    ...      1.000000000

SPIN-CASE Alpha-Alpha-Alpha:
10% done
20% done
30% done
40% done
50% done
60% done
70% done
80% done
90% done


SPIN-CASE Beta-Beta-Beta:

SPIN-CASE Alpha-Alpha-Beta:
10% done
20% done
30% done
40% done
50% done
60% done
70% done
80% done
90% done


SPIN-CASE Beta-Beta-Alpha:
10% done
20% done
30% done
40% done
50% done
60% done
70% done
80% done
90% done


Triples Correction (T)                     ...     -0.002845523
    alpha-alpha-alpha ... -0.000148829 (  5.2%)
    alpha-alpha-beta  ... -0.002066116 ( 72.6%)
    alpha-beta -beta  ... -0.000630578 ( 22.2%)
    beta -beta -beta  ...  0.000000000 ( -0.0%)
Scaling of triples based on CCSD energies (Peterson et al. Molecular Physics 113, 1551 (2015))
E(T*) = f*E(T) where f = E(F12-CCSD)/E(CCSD) 
f = CCSD (with F12)/ CCSD (without F12)    ...      1.000000000
Scaled triples correction (T)              ...     -0.002845523

Final correlation energy                   ...     -0.161120017
E(CCSD)                                    ...    -74.973899586
E(CCSD(T))                                 ...    -74.976745109



        !!!!!!!!!!!!!!!!!!!!!!!!!!!!!!!!!!!!!!!!!!!!!!!!!!!!!!!!!!!!!!!!!!!!!!!!!! 
        !  Warning: Densities are linearized densities                           !
        !!!!!!!!!!!!!!!!!!!!!!!!!!!!!!!!!!!!!!!!!!!!!!!!!!!!!!!!!!!!!!!!!!!!!!!!!! 

NORM  =      1.038086984 sqrt=     1.018865538
W(HF) =      0.963310411
------------------------------------------------------------------------------
                           ORCA POPULATION ANALYSIS
------------------------------------------------------------------------------
Input electron density              ... 08_O.mdcip
Input spin density                  ... 08_O.mdcir
BaseName (.gbw .S,...)              ... 08_O

                    ********************************
                    * MULLIKEN POPULATION ANALYSIS *
                    ********************************

------------------------------------------
MULLIKEN ATOMIC CHARGES AND SPIN DENSITIES
------------------------------------------
   0 O :   -0.000000    2.000000
Sum of atomic charges       :   -0.0000000
Sum of atomic spin densities:    2.0000000

---------------------------------------------------
MULLIKEN REDUCED ORBITAL CHARGES AND SPIN DENSITIES
---------------------------------------------------
CHARGE
  0 O s       :     3.984955  s :     3.984955
      pz      :     1.000388  p :     3.987905
      px      :     1.000388
      py      :     1.987128
      dz2     :     0.004722  d :     0.024887
      dxz     :     0.004457
      dyz     :     0.005228
      dx2y2   :     0.005252
      dxy     :     0.005228
      f0      :     0.000257  f :     0.002252
      f+1     :     0.000177
      f-1     :     0.000370
      f+2     :     0.000322
      f-2     :     0.000322
      f+3     :     0.000403
      f-3     :     0.000402

SPIN
  0 O s       :     0.011209  s :     0.011209
      pz      :     0.987482  p :     1.975626
      px      :     0.987482
      py      :     0.000662
      dz2     :     0.003134  d :     0.012278
      dxz     :     0.003803
      dyz     :     0.001773
      dx2y2   :     0.001795
      dxy     :     0.001773
      f0      :     0.000106  f :     0.000887
      f+1     :     0.000080
      f-1     :     0.000142
      f+2     :     0.000126
      f-2     :     0.000128
      f+3     :     0.000152
      f-3     :     0.000152


                     *******************************
                     * LOEWDIN POPULATION ANALYSIS *
                     *******************************

-----------------------------------------
LOEWDIN ATOMIC CHARGES AND SPIN DENSITIES
-----------------------------------------
   0 O :   -0.000000    2.000000

--------------------------------------------------
LOEWDIN REDUCED ORBITAL CHARGES AND SPIN DENSITIES
--------------------------------------------------
CHARGE
  0 O s       :     3.984955  s :     3.984955
      pz      :     1.000388  p :     3.987905
      px      :     1.000388
      py      :     1.987128
      dz2     :     0.004722  d :     0.024887
      dxz     :     0.004457
      dyz     :     0.005228
      dx2y2   :     0.005252
      dxy     :     0.005228
      f0      :     0.000257  f :     0.002252
      f+1     :     0.000177
      f-1     :     0.000370
      f+2     :     0.000322
      f-2     :     0.000322
      f+3     :     0.000403
      f-3     :     0.000402

SPIN
  0 O s       :     0.011209  s :     0.011209
      pz      :     0.987482  p :     1.975626
      px      :     0.987482
      py      :     0.000662
      dz2     :     0.003134  d :     0.012278
      dxz     :     0.003803
      dyz     :     0.001773
      dx2y2   :     0.001795
      dxy     :     0.001773
      f0      :     0.000106  f :     0.000887
      f+1     :     0.000080
      f-1     :     0.000142
      f+2     :     0.000126
      f-2     :     0.000128
      f+3     :     0.000152
      f-3     :     0.000152


                      *****************************
                      * MAYER POPULATION ANALYSIS *
                      *****************************

  NA   - Mulliken gross atomic population
  ZA   - Total nuclear charge
  QA   - Mulliken gross atomic charge
  VA   - Mayer's total valence
  BVA  - Mayer's bonded valence
  FA   - Mayer's free valence

  ATOM       NA         ZA         QA         VA         BVA        FA
  0 O      8.0000     8.0000    -0.0000     2.2392     0.0000     2.2392





------------------------------------------------------------------------------- 
                                     TIMINGS                                   
------------------------------------------------------------------------------- 


Total execution time                   ...        2.549 sec

Fock Matrix Formation                  ...        0.035 sec (  1.4%)
Initial Guess                          ...        0.001 sec (  0.0%)
DIIS Solver                            ...        0.007 sec (  0.3%)
State Vector Update                    ...        0.001 sec (  0.0%)
Sigma-vector construction              ...        0.172 sec (  6.7%)
  <D|H|D>(4-ext)                       ...        0.084 sec ( 49.0% of sigma)
  <S|H|0>                              ...        0.002 sec (  1.1% of sigma)
  <D|H|S>(1-ext)                       ...        0.001 sec (  0.7% of sigma)
  Fock-dressing                        ...        0.044 sec ( 25.8% of sigma)
  (ij|ab),(ia|jb)-dressing             ...        0.025 sec ( 14.3% of sigma)
Total Time for computing (T)           ...        0.005 sec (  0.2% of ALL)
  I/O of integral and amplitudes       ...        0.001 sec ( 28.9% of (T))
  N**6 triples energy contributions    ...        0.002 sec ( 41.0% of (T))


-------------------------   --------------------
FINAL SINGLE POINT ENERGY       -74.976745108554
-------------------------   --------------------


                            ***************************************
                            *     ORCA property calculations      *
                            ***************************************

                                    ---------------------
                                    Active property flags
                                    ---------------------
   (+) Dipole Moment


------------------------------------------------------------------------------
                       ORCA ELECTRIC PROPERTIES CALCULATION
------------------------------------------------------------------------------

Dipole Moment Calculation                       ... on
Quadrupole Moment Calculation                   ... off
Polarizability Calculation                      ... off
GBWName                                         ... 08_O.gbw
Electron density file                           ... 08_O.scfp
The origin for moment calculation is the CENTER OF MASS  = ( 0.000000,  0.000000  0.000000)

-------------
DIPOLE MOMENT
-------------
                                X             Y             Z
Electronic contribution:     -0.00000      -0.00000       0.00000
Nuclear contribution   :      0.00000       0.00000       0.00000
                        -----------------------------------------
Total Dipole Moment    :     -0.00000      -0.00000       0.00000
                        -----------------------------------------
Magnitude (a.u.)       :      0.00000
Magnitude (Debye)      :      0.00000



--------------------
Rotational spectrum 
--------------------
 
Rotational constants in cm-1:     0.000000     0.000000     0.000000 
Rotational constants in MHz :     0.000000     0.000000     0.000000 

 Dipole components along the rotational axes: 
x,y,z [a.u.] :    -0.000000    -0.000000     0.000000 
x,y,z [Debye]:    -0.000000    -0.000000     0.000000 

 

                           *** MDCI DENSITY ***

------------------------------------------------------------------------------
                       ORCA ELECTRIC PROPERTIES CALCULATION
------------------------------------------------------------------------------

Dipole Moment Calculation                       ... on
Quadrupole Moment Calculation                   ... off
Polarizability Calculation                      ... off
GBWName                                         ... 08_O.gbw
Electron density file                           ... 08_O.mdcip
The origin for moment calculation is the CENTER OF MASS  = ( 0.000000,  0.000000  0.000000)

-------------
DIPOLE MOMENT
-------------
                                X             Y             Z
Electronic contribution:     -0.00000       0.00000      -0.00000
Nuclear contribution   :      0.00000       0.00000       0.00000
                        -----------------------------------------
Total Dipole Moment    :     -0.00000       0.00000      -0.00000
                        -----------------------------------------
Magnitude (a.u.)       :      0.00000
Magnitude (Debye)      :      0.00000



--------------------
Rotational spectrum 
--------------------
 
Rotational constants in cm-1:     0.000000     0.000000     0.000000 
Rotational constants in MHz :     0.000000     0.000000     0.000000 

 Dipole components along the rotational axes: 
x,y,z [a.u.] :    -0.000000     0.000000    -0.000000 
x,y,z [Debye]:    -0.000000     0.000000    -0.000000 

 

Timings for individual modules:

Sum of individual times         ...        6.596 sec (=   0.110 min)
GTO integral calculation        ...        0.693 sec (=   0.012 min)  10.5 %
SCF iterations                  ...        2.983 sec (=   0.050 min)  45.2 %
MDCI module                     ...        2.920 sec (=   0.049 min)  44.3 %
                             ****ORCA TERMINATED NORMALLY****
TOTAL RUN TIME: 0 days 0 hours 0 minutes 7 seconds 271 msec
