
                                 *****************
                                 * O   R   C   A *
                                 *****************

           --- An Ab Initio, DFT and Semiempirical electronic structure package ---

                  #######################################################
                  #                        -***-                        #
                  #          Department of theory and spectroscopy      #
                  #               Directorship: Frank Neese             #
                  #        Max Planck Institute fuer Kohlenforschung    #
                  #                Kaiser Wilhelm Platz 1               #
                  #                 D-45470 Muelheim/Ruhr               #
                  #                      Germany                        #
                  #                                                     #
                  #                  All rights reserved                #
                  #                        -***-                        #
                  #######################################################


                         Program Version 4.2.0 -  RELEASE  -


 With contributions from (in alphabetic order):
   Daniel Aravena         : Magnetic Suceptibility
   Michael Atanasov       : Ab Initio Ligand Field Theory (pilot matlab implementation)
   Alexander A. Auer      : GIAO ZORA, VPT2
   Ute Becker             : Parallelization
   Giovanni Bistoni       : ED, misc. LED, open-shell LED, HFLED
   Martin Brehm           : Molecular dynamics
   Dmytro Bykov           : SCF Hessian
   Vijay G. Chilkuri      : MRCI spin determinant printing, contributions to CSF-ICE
   Dipayan Datta          : RHF DLPNO-CCSD density
   Achintya Kumar Dutta   : EOM-CC, STEOM-CC
   Dmitry Ganyushin       : Spin-Orbit,Spin-Spin,Magnetic field MRCI
   Miquel Garcia          : C-PCM Hessian, Gaussian charge scheme
   Yang Guo               : DLPNO-NEVPT2, CIM, IAO-localization
   Andreas Hansen         : Spin unrestricted coupled pair/coupled cluster methods
   Benjamin Helmich-Paris : CASSCF linear response (MC-RPA)
   Lee Huntington         : MR-EOM, pCC
   Robert Izsak           : Overlap fitted RIJCOSX, COSX-SCS-MP3, EOM
   Christian Kollmar      : KDIIS, OOCD, Brueckner-CCSD(T), CCSD density
   Simone Kossmann        : Meta GGA functionals, TD-DFT gradient, OOMP2, MP2 Hessian
   Martin Krupicka        : AUTO-CI
   Lucas Lang             : DCDCAS
   Dagmar Lenk            : GEPOL surface, SMD
   Dimitrios Liakos       : Extrapolation schemes; Compound Job, initial MDCI parallelization
   Dimitrios Manganas     : Further ROCIS development; embedding schemes
   Dimitrios Pantazis     : SARC Basis sets
   Taras Petrenko         : DFT Hessian,TD-DFT gradient, ASA, ECA, R-Raman, ABS, FL, XAS/XES, NRVS
   Peter Pinski           : DLPNO-MP2, DLPNO-MP2 Gradient
   Christoph Reimann      : Effective Core Potentials
   Marius Retegan         : Local ZFS, SOC
   Christoph Riplinger    : Optimizer, TS searches, QM/MM, DLPNO-CCSD(T), (RO)-DLPNO pert. Triples
   Tobias Risthaus        : Range-separated hybrids, TD-DFT gradient, RPA, STAB
   Michael Roemelt        : Original ROCIS implementation
   Masaaki Saitow         : Open-shell DLPNO-CCSD energy and density
   Barbara Sandhoefer     : DKH picture change effects
   Avijit Sen             : IP-ROCIS
   Kantharuban Sivalingam : CASSCF convergence, NEVPT2, FIC-MRCI
   Bernardo de Souza      : ESD, SOC TD-DFT
   Georgi Stoychev        : AutoAux, RI-MP2 NMR
   Willem Van den Heuvel  : Paramagnetic NMR
   Boris Wezisla          : Elementary symmetry handling
   Frank Wennmohs         : Technical directorship


 We gratefully acknowledge several colleagues who have allowed us to
 interface, adapt or use parts of their codes:
   Stefan Grimme, W. Hujo, H. Kruse,             : VdW corrections, initial TS optimization,
                  C. Bannwarth                     DFT functionals, gCP, sTDA/sTD-DF
   Ed Valeev, F. Pavosevic, A. Kumar             : LibInt (2-el integral package), F12 methods
   Garnet Chan, S. Sharma, J. Yang, R. Olivares  : DMRG
   Ulf Ekstrom                                   : XCFun DFT Library
   Mihaly Kallay                                 : mrcc  (arbitrary order and MRCC methods)
   Andreas Klamt, Michael Diedenhofen            : otool_cosmo (COSMO solvation model)
   Jiri Pittner, Ondrej Demel                    : Mk-CCSD
   Frank Weinhold                                : gennbo (NPA and NBO analysis)
   Christopher J. Cramer and Donald G. Truhlar   : smd solvation model
   Lars Goerigk                                  : TD-DFT with DH, B97 family of functionals
   V. Asgeirsson, H. Jonsson                     : NEB implementation
   FAccTs GmbH                                   : IRC, NEB, NEB-TS, Multilevel, MM, QM/MM, CI optimization
   S Lehtola, MJT Oliveira, MAL Marques          : LibXC Library


 Your calculation uses the libint2 library for the computation of 2-el integrals
 For citations please refer to: http://libint.valeyev.net

 Your ORCA version has been built with support for libXC version: 4.2.3
 For citations please refer to: https://tddft.org/programs/libxc/

 This ORCA versions uses:
   CBLAS   interface :  Fast vector & matrix operations
   LAPACKE interface :  Fast linear algebra routines
   SCALAPACK package :  Parallel linear algebra routines


----- Orbital basis set information -----
Your calculation utilizes the basis: def2-TZVP
   F. Weigend and R. Ahlrichs, Phys. Chem. Chem. Phys. 7, 3297 (2005).

================================================================================
                                        WARNINGS
                       Please study these warnings very carefully!
================================================================================


WARNING: your system is open-shell and RHF/RKS was chosen
  ===> : WILL SWITCH to UHF/UKS


WARNING: MDCI localization with Augmented Hessian Foster-Boys
  ===> : Switching off randomization!

WARNING: Post HF methods need fully converged wavefunctions
  ===> : Setting SCFConvForced true
         You can overwrite this default with %scf ConvForced false 


INFO   : the flag for use of LIBINT has been found!

================================================================================
                                       INPUT FILE
================================================================================
NAME = 09_F.in
|  1> #
|  2> # 09_F CCSD(T)/Def2-TZVP
|  3> #
|  4> ! CCSD(T) Def2-TZVP tightscf
|  5> 
|  6> *xyz 0 2
|  7>  F 0.0 0.0 0.0
|  8> *
|  9> 
| 10> %maxcore 5000 
| 11> 
| 12> %pal
| 13> nprocs 21
| 14> end
| 15> 
| 16> 
| 17>                          ****END OF INPUT****
================================================================================

                       ****************************
                       * Single Point Calculation *
                       ****************************

---------------------------------
CARTESIAN COORDINATES (ANGSTROEM)
---------------------------------
  F      0.000000    0.000000    0.000000

----------------------------
CARTESIAN COORDINATES (A.U.)
----------------------------
  NO LB      ZA    FRAG     MASS         X           Y           Z
   0 F     9.0000    0    18.998    0.000000    0.000000    0.000000

--------------------------------
INTERNAL COORDINATES (ANGSTROEM)
--------------------------------
 F      0   0   0     0.000000000000     0.00000000     0.00000000

---------------------------
INTERNAL COORDINATES (A.U.)
---------------------------
 F      0   0   0     0.000000000000     0.00000000     0.00000000

---------------------
BASIS SET INFORMATION
---------------------
There are 1 groups of distinct atoms

 Group   1 Type F   : 11s6p2d1f contracted to 5s3p2d1f pattern {62111/411/11/1}

Atom   0F    basis set group =>   1


           ************************************************************
           *        Program running with 21 parallel MPI-processes    *
           *              working on a common directory               *
           ************************************************************
------------------------------------------------------------------------------
                           ORCA GTO INTEGRAL CALCULATION
------------------------------------------------------------------------------

                         BASIS SET STATISTICS AND STARTUP INFO

 # of primitive gaussian shells          ...   20
 # of primitive gaussian functions       ...   46
 # of contracted shells                  ...   11
 # of contracted basis functions         ...   31
 Highest angular momentum                ...    3
 Maximum contraction depth               ...    6
 Integral package used                   ... LIBINT
 Integral threshhold            Thresh   ...  2.500e-11
 Primitive cut-off              TCut     ...  2.500e-12


------------------------------ INTEGRAL EVALUATION ----------------------------


 * One electron integrals 
 Pre-screening matrix                    ... done
 Shell pair data                         ... done (   0.000 sec)



           ************************************************************
           *        Program running with 21 parallel MPI-processes    *
           *              working on a common directory               *
           ************************************************************
-------------------------------------------------------------------------------
                                 ORCA SCF
-------------------------------------------------------------------------------

------------
SCF SETTINGS
------------
Hamiltonian:
 Ab initio Hamiltonian  Method          .... Hartree-Fock(GTOs)


General Settings:
 Integral files         IntName         .... 09_F
 Hartree-Fock type      HFTyp           .... UHF
 Total Charge           Charge          ....    0
 Multiplicity           Mult            ....    2
 Number of Electrons    NEL             ....    9
 Basis Dimension        Dim             ....   31
 Nuclear Repulsion      ENuc            ....      0.0000000000 Eh

Convergence Acceleration:
 DIIS                   CNVDIIS         .... on
   Start iteration      DIISMaxIt       ....    12
   Startup error        DIISStart       ....  0.200000
   # of expansion vecs  DIISMaxEq       ....     5
   Bias factor          DIISBfac        ....   1.050
   Max. coefficient     DIISMaxC        ....  10.000
 Newton-Raphson         CNVNR           .... off
 SOSCF                  CNVSOSCF        .... off
 Level Shifting         CNVShift        .... on
   Level shift para.    LevelShift      ....    0.2500
   Turn off err/grad.   ShiftErr        ....    0.0010
 Zerner damping         CNVZerner       .... off
 Static damping         CNVDamp         .... on
   Fraction old density DampFac         ....    0.7000
   Max. Damping (<1)    DampMax         ....    0.9800
   Min. Damping (>=0)   DampMin         ....    0.0000
   Turn off err/grad.   DampErr         ....    0.1000
 Fernandez-Rico         CNVRico         .... off

SCF Procedure:
 Maximum # iterations   MaxIter         ....   125
 SCF integral mode      SCFMode         .... Direct
   Integral package                     .... LIBINT
 Reset frequency        DirectResetFreq ....    20
 Integral Threshold     Thresh          ....  2.500e-11 Eh
 Primitive CutOff       TCut            ....  2.500e-12 Eh

Convergence Tolerance:
 Convergence Check Mode ConvCheckMode   .... Total+1el-Energy
 Convergence forced     ConvForced      .... 1
 Energy Change          TolE            ....  1.000e-08 Eh
 1-El. energy change                    ....  1.000e-05 Eh
 DIIS Error             TolErr          ....  5.000e-07


Diagonalization of the overlap matrix:
Smallest eigenvalue                        ... 3.088e-02
Time for diagonalization                   ...    0.001 sec
Threshold for overlap eigenvalues          ... 1.000e-08
Number of eigenvalues below threshold      ... 0
Time for construction of square roots      ...    0.012 sec
Total time needed                          ...    0.013 sec

-------------------
DFT GRID GENERATION
-------------------

General Integration Accuracy     IntAcc      ...  4.340
Radial Grid Type                 RadialGrid  ... Gauss-Chebyshev
Angular Grid (max. acc.)         AngularGrid ... Lebedev-110
Angular grid pruning method      GridPruning ... 3 (G Style)
Weight generation scheme         WeightScheme... Becke
Basis function cutoff            BFCut       ...    1.0000e-11
Integration weight cutoff        WCut        ...    1.0000e-14
Grids for H and He will be reduced by one unit

# of grid points (after initial pruning)     ...   1740 (   0.0 sec)
# of grid points (after weights+screening)   ...   1740 (   0.0 sec)
Grid point division into batches done        ...    0.0 sec
Reduced shell lists constructed in    0.0 sec

Total number of grid points                  ...     1740
Total number of batches                      ...       28
Average number of points per batch           ...       62
Average number of grid points per atom       ...     1740
Average number of shells per batch           ...     3.33 (30.30%)
Average number of basis functions per batch  ...     8.67 (27.96%)
Average number of large shells per batch     ...     3.33 (100.00%)
Average number of large basis fcns per batch ...     8.67 (100.00%)
Maximum spatial batch extension              ...  13.89, 25.65, 25.65 au
Average spatial batch extension              ...   0.99,  1.83,  1.83 au

Time for grid setup =    0.044 sec

------------------------------
INITIAL GUESS: MODEL POTENTIAL
------------------------------
Loading Hartree-Fock densities                     ... done
Calculating cut-offs                               ... done
Setting up the integral package                    ... done
Initializing the effective Hamiltonian             ... done
Starting the Coulomb interaction                   ... done (   0.0 sec)
Reading the grid                                   ... done
Mapping shells                                     ... done
Starting the XC term evaluation                    ... done (   0.0 sec)
Transforming the Hamiltonian                       ... done (   0.0 sec)
Diagonalizing the Hamiltonian                      ... done (   0.0 sec)
Back transforming the eigenvectors                 ... done (   0.0 sec)
Now organizing SCF variables                       ... done
                      ------------------
                      INITIAL GUESS DONE (   0.2 sec)
                      ------------------
--------------
SCF ITERATIONS
--------------
ITER       Energy         Delta-E        Max-DP      RMS-DP      [F,P]     Damp
               ***  Starting incremental Fock matrix formation  ***
  0    -99.3941310007   0.000000000000 0.00870604  0.00066240  0.3615763 0.7000
  1    -99.3987302407  -0.004599239972 0.00766957  0.00056159  0.2555031 0.7000
                               ***Turning on DIIS***
  2    -99.4022135173  -0.003483276622 0.00601413  0.00042654  0.1803265 0.7000
  3    -99.3631891802   0.039024337160 0.00517239  0.00035166  0.1274462 0.7000
  4    -99.3720991268  -0.008909946583 0.01356852  0.00091296  0.0898442 0.0000
  5    -99.4113333468  -0.039234219992 0.00129859  0.00009096  0.0043051 0.0000
  6    -99.4103598533   0.000973493496 0.00088132  0.00007176  0.0020273 0.0000
  7    -99.4115570377  -0.001197184487 0.00032974  0.00002987  0.0006396 0.0000
  8    -99.4118678344  -0.000310796693 0.00009785  0.00000774  0.0000607 0.0000
  9    -99.4117787960   0.000089038487 0.00003711  0.00000328  0.0000178 0.0000
 10    -99.4117976733  -0.000018877362 0.00001886  0.00000165  0.0000053 0.0000
 11    -99.4117975871   0.000000086173 0.00000807  0.00000069  0.0000020 0.0000
                            ***DIIS convergence achieved***

               *****************************************************
               *                     SUCCESS                       *
               *           SCF CONVERGED AFTER  12 CYCLES          *
               *****************************************************


----------------
TOTAL SCF ENERGY
----------------

Total Energy       :          -99.41179849 Eh           -2705.13256 eV

Components:
Nuclear Repulsion  :            0.00000000 Eh               0.00000 eV
Electronic Energy  :          -99.41179849 Eh           -2705.13256 eV
One Electron Energy:         -139.25414159 Eh           -3789.29784 eV
Two Electron Energy:           39.84234310 Eh            1084.16527 eV

Virial components:
Potential Energy   :         -198.82725122 Eh           -5410.36456 eV
Kinetic Energy     :           99.41545273 Eh            2705.23200 eV
Virial Ratio       :            1.99996324


---------------
SCF CONVERGENCE
---------------

  Last Energy change         ...   -9.0269e-07  Tolerance :   1.0000e-08
  Last MAX-Density change    ...    2.3986e-06  Tolerance :   1.0000e-07
  Last RMS-Density change    ...    2.0148e-07  Tolerance :   5.0000e-09
  Last DIIS Error            ...    5.1608e-07  Tolerance :   5.0000e-07

             **** THE GBW FILE WAS UPDATED (09_F.gbw) ****
             **** DENSITY FILE WAS UPDATED (09_F.scfp) ****
             **** ENERGY FILE WAS UPDATED (09_F.en.tmp) ****
----------------------
UHF SPIN CONTAMINATION
----------------------

Expectation value of <S**2>     :     0.753678
Ideal value S*(S+1) for S=0.5   :     0.750000
Deviation                       :     0.003678

             **** THE GBW FILE WAS UPDATED (09_F.gbw) ****
             **** DENSITY FILE WAS UPDATED (09_F.scfp) ****
----------------
ORBITAL ENERGIES
----------------
                 SPIN UP ORBITALS
  NO   OCC          E(Eh)            E(eV) 
   0   1.0000     -26.405361      -718.5264 
   1   1.0000      -1.670500       -45.4566 
   2   1.0000      -0.843449       -22.9514 
   3   1.0000      -0.730156       -19.8685 
   4   1.0000      -0.730156       -19.8685 
   5   0.0000       0.624508        16.9937 
   6   0.0000       0.639676        17.4065 
   7   0.0000       0.678066        18.4511 
   8   0.0000       0.678066        18.4511 
   9   0.0000       2.149074        58.4793 
  10   0.0000       2.166778        58.9610 
  11   0.0000       2.166778        58.9610 
  12   0.0000       2.222747        60.4840 
  13   0.0000       2.222747        60.4840 
  14   0.0000       3.449312        93.8606 
  15   0.0000       3.530864        96.0797 
  16   0.0000       3.530864        96.0797 
  17   0.0000       3.775704       102.7421 
  18   0.0000       7.252424       197.3485 
  19   0.0000       7.263347       197.6457 
  20   0.0000       7.263347       197.6457 
  21   0.0000       7.296320       198.5430 
  22   0.0000       7.296320       198.5430 
  23   0.0000       7.352032       200.0590 
  24   0.0000       7.352032       200.0590 
  25   0.0000       8.678858       236.1637 
  26   0.0000       8.704454       236.8602 
  27   0.0000       8.704454       236.8602 
  28   0.0000       8.784593       239.0409 
  29   0.0000       8.784593       239.0409 
  30   0.0000      57.868916      1574.6933 

                 SPIN DOWN ORBITALS
  NO   OCC          E(Eh)            E(eV) 
   0   1.0000     -26.356886      -717.2073 
   1   1.0000      -1.475615       -40.1535 
   2   1.0000      -0.678667       -18.4675 
   3   1.0000      -0.678667       -18.4675 
   4   0.0000       0.058294         1.5862 
   5   0.0000       0.649509        17.6740 
   6   0.0000       0.689861        18.7721 
   7   0.0000       0.689861        18.7721 
   8   0.0000       0.782002        21.2794 
   9   0.0000       2.229677        60.6726 
  10   0.0000       2.229677        60.6726 
  11   0.0000       2.261032        61.5258 
  12   0.0000       2.261032        61.5258 
  13   0.0000       2.272838        61.8471 
  14   0.0000       3.557133        96.7945 
  15   0.0000       3.557133        96.7945 
  16   0.0000       3.637472        98.9807 
  17   0.0000       3.832633       104.2913 
  18   0.0000       7.335271       199.6029 
  19   0.0000       7.337906       199.6746 
  20   0.0000       7.337906       199.6746 
  21   0.0000       7.345755       199.8882 
  22   0.0000       7.345755       199.8882 
  23   0.0000       7.358649       200.2390 
  24   0.0000       7.358649       200.2390 
  25   0.0000       8.806642       239.6409 
  26   0.0000       8.806642       239.6409 
  27   0.0000       8.822354       240.0685 
  28   0.0000       8.822354       240.0685 
  29   0.0000       8.827938       240.2204 
  30   0.0000      57.896403      1575.4412 

                    ********************************
                    * MULLIKEN POPULATION ANALYSIS *
                    ********************************

--------------------------------------------
MULLIKEN ATOMIC CHARGES AND SPIN POPULATIONS
--------------------------------------------
   0 F :   -0.000000    1.000000
Sum of atomic charges         :   -0.0000000
Sum of atomic spin populations:    1.0000000

-----------------------------------------------------
MULLIKEN REDUCED ORBITAL CHARGES AND SPIN POPULATIONS
-----------------------------------------------------
CHARGE
  0 F s       :     3.998981  s :     3.998981
      pz      :     0.999935  p :     4.999843
      px      :     1.999953
      py      :     1.999955
      dz2     :     0.001019  d :     0.001019
      dxz     :     0.000000
      dyz     :     0.000000
      dx2y2   :     0.000000
      dxy     :     0.000000
      f0      :     0.000067  f :     0.000157
      f+1     :     0.000045
      f-1     :     0.000045
      f+2     :     0.000000
      f-2     :     0.000000
      f+3     :     0.000000
      f-3     :     0.000000

SPIN
  0 F s       :     0.000229  s :     0.000229
      pz      :     0.999932  p :     0.999845
      px      :    -0.000042
      py      :    -0.000044
      dz2     :    -0.000229  d :    -0.000229
      dxz     :    -0.000000
      dyz     :    -0.000000
      dx2y2   :    -0.000000
      dxy     :     0.000000
      f0      :     0.000067  f :     0.000155
      f+1     :     0.000044
      f-1     :     0.000044
      f+2     :     0.000000
      f-2     :     0.000000
      f+3     :     0.000000
      f-3     :     0.000000


                     *******************************
                     * LOEWDIN POPULATION ANALYSIS *
                     *******************************

-------------------------------------------
LOEWDIN ATOMIC CHARGES AND SPIN POPULATIONS
-------------------------------------------
   0 F :   -0.000000    1.000000

----------------------------------------------------
LOEWDIN REDUCED ORBITAL CHARGES AND SPIN POPULATIONS
----------------------------------------------------
CHARGE
  0 F s       :     3.998981  s :     3.998981
      pz      :     0.999935  p :     4.999843
      px      :     1.999953
      py      :     1.999955
      dz2     :     0.001019  d :     0.001019
      dxz     :     0.000000
      dyz     :     0.000000
      dx2y2   :     0.000000
      dxy     :     0.000000
      f0      :     0.000067  f :     0.000157
      f+1     :     0.000045
      f-1     :     0.000045
      f+2     :     0.000000
      f-2     :     0.000000
      f+3     :     0.000000
      f-3     :     0.000000

SPIN
  0 F s       :     0.000229  s :     0.000229
      pz      :     0.999932  p :     0.999845
      px      :    -0.000042
      py      :    -0.000044
      dz2     :    -0.000229  d :    -0.000229
      dxz     :    -0.000000
      dyz     :    -0.000000
      dx2y2   :    -0.000000
      dxy     :     0.000000
      f0      :     0.000067  f :     0.000155
      f+1     :     0.000044
      f-1     :     0.000044
      f+2     :     0.000000
      f-2     :     0.000000
      f+3     :     0.000000
      f-3     :     0.000000


                      *****************************
                      * MAYER POPULATION ANALYSIS *
                      *****************************

  NA   - Mulliken gross atomic population
  ZA   - Total nuclear charge
  QA   - Mulliken gross atomic charge
  VA   - Mayer's total valence
  BVA  - Mayer's bonded valence
  FA   - Mayer's free valence

  ATOM       NA         ZA         QA         VA         BVA        FA
  0 F      9.0000     9.0000    -0.0000     1.0074     0.0000     1.0074

  Mayer bond orders larger than 0.100000


-------
TIMINGS
-------

Total SCF time: 0 days 0 hours 0 min 3 sec 

Total time                  ....       3.264 sec
Sum of individual times     ....       2.889 sec  ( 88.5%)

Fock matrix formation       ....       2.078 sec  ( 63.7%)
Diagonalization             ....       0.048 sec  (  1.5%)
Density matrix formation    ....       0.002 sec  (  0.1%)
Population analysis         ....       0.360 sec  ( 11.0%)
Initial guess               ....       0.122 sec  (  3.7%)
Orbital Transformation      ....       0.000 sec  (  0.0%)
Orbital Orthonormalization  ....       0.000 sec  (  0.0%)
DIIS solution               ....       0.235 sec  (  7.2%)


           ************************************************************
           *        Program running with 21 parallel MPI-processes    *
           *              working on a common directory               *
           ************************************************************


------------------------------------------------------------------------------- 
                              ORCA-MATRIX DRIVEN CI                            
------------------------------------------------------------------------------- 

--------------------------------
AUTOMATIC CHOICE OF INCORE LEVEL
--------------------------------

Memory available                           ...   2500.00 MB
Memory needed for S+T                      ...      0.15 MB
Memory needed for J+K                      ...      0.31 MB
Memory needed for DIIS                     ...      2.17 MB
Memory needed for 3-ext                    ...      0.54 MB
Memory needed for 4-ext                    ...      1.81 MB
Memory needed for triples                  ...      0.67 MB
 -> Final InCoreLevel    ... 5
 -> check shows that triples correction can be computed


Wavefunction type
-----------------
Correlation treatment                      ...      CCSD     
Single excitations                         ... ON
Orbital optimization                       ... OFF
Calculation of Z vector                    ... OFF
Calculation of Brueckner orbitals          ... OFF
Perturbative triple excitations            ... ON
Calculation of F12 correction              ... OFF
Frozen core treatment                      ... chemical core (2 el)
Reference Wavefunction                     ... UHF
  Alpha-MOs occ    :     1 ...    4 (  4 MO's/  4 electrons)
  Beta-MOs occ     :     1 ...    3 (  3 MO's/  3 electrons)
  Alpha-MOs virt   :     5 ...   30 ( 26 MO's              )
  Beta-MOs virt    :     4 ...   30 ( 27 MO's              )
Number of AO's                             ...     31
Number of electrons                        ...      9
Number of correlated electrons             ...      7

Algorithmic settings
--------------------
Integral transformation                    ... AO direct full transformation
K(C) Formation                             ... FULL-MO TRAFO
Maximum number of iterations               ...        50
Convergence tolerance (max. residuum)      ... 1.000e-05
Level shift for amplitude update           ... 2.000e-01
Maximum number of DIIS vectors             ...         7
DIIS turned on at iteration                ...         0
Damping before turning on DIIS             ...     0.500
Damping after turning on DIIS              ...     0.000
Pair specific amplitude update             ... OFF
Natural orbital iterations                 ... OFF
Perturbative natural orbital generation    ... OFF
Printlevel                                 ... 2

Memory handling:
----------------
Maximum memory for working arrays          ...   2500 MB
Data storage in matrix containers          ... UNCOMPRESSED
Data type for integral storage             ... DOUBLE
In-Core Storage of quantities:
   Amplitudes+Sigma Vector      ... YES
   J+K operators                ... YES
   DIIS vectors                 ... YES
   3-external integrals         ... YES
   4-external integrals         ... YES


Initializing the integral package          ... done
Warning: reference  - re-canonicalizations have been set to INT 1 VIRT 1

--------------------------
UNRESTRICTED FOCK OPERATOR
--------------------------

<ss|ss>:          120 b            0 skpd (  0.0%)    0.000 s ( 0.001 ms/b)
<ss|sp>:          225 b            0 skpd (  0.0%)    0.000 s ( 0.001 ms/b)
<ss|sd>:          150 b            0 skpd (  0.0%)    0.000 s ( 0.001 ms/b)
<ss|sf>:           75 b            0 skpd (  0.0%)    0.000 s ( 0.001 ms/b)
<ss|pp>:           90 b            0 skpd (  0.0%)    0.000 s ( 0.001 ms/b)
<ss|pd>:           90 b            0 skpd (  0.0%)    0.000 s ( 0.001 ms/b)
<ss|pf>:           45 b            0 skpd (  0.0%)    0.000 s ( 0.001 ms/b)
<ss|dd>:           45 b            0 skpd (  0.0%)    0.000 s ( 0.001 ms/b)
<ss|df>:           30 b            0 skpd (  0.0%)    0.000 s ( 0.002 ms/b)
<ss|ff>:           15 b            0 skpd (  0.0%)    0.000 s ( 0.005 ms/b)
<sp|sp>:          120 b            0 skpd (  0.0%)    0.000 s ( 0.001 ms/b)
<sp|sd>:          150 b            0 skpd (  0.0%)    0.000 s ( 0.001 ms/b)
<sp|sf>:           75 b            0 skpd (  0.0%)    0.000 s ( 0.001 ms/b)
<sp|pp>:           90 b            0 skpd (  0.0%)    0.000 s ( 0.002 ms/b)
<sp|pd>:           90 b            0 skpd (  0.0%)    0.000 s ( 0.002 ms/b)
<sp|pf>:           45 b            0 skpd (  0.0%)    0.000 s ( 0.003 ms/b)
<sp|dd>:           45 b            0 skpd (  0.0%)    0.000 s ( 0.003 ms/b)
<sp|df>:           30 b            0 skpd (  0.0%)    0.000 s ( 0.004 ms/b)
<sp|ff>:           15 b            0 skpd (  0.0%)    0.000 s ( 0.011 ms/b)
<sd|sd>:           55 b            0 skpd (  0.0%)    0.000 s ( 0.001 ms/b)
<sd|sf>:           50 b            0 skpd (  0.0%)    0.000 s ( 0.002 ms/b)
<sd|pp>:           60 b            0 skpd (  0.0%)    0.000 s ( 0.002 ms/b)
<sd|pd>:           60 b            0 skpd (  0.0%)    0.000 s ( 0.002 ms/b)
<sd|pf>:           30 b            0 skpd (  0.0%)    0.000 s ( 0.004 ms/b)
<sd|dd>:           30 b            0 skpd (  0.0%)    0.000 s ( 0.006 ms/b)
<sd|df>:           20 b            0 skpd (  0.0%)    0.000 s ( 0.007 ms/b)
<sd|ff>:           10 b            0 skpd (  0.0%)    0.000 s ( 0.018 ms/b)
<sf|sf>:           15 b            0 skpd (  0.0%)    0.000 s ( 0.004 ms/b)
<sf|pp>:           30 b            0 skpd (  0.0%)    0.000 s ( 0.004 ms/b)
<sf|pd>:           30 b            0 skpd (  0.0%)    0.000 s ( 0.003 ms/b)
<sf|pf>:           15 b            0 skpd (  0.0%)    0.000 s ( 0.008 ms/b)
<sf|dd>:           15 b            0 skpd (  0.0%)    0.000 s ( 0.005 ms/b)
<sf|df>:           10 b            0 skpd (  0.0%)    0.000 s ( 0.012 ms/b)
<sf|ff>:            5 b            0 skpd (  0.0%)    0.000 s ( 0.033 ms/b)
<pp|pp>:           21 b            0 skpd (  0.0%)    0.000 s ( 0.007 ms/b)
<pp|pd>:           36 b            0 skpd (  0.0%)    0.000 s ( 0.005 ms/b)
<pp|pf>:           18 b            0 skpd (  0.0%)    0.000 s ( 0.007 ms/b)
<pp|dd>:           18 b            0 skpd (  0.0%)    0.000 s ( 0.005 ms/b)
<pp|df>:           12 b            0 skpd (  0.0%)    0.000 s ( 0.011 ms/b)
<pp|ff>:            6 b            0 skpd (  0.0%)    0.000 s ( 0.028 ms/b)
<pd|pd>:           21 b            0 skpd (  0.0%)    0.000 s ( 0.006 ms/b)
<pd|pf>:           18 b            0 skpd (  0.0%)    0.000 s ( 0.009 ms/b)
<pd|dd>:           18 b            0 skpd (  0.0%)    0.000 s ( 0.012 ms/b)
<pd|df>:           12 b            0 skpd (  0.0%)    0.000 s ( 0.018 ms/b)
<pd|ff>:            6 b            0 skpd (  0.0%)    0.000 s ( 0.048 ms/b)
<pf|pf>:            6 b            0 skpd (  0.0%)    0.000 s ( 0.021 ms/b)
<pf|dd>:            9 b            0 skpd (  0.0%)    0.000 s ( 0.012 ms/b)
<pf|df>:            6 b            0 skpd (  0.0%)    0.000 s ( 0.033 ms/b)
<pf|ff>:            3 b            0 skpd (  0.0%)    0.000 s ( 0.083 ms/b)
<dd|dd>:            6 b            0 skpd (  0.0%)    0.000 s ( 0.013 ms/b)
<dd|df>:            6 b            0 skpd (  0.0%)    0.000 s ( 0.028 ms/b)
<dd|ff>:            3 b            0 skpd (  0.0%)    0.000 s ( 0.071 ms/b)
<df|df>:            3 b            0 skpd (  0.0%)    0.000 s ( 0.062 ms/b)
<df|ff>:            2 b            0 skpd (  0.0%)    0.000 s ( 0.140 ms/b)
<ff|ff>:            1 b            0 skpd (  0.0%)    0.000 s ( 0.260 ms/b)
Recanonicalizing the internal orbitals
Recanonicalizing the virtual orbitals
Time needed for Fock operator              ...            0.042 sec
Reference energy                           ...    -99.411798500
Warning: for UHF the TrafoType has to be JK
Warning: for UHF the K(C)-option cannot be MO but must be AOX

-------------------------------
PARTIAL EXCHANGE TRANSFORMATION
-------------------------------

Transformation type                        ... two-operators
Generation of integrals (i,mue|j,nue)      ... ON
Generation of integrals (mue,kappa|nue,tau)... ON
Generation of integrals (i,mue|a,nue)      ... ON
Dimension of the basis                     ...   31
Number of internal alpha-MOs               ...    4 (   1-   4)
Number of internal beta-MOs                ...    3 (   1-   3)
Number of external alpha-MOs               ...   26 (   5-  30)
Number of external beta-MOs                ...   27 (   4-  30)
Pair cutoff                                ... 0.000e+00 Eh
Number of AO pairs in the trafo            ...  496
Total Number of distinct AO pairs          ...  496
Memory devoted for trafo                   ... 2500.0 MB 
Max. Number of MO pairs treated together   ... 340978      
Number Format for Storage                  ... Double (8 Byte)
Integral package used                      ... LIBINT

Starting integral evaluation:
    ... done with AO integral generation
Closing buffer AOK[aa] ( 0.00 GB; CompressionRatio= 0.00)
Closing buffer AOK[bb] ( 0.00 GB; CompressionRatio= 0.00)
Closing buffer AOK[ab] ( 0.00 GB; CompressionRatio= 0.00)
Closing buffer AOK[ba] ( 0.00 GB; CompressionRatio= 0.00)
Collecting buffer AOK 
Closing buffer IAAO1[aa] ( 0.00 GB; CompressionRatio= 0.00)
Closing buffer IAAO1[bb] ( 0.00 GB; CompressionRatio= 0.00)
Closing buffer IAAO1[ab] ( 0.00 GB; CompressionRatio= 0.00)
Closing buffer IAAO1[ba] ( 0.00 GB; CompressionRatio= 0.00)
Closing buffer IAAO2[aa] ( 0.00 GB; CompressionRatio= 0.00)
Closing buffer IAAO2[bb] ( 0.00 GB; CompressionRatio= 0.00)
Closing buffer IAAO2[ab] ( 0.00 GB; CompressionRatio= 0.00)
Closing buffer IAAO2[ba] ( 0.00 GB; CompressionRatio= 0.00)
Collecting buffer IAAO 
Closing buffer PRQS    ( 0.00 GB; CompressionRatio= 0.00)
Collecting buffer PRQS 
Number of alpha/alpha MO pairs in trafo    ...   10
Number of beta /beta  MO pairs in trafo    ...    6
Number of alpha/ beta MO pairs in trafo    ...   12
------------------------
SORTING OF (i,mue|j,nue)
------------------------

SORTING OF ALPHA/ALPHA PAIRS
IBATCH = 1 of  1
Closing buffer KAO[aa] ( 0.00 GB; CompressionRatio= 1.00)
Collecting buffer KAO 
SORTING OF BETA /BETA  PAIRS
IBATCH = 1 of  1
Closing buffer KAO[bb] ( 0.00 GB; CompressionRatio= 1.00)
Collecting buffer KAO 
SORTING OF ALPHA/BETA  PAIRS
IBATCH = 1 of  1
Closing buffer KAO[ab] ( 0.00 GB; CompressionRatio= 0.998441558442)
Collecting buffer KAO[ab] 
------------------------
SORTING OF (i,mue|a,nue)
------------------------

Number of alpha/alpha (i,a) pairs in trafo  ...  104
Number of beta /beta  (i,a) pairs in trafo  ...   81
Number of alpha/ beta (i,a) pairs in trafo  ...  108
Number of beta /alpha (i,a) pairs in trafo  ...   78
Setting up the alpha/alpha list             ... done
Setting up the beta /beta  list             ... done
Setting up the alpha/beta  list             ... done
Setting up the beta /alpha list             ... done
    ... Now sorting (i,mue|a,nue)integrals
    ... Integrals (i,b|a,c) will be made on the fly
SORTING OF ALPHA/ALPHA PAIRS
IBATCH = 1 of  1
Closing buffer IPAQ[aa]  0.00 GB; CompressionRatio= 1.00)
SORTING OF BETA /BETA  PAIRS
IBATCH = 1 of  1
Closing buffer IPAQ[bb]( 0.00 GB; CompressionRatio= 1.00)
SORTING OF ALPHA/BETA  PAIRS (NMatSort_ab=6)
IBATCH = 1 of  1
Closing buffer IPAQ[ab]( 0.00 GB; CompressionRatio= 1.00)
SORTING OF BETA/ALPHA  PAIRS
IBATCH = 1 of  1
Closing buffer IPAQ[ba]( 0.00 GB; CompressionRatio= 1.00)
N(AO-Batches) Done                         ...         0 
N(AO-Batches) Skipped                      ...         0 
N(IJ)-pairs Skipped                        ...         0 
TOTAL TIME for half transformation         ...     1.509 sec
AO-integral generation                     ...     0.000 sec
Half transformation                        ...     0.000 sec
K-integral sorting                         ...     0.586 sec
<ss|**>: 
------------------------------
PARTIAL COULOMB TRANSFORMATION
------------------------------

Transformation type                        ... two-operators
Dimension of the basis                     ...   31
Number of internal alpha-MOs               ...    4 (1-4)
Number of internal beta-MOs                ...    3 (1-3)
Pair cutoff                                ... 0.000e+00 Eh
Number of AO pairs included in the trafo   ...  496
Total Number of distinct AO pairs          ...  496
Memory devoted for trafo                   ... 2500.0 MB 
Max. Number of MO pairs treated together   ... 660645      
Max. Number of MOs treated per batch       ... 21311      
Number Format for Storage                  ... Double (8 Byte)
AO-integral source                         ... DIRECT
Integral package used                      ... LIBINT

Starting integral evaluation:
         990 b        0 skpd     0.001 s (  0.001 ms/b)
<sp|**>: <sd|**>:          990 b        0 skpd     0.007 s (  0.007 ms/b)
<sf|**>:          660 b        0 skpd     0.008 s (  0.012 ms/b)
<pp|**>:          330 b        0 skpd     0.007 s (  0.022 ms/b)
<pd|**>:          396 b        0 skpd     0.009 s (  0.024 ms/b)
<pf|**>:          396 b        0 skpd     0.018 s (  0.045 ms/b)
<dd|**>:          198 b        0 skpd     0.018 s (  0.089 ms/b)
<df|**>:          198 b        0 skpd     0.021 s (  0.106 ms/b)
<ff|**>:          132 b        0 skpd     0.025 s (  0.190 ms/b)
          66 b        0 skpd     0.017 s (  0.253 ms/b)
Closing buffer AOJ[aa] ( 0.00 GB; CompressionRatio= 0.87)
Closing buffer AOJ[bb] ( 0.00 GB; CompressionRatio= 0.00)
Collecting buffer AOJ 
    ... done with AO integral generation
Number of Alpha-MO pairs included          ...   10
Number of Beta-MO pairs included           ...    6
    ... Now sorting integrals
SORTING ALPHA/ALPHA PAIRS
IBATCH = 1 of  1
Closing buffer JAO[aa] ( 0.00 GB; CompressionRatio= 1.00)
SORTING BETA/BETA PAIRS
IBATCH = 1 of  1
Closing buffer JAO[bb] ( 0.00 GB; CompressionRatio= 1.00)
Collecting buffer JAO 
TOTAL TIME for half transformation         ...     0.244 sec
AO-integral generation                     ...     0.102 sec
Half transformation                        ...     0.029 sec
J-integral sorting                         ...     0.079 sec

-------------------------- SECOND HALF TRANSFORMATION -------------------------
Formation of (ij|kl),(ij|ka), (ij|ab)      ... ok (     0.103 sec)
Formation of (ik|jl),(ik|ja), (ia|jb)      ... ok (     0.175 sec)


-----------------------
SPIN UNRESTRICTED GUESS
-----------------------

Entering MDCI_UHF_Guess, Tailored=0
Spin-components of the MP2 energy:
EMP2(aa)=     -0.032475619
EMP2(bb)=     -0.015406271
EMP2(ab)=     -0.149909053

Initial guess performed in     0.002 sec
E(0)                                       ...    -99.411798500
E(MP2)                                     ...     -0.197790942
Initial E(tot)                             ...    -99.609589442
<T|T>                                      ...      0.031379819
Number of pairs included                   ... 21

------------------------------------------------
                  UHF COUPLED CLUSTER ITERATIONS
------------------------------------------------

Number of amplitudes to be optimized       ...        11636

Iter       E(tot)           E(Corr)          Delta-E          Residual     Time      <S|S>**1/2
  0    -99.609589442     -0.197790942      0.000000000      0.019955812    0.05      0.000000052
                           *** Turning on DIIS ***
  1    -99.618172238     -0.206373738     -0.008582795      0.006543518    0.02      0.011854080
  2    -99.621066496     -0.209267996     -0.002894258      0.003153448    0.02      0.014951077
  3    -99.621518452     -0.209719951     -0.000451955      0.001633899    0.02      0.016261872
  4    -99.621609273     -0.209810773     -0.000090822      0.000613228    0.02      0.016490159
  5    -99.621622096     -0.209823596     -0.000012823      0.000101604    0.02      0.016489951
  6    -99.621622836     -0.209824336     -0.000000740      0.000019355    0.02      0.016469745
  7    -99.621622497     -0.209823997      0.000000338      0.000004127    0.02      0.016464282
               --- The Coupled-Cluster iterations have converged ---

----------------------
COUPLED CLUSTER ENERGY
----------------------

E(0)                                       ...    -99.411798500
E(CORR)                                    ...     -0.209823997
E(TOT)                                     ...    -99.621622497
Singles norm <S|S>**1/2                    ...      0.016464282 ( 0.010572557, 0.005891726)  
T1 diagnostic                              ...      0.006222914                              

------------------
LARGEST AMPLITUDES
------------------
   2a->  9a   1b->  4b       0.029965
   3a-> 10a   1b->  4b       0.025931
   4a-> 11a   1b->  4b       0.025931
   4a->  7a   3b->  7b       0.021616
   3a->  8a   2b->  6b       0.021616
   3a->  7a   3b->  7b       0.021585
   4a->  8a   2b->  6b       0.021585
   2a->  6a   3b->  7b       0.021300
   2a->  6a   2b->  6b       0.021300
   3b->  6b   2b->  7b       0.020860
   3b->  7b   2b->  6b       0.020860
   4a->  7a   3a->  8a       0.019599
   4a->  8a   3a->  7a       0.019599
   4a->  7a   2b->  6b       0.019305
   3a->  8a   3b->  7b       0.019305
   4a-> 12a   3a-> 13a       0.018834

----------------------
UHF TRIPLES CORRECTION (Algorithm 1)
----------------------

Multiplier for the singles contribution    ...      1.000000000

SPIN-CASE Alpha-Alpha-Alpha:
10% done
20% done
30% done
40% done
50% done
60% done
70% done
80% done
90% done


SPIN-CASE Beta-Beta-Beta:
10% done
20% done
30% done
40% done
50% done
60% done
70% done
80% done
90% done


SPIN-CASE Alpha-Alpha-Beta:
10% done
20% done
30% done
40% done
50% done
60% done
70% done
80% done
90% done


SPIN-CASE Beta-Beta-Alpha:
10% done
20% done
30% done
40% done
50% done
60% done
70% done
80% done
90% done


Triples Correction (T)                     ...     -0.003434481
    alpha-alpha-alpha ... -0.000120003 (  3.5%)
    alpha-alpha-beta  ... -0.001996780 ( 58.1%)
    alpha-beta -beta  ... -0.001292117 ( 37.6%)
    beta -beta -beta  ... -0.000025581 (  0.7%)
Scaling of triples based on CCSD energies (Peterson et al. Molecular Physics 113, 1551 (2015))
E(T*) = f*E(T) where f = E(F12-CCSD)/E(CCSD) 
f = CCSD (with F12)/ CCSD (without F12)    ...      1.000000000
Scaled triples correction (T)              ...     -0.003434481

Final correlation energy                   ...     -0.213258478
E(CCSD)                                    ...    -99.621622497
E(CCSD(T))                                 ...    -99.625056978



        !!!!!!!!!!!!!!!!!!!!!!!!!!!!!!!!!!!!!!!!!!!!!!!!!!!!!!!!!!!!!!!!!!!!!!!!!! 
        !  Warning: Densities are linearized densities                           !
        !!!!!!!!!!!!!!!!!!!!!!!!!!!!!!!!!!!!!!!!!!!!!!!!!!!!!!!!!!!!!!!!!!!!!!!!!! 

NORM  =      1.036954960 sqrt=     1.018309855
W(HF) =      0.964362039
------------------------------------------------------------------------------
                           ORCA POPULATION ANALYSIS
------------------------------------------------------------------------------
Input electron density              ... 09_F.mdcip
Input spin density                  ... 09_F.mdcir
BaseName (.gbw .S,...)              ... 09_F

                    ********************************
                    * MULLIKEN POPULATION ANALYSIS *
                    ********************************

------------------------------------------
MULLIKEN ATOMIC CHARGES AND SPIN DENSITIES
------------------------------------------
   0 F :   -0.000000    1.000000
Sum of atomic charges       :   -0.0000000
Sum of atomic spin densities:    1.0000000

---------------------------------------------------
MULLIKEN REDUCED ORBITAL CHARGES AND SPIN DENSITIES
---------------------------------------------------
CHARGE
  0 F s       :     3.992210  s :     3.992210
      pz      :     1.001414  p :     4.982462
      px      :     1.990523
      py      :     1.990525
      dz2     :     0.004537  d :     0.023033
      dxz     :     0.004555
      dyz     :     0.004555
      dx2y2   :     0.004692
      dxy     :     0.004692
      f0      :     0.000315  f :     0.002296
      f+1     :     0.000318
      f-1     :     0.000318
      f+2     :     0.000327
      f-2     :     0.000327
      f+3     :     0.000345
      f-3     :     0.000345

SPIN
  0 F s       :     0.004321  s :     0.004321
      pz      :     0.989361  p :     0.989887
      px      :     0.000264
      py      :     0.000262
      dz2     :     0.002240  d :     0.005230
      dxz     :     0.001631
      dyz     :     0.001631
      dx2y2   :    -0.000136
      dxy     :    -0.000136
      f0      :     0.000146  f :     0.000563
      f+1     :     0.000129
      f-1     :     0.000129
      f+2     :     0.000080
      f-2     :     0.000080
      f+3     :    -0.000001
      f-3     :    -0.000001


                     *******************************
                     * LOEWDIN POPULATION ANALYSIS *
                     *******************************

-----------------------------------------
LOEWDIN ATOMIC CHARGES AND SPIN DENSITIES
-----------------------------------------
   0 F :   -0.000000    1.000000

--------------------------------------------------
LOEWDIN REDUCED ORBITAL CHARGES AND SPIN DENSITIES
--------------------------------------------------
CHARGE
  0 F s       :     3.992210  s :     3.992210
      pz      :     1.001414  p :     4.982462
      px      :     1.990523
      py      :     1.990525
      dz2     :     0.004537  d :     0.023033
      dxz     :     0.004555
      dyz     :     0.004555
      dx2y2   :     0.004692
      dxy     :     0.004692
      f0      :     0.000315  f :     0.002296
      f+1     :     0.000318
      f-1     :     0.000318
      f+2     :     0.000327
      f-2     :     0.000327
      f+3     :     0.000345
      f-3     :     0.000345

SPIN
  0 F s       :     0.004321  s :     0.004321
      pz      :     0.989361  p :     0.989887
      px      :     0.000264
      py      :     0.000262
      dz2     :     0.002240  d :     0.005230
      dxz     :     0.001631
      dyz     :     0.001631
      dx2y2   :    -0.000136
      dxy     :    -0.000136
      f0      :     0.000146  f :     0.000563
      f+1     :     0.000129
      f-1     :     0.000129
      f+2     :     0.000080
      f-2     :     0.000080
      f+3     :    -0.000001
      f-3     :    -0.000001


                      *****************************
                      * MAYER POPULATION ANALYSIS *
                      *****************************

  NA   - Mulliken gross atomic population
  ZA   - Total nuclear charge
  QA   - Mulliken gross atomic charge
  VA   - Mayer's total valence
  BVA  - Mayer's bonded valence
  FA   - Mayer's free valence

  ATOM       NA         ZA         QA         VA         BVA        FA
  0 F      9.0000     9.0000    -0.0000     1.2632     0.0000     1.2632





------------------------------------------------------------------------------- 
                                     TIMINGS                                   
------------------------------------------------------------------------------- 


Total execution time                   ...        3.146 sec

Fock Matrix Formation                  ...        0.042 sec (  1.3%)
Initial Guess                          ...        0.002 sec (  0.0%)
DIIS Solver                            ...        0.011 sec (  0.3%)
State Vector Update                    ...        0.001 sec (  0.0%)
Sigma-vector construction              ...        0.202 sec (  6.4%)
  <D|H|D>(4-ext)                       ...        0.099 sec ( 48.8% of sigma)
  <S|H|0>                              ...        0.003 sec (  1.4% of sigma)
  <D|H|S>(1-ext)                       ...        0.002 sec (  0.9% of sigma)
  Fock-dressing                        ...        0.046 sec ( 22.7% of sigma)
  (ij|ab),(ia|jb)-dressing             ...        0.033 sec ( 16.4% of sigma)
Total Time for computing (T)           ...        0.006 sec (  0.2% of ALL)
  I/O of integral and amplitudes       ...        0.002 sec ( 31.7% of (T))
  N**6 triples energy contributions    ...        0.002 sec ( 39.6% of (T))


-------------------------   --------------------
FINAL SINGLE POINT ENERGY       -99.625056978451
-------------------------   --------------------


                            ***************************************
                            *     ORCA property calculations      *
                            ***************************************

                                    ---------------------
                                    Active property flags
                                    ---------------------
   (+) Dipole Moment


------------------------------------------------------------------------------
                       ORCA ELECTRIC PROPERTIES CALCULATION
------------------------------------------------------------------------------

Dipole Moment Calculation                       ... on
Quadrupole Moment Calculation                   ... off
Polarizability Calculation                      ... off
GBWName                                         ... 09_F.gbw
Electron density file                           ... 09_F.scfp
The origin for moment calculation is the CENTER OF MASS  = ( 0.000000,  0.000000  0.000000)

-------------
DIPOLE MOMENT
-------------
                                X             Y             Z
Electronic contribution:     -0.00000       0.00000       0.00000
Nuclear contribution   :      0.00000       0.00000       0.00000
                        -----------------------------------------
Total Dipole Moment    :     -0.00000       0.00000       0.00000
                        -----------------------------------------
Magnitude (a.u.)       :      0.00000
Magnitude (Debye)      :      0.00000



--------------------
Rotational spectrum 
--------------------
 
Rotational constants in cm-1:     0.000000     0.000000     0.000000 
Rotational constants in MHz :     0.000000     0.000000     0.000000 

 Dipole components along the rotational axes: 
x,y,z [a.u.] :    -0.000000     0.000000     0.000000 
x,y,z [Debye]:    -0.000000     0.000000     0.000000 

 

                           *** MDCI DENSITY ***

------------------------------------------------------------------------------
                       ORCA ELECTRIC PROPERTIES CALCULATION
------------------------------------------------------------------------------

Dipole Moment Calculation                       ... on
Quadrupole Moment Calculation                   ... off
Polarizability Calculation                      ... off
GBWName                                         ... 09_F.gbw
Electron density file                           ... 09_F.mdcip
The origin for moment calculation is the CENTER OF MASS  = ( 0.000000,  0.000000  0.000000)

-------------
DIPOLE MOMENT
-------------
                                X             Y             Z
Electronic contribution:     -0.00000       0.00000      -0.00000
Nuclear contribution   :      0.00000       0.00000       0.00000
                        -----------------------------------------
Total Dipole Moment    :     -0.00000       0.00000      -0.00000
                        -----------------------------------------
Magnitude (a.u.)       :      0.00000
Magnitude (Debye)      :      0.00000



--------------------
Rotational spectrum 
--------------------
 
Rotational constants in cm-1:     0.000000     0.000000     0.000000 
Rotational constants in MHz :     0.000000     0.000000     0.000000 

 Dipole components along the rotational axes: 
x,y,z [a.u.] :    -0.000000     0.000000    -0.000000 
x,y,z [Debye]:    -0.000000     0.000000    -0.000000 

 

Timings for individual modules:

Sum of individual times         ...        7.948 sec (=   0.132 min)
GTO integral calculation        ...        0.769 sec (=   0.013 min)   9.7 %
SCF iterations                  ...        3.639 sec (=   0.061 min)  45.8 %
MDCI module                     ...        3.539 sec (=   0.059 min)  44.5 %
                             ****ORCA TERMINATED NORMALLY****
TOTAL RUN TIME: 0 days 0 hours 0 minutes 8 seconds 793 msec
