
                                 *****************
                                 * O   R   C   A *
                                 *****************

           --- An Ab Initio, DFT and Semiempirical electronic structure package ---

                  #######################################################
                  #                        -***-                        #
                  #          Department of theory and spectroscopy      #
                  #               Directorship: Frank Neese             #
                  #        Max Planck Institute fuer Kohlenforschung    #
                  #                Kaiser Wilhelm Platz 1               #
                  #                 D-45470 Muelheim/Ruhr               #
                  #                      Germany                        #
                  #                                                     #
                  #                  All rights reserved                #
                  #                        -***-                        #
                  #######################################################


                         Program Version 4.2.0 -  RELEASE  -


 With contributions from (in alphabetic order):
   Daniel Aravena         : Magnetic Suceptibility
   Michael Atanasov       : Ab Initio Ligand Field Theory (pilot matlab implementation)
   Alexander A. Auer      : GIAO ZORA, VPT2
   Ute Becker             : Parallelization
   Giovanni Bistoni       : ED, misc. LED, open-shell LED, HFLED
   Martin Brehm           : Molecular dynamics
   Dmytro Bykov           : SCF Hessian
   Vijay G. Chilkuri      : MRCI spin determinant printing, contributions to CSF-ICE
   Dipayan Datta          : RHF DLPNO-CCSD density
   Achintya Kumar Dutta   : EOM-CC, STEOM-CC
   Dmitry Ganyushin       : Spin-Orbit,Spin-Spin,Magnetic field MRCI
   Miquel Garcia          : C-PCM Hessian, Gaussian charge scheme
   Yang Guo               : DLPNO-NEVPT2, CIM, IAO-localization
   Andreas Hansen         : Spin unrestricted coupled pair/coupled cluster methods
   Benjamin Helmich-Paris : CASSCF linear response (MC-RPA)
   Lee Huntington         : MR-EOM, pCC
   Robert Izsak           : Overlap fitted RIJCOSX, COSX-SCS-MP3, EOM
   Christian Kollmar      : KDIIS, OOCD, Brueckner-CCSD(T), CCSD density
   Simone Kossmann        : Meta GGA functionals, TD-DFT gradient, OOMP2, MP2 Hessian
   Martin Krupicka        : AUTO-CI
   Lucas Lang             : DCDCAS
   Dagmar Lenk            : GEPOL surface, SMD
   Dimitrios Liakos       : Extrapolation schemes; Compound Job, initial MDCI parallelization
   Dimitrios Manganas     : Further ROCIS development; embedding schemes
   Dimitrios Pantazis     : SARC Basis sets
   Taras Petrenko         : DFT Hessian,TD-DFT gradient, ASA, ECA, R-Raman, ABS, FL, XAS/XES, NRVS
   Peter Pinski           : DLPNO-MP2, DLPNO-MP2 Gradient
   Christoph Reimann      : Effective Core Potentials
   Marius Retegan         : Local ZFS, SOC
   Christoph Riplinger    : Optimizer, TS searches, QM/MM, DLPNO-CCSD(T), (RO)-DLPNO pert. Triples
   Tobias Risthaus        : Range-separated hybrids, TD-DFT gradient, RPA, STAB
   Michael Roemelt        : Original ROCIS implementation
   Masaaki Saitow         : Open-shell DLPNO-CCSD energy and density
   Barbara Sandhoefer     : DKH picture change effects
   Avijit Sen             : IP-ROCIS
   Kantharuban Sivalingam : CASSCF convergence, NEVPT2, FIC-MRCI
   Bernardo de Souza      : ESD, SOC TD-DFT
   Georgi Stoychev        : AutoAux, RI-MP2 NMR
   Willem Van den Heuvel  : Paramagnetic NMR
   Boris Wezisla          : Elementary symmetry handling
   Frank Wennmohs         : Technical directorship


 We gratefully acknowledge several colleagues who have allowed us to
 interface, adapt or use parts of their codes:
   Stefan Grimme, W. Hujo, H. Kruse,             : VdW corrections, initial TS optimization,
                  C. Bannwarth                     DFT functionals, gCP, sTDA/sTD-DF
   Ed Valeev, F. Pavosevic, A. Kumar             : LibInt (2-el integral package), F12 methods
   Garnet Chan, S. Sharma, J. Yang, R. Olivares  : DMRG
   Ulf Ekstrom                                   : XCFun DFT Library
   Mihaly Kallay                                 : mrcc  (arbitrary order and MRCC methods)
   Andreas Klamt, Michael Diedenhofen            : otool_cosmo (COSMO solvation model)
   Jiri Pittner, Ondrej Demel                    : Mk-CCSD
   Frank Weinhold                                : gennbo (NPA and NBO analysis)
   Christopher J. Cramer and Donald G. Truhlar   : smd solvation model
   Lars Goerigk                                  : TD-DFT with DH, B97 family of functionals
   V. Asgeirsson, H. Jonsson                     : NEB implementation
   FAccTs GmbH                                   : IRC, NEB, NEB-TS, Multilevel, MM, QM/MM, CI optimization
   S Lehtola, MJT Oliveira, MAL Marques          : LibXC Library


 Your calculation uses the libint2 library for the computation of 2-el integrals
 For citations please refer to: http://libint.valeyev.net

 Your ORCA version has been built with support for libXC version: 4.2.3
 For citations please refer to: https://tddft.org/programs/libxc/

 This ORCA versions uses:
   CBLAS   interface :  Fast vector & matrix operations
   LAPACKE interface :  Fast linear algebra routines
   SCALAPACK package :  Parallel linear algebra routines


----- Orbital basis set information -----
Your calculation utilizes the basis: def2-TZVP
   F. Weigend and R. Ahlrichs, Phys. Chem. Chem. Phys. 7, 3297 (2005).

================================================================================
                                        WARNINGS
                       Please study these warnings very carefully!
================================================================================


WARNING: your system is open-shell and RHF/RKS was chosen
  ===> : WILL SWITCH to UHF/UKS


WARNING: MDCI localization with Augmented Hessian Foster-Boys
  ===> : Switching off randomization!

WARNING: Post HF methods need fully converged wavefunctions
  ===> : Setting SCFConvForced true
         You can overwrite this default with %scf ConvForced false 


INFO   : the flag for use of LIBINT has been found!

================================================================================
                                       INPUT FILE
================================================================================
NAME = 14_Si.in
|  1> #
|  2> # 14_Si CCSD(T)/Def2-TZVP
|  3> #
|  4> ! CCSD(T) Def2-TZVP tightscf
|  5> 
|  6> *xyz 0 3
|  7>  Si 0.0 0.0 0.0
|  8> *
|  9> 
| 10> %maxcore 5000 
| 11> 
| 12> %pal
| 13> nprocs 6
| 14> end
| 15> 
| 16> 
| 17>                          ****END OF INPUT****
================================================================================

                       ****************************
                       * Single Point Calculation *
                       ****************************

---------------------------------
CARTESIAN COORDINATES (ANGSTROEM)
---------------------------------
  Si     0.000000    0.000000    0.000000

----------------------------
CARTESIAN COORDINATES (A.U.)
----------------------------
  NO LB      ZA    FRAG     MASS         X           Y           Z
   0 Si   14.0000    0    28.086    0.000000    0.000000    0.000000

--------------------------------
INTERNAL COORDINATES (ANGSTROEM)
--------------------------------
 Si     0   0   0     0.000000000000     0.00000000     0.00000000

---------------------------
INTERNAL COORDINATES (A.U.)
---------------------------
 Si     0   0   0     0.000000000000     0.00000000     0.00000000

---------------------
BASIS SET INFORMATION
---------------------
There are 1 groups of distinct atoms

 Group   1 Type Si  : 14s9p3d1f contracted to 5s5p2d1f pattern {73211/51111/21/1}

Atom   0Si   basis set group =>   1


           ************************************************************
           *        Program running with 6 parallel MPI-processes     *
           *              working on a common directory               *
           ************************************************************
------------------------------------------------------------------------------
                           ORCA GTO INTEGRAL CALCULATION
------------------------------------------------------------------------------

                         BASIS SET STATISTICS AND STARTUP INFO

 # of primitive gaussian shells          ...   27
 # of primitive gaussian functions       ...   63
 # of contracted shells                  ...   13
 # of contracted basis functions         ...   37
 Highest angular momentum                ...    3
 Maximum contraction depth               ...    7
 Integral package used                   ... LIBINT
 Integral threshhold            Thresh   ...  2.500e-11
 Primitive cut-off              TCut     ...  2.500e-12


------------------------------ INTEGRAL EVALUATION ----------------------------


 * One electron integrals 
 Pre-screening matrix                    ... done
 Shell pair data                         ... done (   0.000 sec)



           ************************************************************
           *        Program running with 6 parallel MPI-processes     *
           *              working on a common directory               *
           ************************************************************
-------------------------------------------------------------------------------
                                 ORCA SCF
-------------------------------------------------------------------------------

------------
SCF SETTINGS
------------
Hamiltonian:
 Ab initio Hamiltonian  Method          .... Hartree-Fock(GTOs)


General Settings:
 Integral files         IntName         .... 14_Si
 Hartree-Fock type      HFTyp           .... UHF
 Total Charge           Charge          ....    0
 Multiplicity           Mult            ....    3
 Number of Electrons    NEL             ....   14
 Basis Dimension        Dim             ....   37
 Nuclear Repulsion      ENuc            ....      0.0000000000 Eh

Convergence Acceleration:
 DIIS                   CNVDIIS         .... on
   Start iteration      DIISMaxIt       ....    12
   Startup error        DIISStart       ....  0.200000
   # of expansion vecs  DIISMaxEq       ....     5
   Bias factor          DIISBfac        ....   1.050
   Max. coefficient     DIISMaxC        ....  10.000
 Newton-Raphson         CNVNR           .... off
 SOSCF                  CNVSOSCF        .... off
 Level Shifting         CNVShift        .... on
   Level shift para.    LevelShift      ....    0.2500
   Turn off err/grad.   ShiftErr        ....    0.0010
 Zerner damping         CNVZerner       .... off
 Static damping         CNVDamp         .... on
   Fraction old density DampFac         ....    0.7000
   Max. Damping (<1)    DampMax         ....    0.9800
   Min. Damping (>=0)   DampMin         ....    0.0000
   Turn off err/grad.   DampErr         ....    0.1000
 Fernandez-Rico         CNVRico         .... off

SCF Procedure:
 Maximum # iterations   MaxIter         ....   125
 SCF integral mode      SCFMode         .... Direct
   Integral package                     .... LIBINT
 Reset frequency        DirectResetFreq ....    20
 Integral Threshold     Thresh          ....  2.500e-11 Eh
 Primitive CutOff       TCut            ....  2.500e-12 Eh

Convergence Tolerance:
 Convergence Check Mode ConvCheckMode   .... Total+1el-Energy
 Convergence forced     ConvForced      .... 1
 Energy Change          TolE            ....  1.000e-08 Eh
 1-El. energy change                    ....  1.000e-05 Eh
 DIIS Error             TolErr          ....  5.000e-07


Diagonalization of the overlap matrix:
Smallest eigenvalue                        ... 5.958e-02
Time for diagonalization                   ...    0.001 sec
Threshold for overlap eigenvalues          ... 1.000e-08
Number of eigenvalues below threshold      ... 0
Time for construction of square roots      ...    0.005 sec
Total time needed                          ...    0.006 sec

-------------------
DFT GRID GENERATION
-------------------

General Integration Accuracy     IntAcc      ...  4.340
Radial Grid Type                 RadialGrid  ... Gauss-Chebyshev
Angular Grid (max. acc.)         AngularGrid ... Lebedev-110
Angular grid pruning method      GridPruning ... 3 (G Style)
Weight generation scheme         WeightScheme... Becke
Basis function cutoff            BFCut       ...    1.0000e-11
Integration weight cutoff        WCut        ...    1.0000e-14
Grids for H and He will be reduced by one unit

# of grid points (after initial pruning)     ...   1866 (   0.0 sec)
# of grid points (after weights+screening)   ...   1866 (   0.0 sec)
Grid point division into batches done        ...    0.0 sec
Reduced shell lists constructed in    0.0 sec

Total number of grid points                  ...     1866
Total number of batches                      ...       30
Average number of points per batch           ...       62
Average number of grid points per atom       ...     1866
Average number of shells per batch           ...     6.67 (51.28%)
Average number of basis functions per batch  ...    23.33 (63.06%)
Average number of large shells per batch     ...     6.00 (90.00%)
Average number of large basis fcns per batch ...    21.33 (91.43%)
Maximum spatial batch extension              ...  19.45, 35.80, 35.80 au
Average spatial batch extension              ...   2.82,  4.19,  5.45 au

Time for grid setup =    0.023 sec

------------------------------
INITIAL GUESS: MODEL POTENTIAL
------------------------------
Loading Hartree-Fock densities                     ... done
Calculating cut-offs                               ... done
Setting up the integral package                    ... done
Initializing the effective Hamiltonian             ... done
Starting the Coulomb interaction                   ... done (   0.0 sec)
Reading the grid                                   ... done
Mapping shells                                     ... done
Starting the XC term evaluation                    ... done (   0.0 sec)
Transforming the Hamiltonian                       ... done (   0.0 sec)
Diagonalizing the Hamiltonian                      ... done (   0.0 sec)
Back transforming the eigenvectors                 ... done (   0.0 sec)
Now organizing SCF variables                       ... done
                      ------------------
                      INITIAL GUESS DONE (   0.1 sec)
                      ------------------
--------------
SCF ITERATIONS
--------------
ITER       Energy         Delta-E        Max-DP      RMS-DP      [F,P]     Damp
               ***  Starting incremental Fock matrix formation  ***
  0   -288.8349950979   0.000000000000 0.01075390  0.00055061  0.1315483 0.7000
  1   -288.8389861947  -0.003991096830 0.01103581  0.00049863  0.0925076 0.7000
                               ***Turning on DIIS***
  2   -288.8420390995  -0.003052904842 0.03115977  0.00135466  0.0650201 0.0000
  3   -288.8494981767  -0.007459077143 0.00896845  0.00038786  0.0064867 0.0000
  4   -288.8481802854   0.001317891277 0.00366107  0.00018610  0.0016184 0.0000
  5   -288.8504354874  -0.002255202001 0.00361636  0.00018993  0.0007010 0.0000
  6   -288.8498467589   0.000588728521 0.00183592  0.00006782  0.0002255 0.0000
  7   -288.8507519137  -0.000905154800 0.00031404  0.00000983  0.0000243 0.0000
  8   -288.8507844372  -0.000032523537 0.00014658  0.00000457  0.0000073 0.0000
  9   -288.8507788155   0.000005621667 0.00006118  0.00000168  0.0000034 0.0000
                            ***DIIS convergence achieved***

               *****************************************************
               *                     SUCCESS                       *
               *           SCF CONVERGED AFTER  10 CYCLES          *
               *****************************************************


----------------
TOTAL SCF ENERGY
----------------

Total Energy       :         -288.85079100 Eh           -7860.02962 eV

Components:
Nuclear Repulsion  :            0.00000000 Eh               0.00000 eV
Electronic Energy  :         -288.85079100 Eh           -7860.02962 eV
One Electron Energy:         -400.56767562 Eh          -10900.00060 eV
Two Electron Energy:          111.71688463 Eh            3039.97098 eV

Virial components:
Potential Energy   :         -577.69889864 Eh          -15719.98622 eV
Kinetic Energy     :          288.84810765 Eh            7859.95660 eV
Virial Ratio       :            2.00000929


---------------
SCF CONVERGENCE
---------------

  Last Energy change         ...   -1.2180e-05  Tolerance :   1.0000e-08
  Last MAX-Density change    ...    5.8292e-06  Tolerance :   1.0000e-07
  Last RMS-Density change    ...    1.5881e-07  Tolerance :   5.0000e-09
  Last DIIS Error            ...    4.3550e-07  Tolerance :   5.0000e-07

             **** THE GBW FILE WAS UPDATED (14_Si.gbw) ****
             **** DENSITY FILE WAS UPDATED (14_Si.scfp) ****
             **** ENERGY FILE WAS UPDATED (14_Si.en.tmp) ****
----------------------
UHF SPIN CONTAMINATION
----------------------

Expectation value of <S**2>     :     2.015098
Ideal value S*(S+1) for S=1.0   :     2.000000
Deviation                       :     0.015098

             **** THE GBW FILE WAS UPDATED (14_Si.gbw) ****
             **** DENSITY FILE WAS UPDATED (14_Si.scfp) ****
----------------
ORBITAL ENERGIES
----------------
                 SPIN UP ORBITALS
  NO   OCC          E(Eh)            E(eV) 
   0   1.0000     -68.813902     -1872.5215 
   1   1.0000      -6.160085      -167.6244 
   2   1.0000      -4.268267      -116.1454 
   3   1.0000      -4.268267      -116.1454 
   4   1.0000      -4.257503      -115.8525 
   5   1.0000      -0.619391       -16.8545 
   6   1.0000      -0.300881        -8.1874 
   7   1.0000      -0.300881        -8.1874 
   8   0.0000      -0.003273        -0.0891 
   9   0.0000       0.284554         7.7431 
  10   0.0000       0.284554         7.7431 
  11   0.0000       0.312017         8.4904 
  12   0.0000       0.314268         8.5517 
  13   0.0000       0.314268         8.5517 
  14   0.0000       0.321536         8.7494 
  15   0.0000       0.335692         9.1346 
  16   0.0000       0.335692         9.1346 
  17   0.0000       0.344589         9.3767 
  18   0.0000       1.176702        32.0197 
  19   0.0000       1.178199        32.0604 
  20   0.0000       1.178199        32.0604 
  21   0.0000       1.182607        32.1804 
  22   0.0000       1.182607        32.1804 
  23   0.0000       1.186221        32.2787 
  24   0.0000       1.187285        32.3077 
  25   0.0000       1.187285        32.3077 
  26   0.0000       1.190312        32.3900 
  27   0.0000       1.190312        32.3900 
  28   0.0000       1.194846        32.5134 
  29   0.0000       1.194846        32.5134 
  30   0.0000       1.447271        39.3822 
  31   0.0000       1.447271        39.3822 
  32   0.0000       1.451212        39.4895 
  33   0.0000       6.563406       178.5994 
  34   0.0000       6.566407       178.6810 
  35   0.0000       6.566407       178.6810 
  36   0.0000       9.510581       258.7961 

                 SPIN DOWN ORBITALS
  NO   OCC          E(Eh)            E(eV) 
   0   1.0000     -68.803234     -1872.2312 
   1   1.0000      -6.148834      -167.3183 
   2   1.0000      -4.252155      -115.7070 
   3   1.0000      -4.239016      -115.3495 
   4   1.0000      -4.239016      -115.3495 
   5   1.0000      -0.462479       -12.5847 
   6   0.0000       0.016753         0.4559 
   7   0.0000       0.061025         1.6606 
   8   0.0000       0.061025         1.6606 
   9   0.0000       0.321789         8.7563 
  10   0.0000       0.357045         9.7157 
  11   0.0000       0.357045         9.7157 
  12   0.0000       0.357855         9.7377 
  13   0.0000       0.385710        10.4957 
  14   0.0000       0.392567        10.6823 
  15   0.0000       0.392567        10.6823 
  16   0.0000       0.423519        11.5245 
  17   0.0000       0.423519        11.5245 
  18   0.0000       1.196686        32.5635 
  19   0.0000       1.205370        32.7998 
  20   0.0000       1.205370        32.7998 
  21   0.0000       1.215648        33.0795 
  22   0.0000       1.220887        33.2220 
  23   0.0000       1.220887        33.2220 
  24   0.0000       1.234836        33.6016 
  25   0.0000       1.234836        33.6016 
  26   0.0000       1.236763        33.6540 
  27   0.0000       1.236763        33.6540 
  28   0.0000       1.264512        34.4091 
  29   0.0000       1.264512        34.4091 
  30   0.0000       1.460818        39.7509 
  31   0.0000       1.500239        40.8236 
  32   0.0000       1.500239        40.8236 
  33   0.0000       6.568228       178.7306 
  34   0.0000       6.592571       179.3930 
  35   0.0000       6.592571       179.3930 
  36   0.0000       9.527369       259.2529 

                    ********************************
                    * MULLIKEN POPULATION ANALYSIS *
                    ********************************

--------------------------------------------
MULLIKEN ATOMIC CHARGES AND SPIN POPULATIONS
--------------------------------------------
   0 Si:    0.000000    2.000000
Sum of atomic charges         :    0.0000000
Sum of atomic spin populations:    2.0000000

-----------------------------------------------------
MULLIKEN REDUCED ORBITAL CHARGES AND SPIN POPULATIONS
-----------------------------------------------------
CHARGE
  0 Sis       :     5.992428  s :     5.992428
      pz      :     2.512596  p :     7.999969
      px      :     2.487389
      py      :     2.999985
      dz2     :     0.000404  d :     0.007572
      dxz     :     0.005676
      dyz     :     0.000000
      dx2y2   :     0.001492
      dxy     :     0.000000
      f0      :     0.000006  f :     0.000031
      f+1     :     0.000007
      f-1     :     0.000002
      f+2     :     0.000001
      f-2     :     0.000010
      f+3     :     0.000002
      f-3     :     0.000004

SPIN
  0 Sis       :    -0.000065  s :    -0.000065
      pz      :     0.512596  p :     1.999971
      px      :     0.487389
      py      :     0.999985
      dz2     :     0.000003  d :     0.000065
      dxz     :     0.000049
      dyz     :     0.000000
      dx2y2   :     0.000013
      dxy     :     0.000000
      f0      :     0.000006  f :     0.000029
      f+1     :     0.000006
      f-1     :     0.000002
      f+2     :     0.000001
      f-2     :     0.000009
      f+3     :     0.000002
      f-3     :     0.000004


                     *******************************
                     * LOEWDIN POPULATION ANALYSIS *
                     *******************************

-------------------------------------------
LOEWDIN ATOMIC CHARGES AND SPIN POPULATIONS
-------------------------------------------
   0 Si:    0.000000    2.000000

----------------------------------------------------
LOEWDIN REDUCED ORBITAL CHARGES AND SPIN POPULATIONS
----------------------------------------------------
CHARGE
  0 Sis       :     5.992428  s :     5.992428
      pz      :     2.512596  p :     7.999969
      px      :     2.487389
      py      :     2.999985
      dz2     :     0.000404  d :     0.007572
      dxz     :     0.005676
      dyz     :     0.000000
      dx2y2   :     0.001492
      dxy     :     0.000000
      f0      :     0.000006  f :     0.000031
      f+1     :     0.000007
      f-1     :     0.000002
      f+2     :     0.000001
      f-2     :     0.000010
      f+3     :     0.000002
      f-3     :     0.000004

SPIN
  0 Sis       :    -0.000065  s :    -0.000065
      pz      :     0.512596  p :     1.999971
      px      :     0.487389
      py      :     0.999985
      dz2     :     0.000003  d :     0.000065
      dxz     :     0.000049
      dyz     :     0.000000
      dx2y2   :     0.000013
      dxy     :     0.000000
      f0      :     0.000006  f :     0.000029
      f+1     :     0.000006
      f-1     :     0.000002
      f+2     :     0.000001
      f-2     :     0.000009
      f+3     :     0.000002
      f-3     :     0.000004


                      *****************************
                      * MAYER POPULATION ANALYSIS *
                      *****************************

  NA   - Mulliken gross atomic population
  ZA   - Total nuclear charge
  QA   - Mulliken gross atomic charge
  VA   - Mayer's total valence
  BVA  - Mayer's bonded valence
  FA   - Mayer's free valence

  ATOM       NA         ZA         QA         VA         BVA        FA
  0 Si    14.0000    14.0000     0.0000     2.0302     0.0000     2.0302

  Mayer bond orders larger than 0.100000


-------
TIMINGS
-------

Total SCF time: 0 days 0 hours 0 min 1 sec 

Total time                  ....       1.558 sec
Sum of individual times     ....       1.324 sec  ( 85.0%)

Fock matrix formation       ....       1.024 sec  ( 65.7%)
Diagonalization             ....       0.018 sec  (  1.1%)
Density matrix formation    ....       0.001 sec  (  0.1%)
Population analysis         ....       0.027 sec  (  1.8%)
Initial guess               ....       0.089 sec  (  5.7%)
Orbital Transformation      ....       0.000 sec  (  0.0%)
Orbital Orthonormalization  ....       0.000 sec  (  0.0%)
DIIS solution               ....       0.141 sec  (  9.0%)


           ************************************************************
           *        Program running with 6 parallel MPI-processes     *
           *              working on a common directory               *
           ************************************************************


------------------------------------------------------------------------------- 
                              ORCA-MATRIX DRIVEN CI                            
------------------------------------------------------------------------------- 

--------------------------------
AUTOMATIC CHOICE OF INCORE LEVEL
--------------------------------

Memory available                           ...   2500.00 MB
Memory needed for S+T                      ...      0.12 MB
Memory needed for J+K                      ...      0.23 MB
Memory needed for DIIS                     ...      1.62 MB
Memory needed for 3-ext                    ...      0.56 MB
Memory needed for 4-ext                    ...      2.79 MB
Memory needed for triples                  ...      0.93 MB
 -> Final InCoreLevel    ... 5
 -> check shows that triples correction can be computed


Wavefunction type
-----------------
Correlation treatment                      ...      CCSD     
Single excitations                         ... ON
Orbital optimization                       ... OFF
Calculation of Z vector                    ... OFF
Calculation of Brueckner orbitals          ... OFF
Perturbative triple excitations            ... ON
Calculation of F12 correction              ... OFF
Frozen core treatment                      ... chemical core (10 el)
Reference Wavefunction                     ... UHF
  Alpha-MOs occ    :     5 ...    7 (  3 MO's/  3 electrons)
  Beta-MOs occ     :     5 ...    5 (  1 MO's/  1 electrons)
  Alpha-MOs virt   :     8 ...   36 ( 29 MO's              )
  Beta-MOs virt    :     6 ...   36 ( 31 MO's              )
Number of AO's                             ...     37
Number of electrons                        ...     14
Number of correlated electrons             ...      4

Algorithmic settings
--------------------
Integral transformation                    ... AO direct full transformation
K(C) Formation                             ... FULL-MO TRAFO
Maximum number of iterations               ...        50
Convergence tolerance (max. residuum)      ... 1.000e-05
Level shift for amplitude update           ... 2.000e-01
Maximum number of DIIS vectors             ...         7
DIIS turned on at iteration                ...         0
Damping before turning on DIIS             ...     0.500
Damping after turning on DIIS              ...     0.000
Pair specific amplitude update             ... OFF
Natural orbital iterations                 ... OFF
Perturbative natural orbital generation    ... OFF
Printlevel                                 ... 2

Memory handling:
----------------
Maximum memory for working arrays          ...   2500 MB
Data storage in matrix containers          ... UNCOMPRESSED
Data type for integral storage             ... DOUBLE
In-Core Storage of quantities:
   Amplitudes+Sigma Vector      ... YES
   J+K operators                ... YES
   DIIS vectors                 ... YES
   3-external integrals         ... YES
   4-external integrals         ... YES


Initializing the integral package          ... done
Warning: reference  - re-canonicalizations have been set to INT 1 VIRT 1

--------------------------
UNRESTRICTED FOCK OPERATOR
--------------------------

<ss|ss>:          120 b            0 skpd (  0.0%)    0.000 s ( 0.001 ms/b)
<ss|sp>:          375 b            0 skpd (  0.0%)    0.000 s ( 0.001 ms/b)
<ss|sd>:          150 b            0 skpd (  0.0%)    0.000 s ( 0.001 ms/b)
<ss|sf>:           75 b            0 skpd (  0.0%)    0.000 s ( 0.001 ms/b)
<ss|pp>:          225 b            0 skpd (  0.0%)    0.000 s ( 0.001 ms/b)
<ss|pd>:          150 b            0 skpd (  0.0%)    0.000 s ( 0.001 ms/b)
<ss|pf>:           75 b            0 skpd (  0.0%)    0.000 s ( 0.002 ms/b)
<ss|dd>:           45 b            0 skpd (  0.0%)    0.000 s ( 0.002 ms/b)
<ss|df>:           30 b            0 skpd (  0.0%)    0.000 s ( 0.003 ms/b)
<ss|ff>:           15 b            0 skpd (  0.0%)    0.000 s ( 0.006 ms/b)
<sp|sp>:          325 b            0 skpd (  0.0%)    0.000 s ( 0.001 ms/b)
<sp|sd>:          250 b            0 skpd (  0.0%)    0.000 s ( 0.001 ms/b)
<sp|sf>:          125 b            0 skpd (  0.0%)    0.000 s ( 0.001 ms/b)
<sp|pp>:          375 b            0 skpd (  0.0%)    0.001 s ( 0.002 ms/b)
<sp|pd>:          250 b            0 skpd (  0.0%)    0.000 s ( 0.002 ms/b)
<sp|pf>:          125 b            0 skpd (  0.0%)    0.000 s ( 0.002 ms/b)
<sp|dd>:           75 b            0 skpd (  0.0%)    0.000 s ( 0.003 ms/b)
<sp|df>:           50 b            0 skpd (  0.0%)    0.000 s ( 0.005 ms/b)
<sp|ff>:           25 b            0 skpd (  0.0%)    0.000 s ( 0.011 ms/b)
<sd|sd>:           55 b            0 skpd (  0.0%)    0.000 s ( 0.002 ms/b)
<sd|sf>:           50 b            0 skpd (  0.0%)    0.000 s ( 0.002 ms/b)
<sd|pp>:          150 b            0 skpd (  0.0%)    0.000 s ( 0.003 ms/b)
<sd|pd>:          100 b            0 skpd (  0.0%)    0.000 s ( 0.003 ms/b)
<sd|pf>:           50 b            0 skpd (  0.0%)    0.000 s ( 0.004 ms/b)
<sd|dd>:           30 b            0 skpd (  0.0%)    0.000 s ( 0.007 ms/b)
<sd|df>:           20 b            0 skpd (  0.0%)    0.000 s ( 0.011 ms/b)
<sd|ff>:           10 b            0 skpd (  0.0%)    0.000 s ( 0.024 ms/b)
<sf|sf>:           15 b            0 skpd (  0.0%)    0.000 s ( 0.003 ms/b)
<sf|pp>:           75 b            0 skpd (  0.0%)    0.000 s ( 0.004 ms/b)
<sf|pd>:           50 b            0 skpd (  0.0%)    0.000 s ( 0.004 ms/b)
<sf|pf>:           25 b            0 skpd (  0.0%)    0.000 s ( 0.007 ms/b)
<sf|dd>:           15 b            0 skpd (  0.0%)    0.000 s ( 0.010 ms/b)
<sf|df>:           10 b            0 skpd (  0.0%)    0.000 s ( 0.018 ms/b)
<sf|ff>:            5 b            0 skpd (  0.0%)    0.000 s ( 0.037 ms/b)
<pp|pp>:          120 b            0 skpd (  0.0%)    0.001 s ( 0.004 ms/b)
<pp|pd>:          150 b            0 skpd (  0.0%)    0.000 s ( 0.003 ms/b)
<pp|pf>:           75 b            0 skpd (  0.0%)    0.000 s ( 0.004 ms/b)
<pp|dd>:           45 b            0 skpd (  0.0%)    0.000 s ( 0.007 ms/b)
<pp|df>:           30 b            0 skpd (  0.0%)    0.000 s ( 0.013 ms/b)
<pp|ff>:           15 b            0 skpd (  0.0%)    0.000 s ( 0.027 ms/b)
<pd|pd>:           55 b            0 skpd (  0.0%)    0.000 s ( 0.007 ms/b)
<pd|pf>:           50 b            0 skpd (  0.0%)    0.000 s ( 0.008 ms/b)
<pd|dd>:           30 b            0 skpd (  0.0%)    0.000 s ( 0.013 ms/b)
<pd|df>:           20 b            0 skpd (  0.0%)    0.001 s ( 0.025 ms/b)
<pd|ff>:           10 b            0 skpd (  0.0%)    0.001 s ( 0.052 ms/b)
<pf|pf>:           15 b            0 skpd (  0.0%)    0.000 s ( 0.012 ms/b)
<pf|dd>:           15 b            0 skpd (  0.0%)    0.000 s ( 0.017 ms/b)
<pf|df>:           10 b            0 skpd (  0.0%)    0.000 s ( 0.038 ms/b)
<pf|ff>:            5 b            0 skpd (  0.0%)    0.000 s ( 0.078 ms/b)
<dd|dd>:            6 b            0 skpd (  0.0%)    0.000 s ( 0.031 ms/b)
<dd|df>:            6 b            0 skpd (  0.0%)    0.000 s ( 0.042 ms/b)
<dd|ff>:            3 b            0 skpd (  0.0%)    0.000 s ( 0.093 ms/b)
<df|df>:            3 b            0 skpd (  0.0%)    0.000 s ( 0.065 ms/b)
<df|ff>:            2 b            0 skpd (  0.0%)    0.000 s ( 0.157 ms/b)
<ff|ff>:            1 b            0 skpd (  0.0%)    0.000 s ( 0.257 ms/b)
Recanonicalizing the internal orbitals
Recanonicalizing the virtual orbitals
Time needed for Fock operator              ...            0.035 sec
Reference energy                           ...   -288.850793492
Warning: for UHF the TrafoType has to be JK
Warning: for UHF the K(C)-option cannot be MO but must be AOX

-------------------------------
PARTIAL EXCHANGE TRANSFORMATION
-------------------------------

Transformation type                        ... two-operators
Generation of integrals (i,mue|j,nue)      ... ON
Generation of integrals (mue,kappa|nue,tau)... ON
Generation of integrals (i,mue|a,nue)      ... ON
Dimension of the basis                     ...   37
Number of internal alpha-MOs               ...    3 (   5-   7)
Number of internal beta-MOs                ...    1 (   5-   5)
Number of external alpha-MOs               ...   29 (   8-  36)
Number of external beta-MOs                ...   31 (   6-  36)
Pair cutoff                                ... 0.000e+00 Eh
Number of AO pairs in the trafo            ...  703
Total Number of distinct AO pairs          ...  703
Memory devoted for trafo                   ... 2500.0 MB 
Max. Number of MO pairs treated together   ... 239357      
Number Format for Storage                  ... Double (8 Byte)
Integral package used                      ... LIBINT

Starting integral evaluation:
    ... done with AO integral generation
Closing buffer AOK[aa] ( 0.00 GB; CompressionRatio= 0.86)
Closing buffer AOK[bb] ( 0.00 GB; CompressionRatio= 0.40)
Closing buffer AOK[ab] ( 0.00 GB; CompressionRatio= 0.67)
Closing buffer AOK[ba] ( 0.00 GB; CompressionRatio= 0.67)
Collecting buffer AOK 
Closing buffer IAAO1[aa] ( 0.00 GB; CompressionRatio= 0.98)
Closing buffer IAAO1[bb] ( 0.00 GB; CompressionRatio= 0.95)
Closing buffer IAAO1[ab] ( 0.00 GB; CompressionRatio= 0.98)
Closing buffer IAAO1[ba] ( 0.00 GB; CompressionRatio= 0.95)
Closing buffer IAAO2[aa] ( 0.00 GB; CompressionRatio= 0.98)
Closing buffer IAAO2[bb] ( 0.00 GB; CompressionRatio= 0.95)
Closing buffer IAAO2[ab] ( 0.00 GB; CompressionRatio= 0.98)
Closing buffer IAAO2[ba] ( 0.00 GB; CompressionRatio= 0.95)
Collecting buffer IAAO 
Closing buffer PRQS    ( 0.00 GB; CompressionRatio= 1.00)
Collecting buffer PRQS 
Number of alpha/alpha MO pairs in trafo    ...    6
Number of beta /beta  MO pairs in trafo    ...    1
Number of alpha/ beta MO pairs in trafo    ...    3
------------------------
SORTING OF (i,mue|j,nue)
------------------------

SORTING OF ALPHA/ALPHA PAIRS
IBATCH = 1 of  1
Closing buffer KAO[aa] ( 0.00 GB; CompressionRatio= 1.00)
Collecting buffer KAO 
SORTING OF BETA /BETA  PAIRS
IBATCH = 1 of  1
Closing buffer KAO[bb] ( 0.00 GB; CompressionRatio= 1.00)
Collecting buffer KAO 
SORTING OF ALPHA/BETA  PAIRS
IBATCH = 1 of  1
Closing buffer KAO[ab] ( 0.00 GB; CompressionRatio= 0.998905508938)
Collecting buffer KAO[ab] 
------------------------
SORTING OF (i,mue|a,nue)
------------------------

Number of alpha/alpha (i,a) pairs in trafo  ...   87
Number of beta /beta  (i,a) pairs in trafo  ...   31
Number of alpha/ beta (i,a) pairs in trafo  ...   93
Number of beta /alpha (i,a) pairs in trafo  ...   29
Setting up the alpha/alpha list             ... done
Setting up the beta /beta  list             ... done
Setting up the alpha/beta  list             ... done
Setting up the beta /alpha list             ... done
    ... Now sorting (i,mue|a,nue)integrals
    ... Integrals (i,b|a,c) will be made on the fly
SORTING OF ALPHA/ALPHA PAIRS
IBATCH = 1 of  1
Closing buffer IPAQ[aa]  0.00 GB; CompressionRatio= 1.00)
SORTING OF BETA /BETA  PAIRS
IBATCH = 1 of  1
Closing buffer IPAQ[bb]( 0.00 GB; CompressionRatio= 1.00)
SORTING OF ALPHA/BETA  PAIRS (NMatSort_ab=16)
IBATCH = 1 of  1
Closing buffer IPAQ[ab]( 0.00 GB; CompressionRatio= 1.00)
SORTING OF BETA/ALPHA  PAIRS
IBATCH = 1 of  1
Closing buffer IPAQ[ba]( 0.00 GB; CompressionRatio= 1.00)
N(AO-Batches) Done                         ...      1690 
N(AO-Batches) Skipped                      ...         0 
N(IJ)-pairs Skipped                        ...         0 
TOTAL TIME for half transformation         ...     1.196 sec
AO-integral generation                     ...     0.030 sec
Half transformation                        ...     0.514 sec
K-integral sorting                         ...     0.123 sec
<ss|**>: 
------------------------------
PARTIAL COULOMB TRANSFORMATION
------------------------------

Transformation type                        ... two-operators
Dimension of the basis                     ...   37
Number of internal alpha-MOs               ...    3 (5-7)
Number of internal beta-MOs                ...    1 (5-5)
Pair cutoff                                ... 0.000e+00 Eh
Number of AO pairs included in the trafo   ...  703
Total Number of distinct AO pairs          ...  703
Memory devoted for trafo                   ... 2500.0 MB 
Max. Number of MO pairs treated together   ... 466116      
Max. Number of MOs treated per batch       ... 12597      
Number Format for Storage                  ... Double (8 Byte)
AO-integral source                         ... DIRECT
Integral package used                      ... LIBINT

Starting integral evaluation:
<sp|**>:         1365 b        0 skpd     0.003 s (  0.002 ms/b)
<sd|**>:         2275 b        0 skpd     0.016 s (  0.007 ms/b)
<sf|**>:          910 b        0 skpd     0.012 s (  0.014 ms/b)
<pp|**>:          455 b        0 skpd     0.009 s (  0.020 ms/b)
        1365 b        0 skpd     0.028 s (  0.020 ms/b)
<pd|**>:          910 b        0 skpd     0.036 s (  0.040 ms/b)
<pf|**>: <dd|**>:          455 b        0 skpd     0.025 s (  0.055 ms/b)
         273 b        0 skpd     0.021 s (  0.075 ms/b)
<df|**>:          182 b        0 skpd     0.029 s (  0.157 ms/b)
<ff|**>:           91 b        0 skpd     0.017 s (  0.186 ms/b)
Closing buffer AOJ[aa] ( 0.00 GB; CompressionRatio= 0.80)
Closing buffer AOJ[bb] ( 0.00 GB; CompressionRatio= 0.00)
Collecting buffer AOJ 
    ... done with AO integral generation
Number of Alpha-MO pairs included          ...    6
Number of Beta-MO pairs included           ...    1
    ... Now sorting integrals
SORTING ALPHA/ALPHA PAIRS
IBATCH = 1 of  1
Closing buffer JAO[aa] ( 0.00 GB; CompressionRatio= 1.00)
SORTING BETA/BETA PAIRS
IBATCH = 1 of  1
Closing buffer JAO[bb] ( 0.00 GB; CompressionRatio= 1.00)
Collecting buffer JAO 
TOTAL TIME for half transformation         ...     0.227 sec
AO-integral generation                     ...     0.086 sec
Half transformation                        ...     0.111 sec
J-integral sorting                         ...     0.021 sec

-------------------------- SECOND HALF TRANSFORMATION -------------------------
Formation of (ij|kl),(ij|ka), (ij|ab)      ... ok (     0.022 sec)
Formation of (ik|jl),(ik|ja), (ia|jb)      ... ok (     0.038 sec)


-----------------------
SPIN UNRESTRICTED GUESS
-----------------------

Entering MDCI_UHF_Guess, Tailored=0
Spin-components of the MP2 energy:
EMP2(aa)=     -0.009550664
EMP2(bb)=      0.000000000
EMP2(ab)=     -0.045362353

Initial guess performed in     0.001 sec
E(0)                                       ...   -288.850793492
E(MP2)                                     ...     -0.054913017
Initial E(tot)                             ...   -288.905706509
<T|T>                                      ...      0.036125368
Number of pairs included                   ... 6

------------------------------------------------
                  UHF COUPLED CLUSTER ITERATIONS
------------------------------------------------

Number of amplitudes to be optimized       ...         4015

Iter       E(tot)           E(Corr)          Delta-E          Residual     Time      <S|S>**1/2
  0   -288.905706509     -0.054913017     -0.000000000      0.022848639    0.04      0.000000129
                           *** Turning on DIIS ***
  1   -288.916774949     -0.065981457     -0.011068440      0.012327476    0.03      0.010374226
  2   -288.923462104     -0.072668612     -0.006687155      0.003657561    0.02      0.020799845
  3   -288.924112707     -0.073319215     -0.000650603      0.001100447    0.02      0.024696626
  4   -288.924345891     -0.073552399     -0.000233184      0.000153935    0.02      0.025837603
  5   -288.924312963     -0.073519471      0.000032928      0.000074437    0.02      0.025829271
  6   -288.924325049     -0.073531557     -0.000012086      0.000021667    0.02      0.025846485
  7   -288.924323260     -0.073529768      0.000001789      0.000002856    0.02      0.025844846
               --- The Coupled-Cluster iterations have converged ---

----------------------
COUPLED CLUSTER ENERGY
----------------------

E(0)                                       ...   -288.850793492
E(CORR)                                    ...     -0.073529768
E(TOT)                                     ...   -288.924323260
Singles norm <S|S>**1/2                    ...      0.025844846 ( 0.023941399, 0.001903447)  
T1 diagnostic                              ...      0.012922423                              

------------------
LARGEST AMPLITUDES
------------------
   5a->  8a   5b->  6b       0.097209
   6a-> 15a   5b->  6b       0.062223
   7a-> 16a   5b->  6b       0.062223
   6a-> 12a   5b->  8b       0.057086
   6a-> 13a   5b->  7b       0.057086
   7a-> 13a   5b->  8b       0.057086
   7a-> 12a   5b->  7b       0.057086
   7a-> 13a   6a-> 12a       0.056129
   7a-> 12a   6a-> 13a       0.056129
   5a->  8a   5b->  9b       0.051154
   5a-> 11a   5b->  6b       0.047734
   6a->  8a   5b-> 15b       0.041754
   7a->  8a   5b-> 14b       0.041754
   7a-> 17a   5b->  7b       0.035905
   6a-> 17a   5b->  8b       0.035905
   6a-> 12a   5b-> 11b       0.032789

----------------------
UHF TRIPLES CORRECTION (Algorithm 1)
----------------------

Multiplier for the singles contribution    ...      1.000000000

SPIN-CASE Alpha-Alpha-Alpha:
10% done
20% done
30% done
40% done
50% done
60% done
70% done
80% done
90% done


SPIN-CASE Beta-Beta-Beta:

SPIN-CASE Alpha-Alpha-Beta:
10% done
20% done
30% done
40% done
50% done
60% done
70% done
80% done
90% done


SPIN-CASE Beta-Beta-Alpha:

Triples Correction (T)                     ...     -0.002420530
    alpha-alpha-alpha ... -0.000060690 (  2.5%)
    alpha-alpha-beta  ... -0.002359840 ( 97.5%)
    alpha-beta -beta  ...  0.000000000 ( -0.0%)
    beta -beta -beta  ...  0.000000000 ( -0.0%)
Scaling of triples based on CCSD energies (Peterson et al. Molecular Physics 113, 1551 (2015))
E(T*) = f*E(T) where f = E(F12-CCSD)/E(CCSD) 
f = CCSD (with F12)/ CCSD (without F12)    ...      1.000000000
Scaled triples correction (T)              ...     -0.002420530

Final correlation energy                   ...     -0.075950298
E(CCSD)                                    ...   -288.924323260
E(CCSD(T))                                 ...   -288.926743790



        !!!!!!!!!!!!!!!!!!!!!!!!!!!!!!!!!!!!!!!!!!!!!!!!!!!!!!!!!!!!!!!!!!!!!!!!!! 
        !  Warning: Densities are linearized densities                           !
        !!!!!!!!!!!!!!!!!!!!!!!!!!!!!!!!!!!!!!!!!!!!!!!!!!!!!!!!!!!!!!!!!!!!!!!!!! 

NORM  =      1.073779476 sqrt=     1.036233312
W(HF) =      0.931289918
------------------------------------------------------------------------------
                           ORCA POPULATION ANALYSIS
------------------------------------------------------------------------------
Input electron density              ... 14_Si.mdcip
Input spin density                  ... 14_Si.mdcir
BaseName (.gbw .S,...)              ... 14_Si

                    ********************************
                    * MULLIKEN POPULATION ANALYSIS *
                    ********************************

------------------------------------------
MULLIKEN ATOMIC CHARGES AND SPIN DENSITIES
------------------------------------------
   0 Si:    0.000000    2.000000
Sum of atomic charges       :    0.0000000
Sum of atomic spin densities:    2.0000000

---------------------------------------------------
MULLIKEN REDUCED ORBITAL CHARGES AND SPIN DENSITIES
---------------------------------------------------
CHARGE
  0 Sis       :     5.911934  s :     5.911934
      pz      :     2.529898  p :     8.024749
      px      :     2.506170
      py      :     2.988682
      dz2     :     0.011372  d :     0.060612
      dxz     :     0.010452
      dyz     :     0.013015
      dx2y2   :     0.012881
      dxy     :     0.012891
      f0      :     0.000327  f :     0.002704
      f+1     :     0.000275
      f-1     :     0.000419
      f+2     :     0.000402
      f-2     :     0.000392
      f+3     :     0.000445
      f-3     :     0.000444

SPIN
  0 Sis       :     0.039831  s :     0.039831
      pz      :     0.491722  p :     1.922606
      px      :     0.467319
      py      :     0.963565
      dz2     :     0.005933  d :     0.036447
      dxz     :     0.004593
      dyz     :     0.008766
      dx2y2   :     0.008605
      dxy     :     0.008550
      f0      :     0.000148  f :     0.001116
      f+1     :     0.000143
      f-1     :     0.000163
      f+2     :     0.000164
      f-2     :     0.000162
      f+3     :     0.000168
      f-3     :     0.000168


                     *******************************
                     * LOEWDIN POPULATION ANALYSIS *
                     *******************************

-----------------------------------------
LOEWDIN ATOMIC CHARGES AND SPIN DENSITIES
-----------------------------------------
   0 Si:    0.000000    2.000000

--------------------------------------------------
LOEWDIN REDUCED ORBITAL CHARGES AND SPIN DENSITIES
--------------------------------------------------
CHARGE
  0 Sis       :     5.911934  s :     5.911934
      pz      :     2.529898  p :     8.024749
      px      :     2.506170
      py      :     2.988682
      dz2     :     0.011372  d :     0.060612
      dxz     :     0.010452
      dyz     :     0.013015
      dx2y2   :     0.012881
      dxy     :     0.012891
      f0      :     0.000327  f :     0.002704
      f+1     :     0.000275
      f-1     :     0.000419
      f+2     :     0.000402
      f-2     :     0.000392
      f+3     :     0.000445
      f-3     :     0.000444

SPIN
  0 Sis       :     0.039831  s :     0.039831
      pz      :     0.491722  p :     1.922606
      px      :     0.467319
      py      :     0.963565
      dz2     :     0.005933  d :     0.036447
      dxz     :     0.004593
      dyz     :     0.008766
      dx2y2   :     0.008605
      dxy     :     0.008550
      f0      :     0.000148  f :     0.001116
      f+1     :     0.000143
      f-1     :     0.000163
      f+2     :     0.000164
      f-2     :     0.000162
      f+3     :     0.000168
      f-3     :     0.000168


                      *****************************
                      * MAYER POPULATION ANALYSIS *
                      *****************************

  NA   - Mulliken gross atomic population
  ZA   - Total nuclear charge
  QA   - Mulliken gross atomic charge
  VA   - Mayer's total valence
  BVA  - Mayer's bonded valence
  FA   - Mayer's free valence

  ATOM       NA         ZA         QA         VA         BVA        FA
  0 Si    14.0000    14.0000     0.0000     2.4260     0.0000     2.4260





------------------------------------------------------------------------------- 
                                     TIMINGS                                   
------------------------------------------------------------------------------- 


Total execution time                   ...        1.958 sec

Fock Matrix Formation                  ...        0.035 sec (  1.8%)
Initial Guess                          ...        0.001 sec (  0.0%)
DIIS Solver                            ...        0.005 sec (  0.2%)
State Vector Update                    ...        0.000 sec (  0.0%)
Sigma-vector construction              ...        0.197 sec ( 10.1%)
  <D|H|D>(4-ext)                       ...        0.084 sec ( 42.5% of sigma)
  Fock-dressing                        ...        0.081 sec ( 41.2% of sigma)
  (ij|ab),(ia|jb)-dressing             ...        0.016 sec (  8.2% of sigma)
Total Time for computing (T)           ...        0.003 sec (  0.1% of ALL)


-------------------------   --------------------
FINAL SINGLE POINT ENERGY      -288.926743790490
-------------------------   --------------------


                            ***************************************
                            *     ORCA property calculations      *
                            ***************************************

                                    ---------------------
                                    Active property flags
                                    ---------------------
   (+) Dipole Moment


------------------------------------------------------------------------------
                       ORCA ELECTRIC PROPERTIES CALCULATION
------------------------------------------------------------------------------

Dipole Moment Calculation                       ... on
Quadrupole Moment Calculation                   ... off
Polarizability Calculation                      ... off
GBWName                                         ... 14_Si.gbw
Electron density file                           ... 14_Si.scfp
The origin for moment calculation is the CENTER OF MASS  = ( 0.000000,  0.000000  0.000000)

-------------
DIPOLE MOMENT
-------------
                                X             Y             Z
Electronic contribution:     -0.00000       0.00000      -0.00000
Nuclear contribution   :      0.00000       0.00000       0.00000
                        -----------------------------------------
Total Dipole Moment    :     -0.00000       0.00000      -0.00000
                        -----------------------------------------
Magnitude (a.u.)       :      0.00000
Magnitude (Debye)      :      0.00000



--------------------
Rotational spectrum 
--------------------
 
Rotational constants in cm-1:     0.000000     0.000000     0.000000 
Rotational constants in MHz :     0.000000     0.000000     0.000000 

 Dipole components along the rotational axes: 
x,y,z [a.u.] :    -0.000000     0.000000    -0.000000 
x,y,z [Debye]:    -0.000000     0.000000    -0.000000 

 

                           *** MDCI DENSITY ***

------------------------------------------------------------------------------
                       ORCA ELECTRIC PROPERTIES CALCULATION
------------------------------------------------------------------------------

Dipole Moment Calculation                       ... on
Quadrupole Moment Calculation                   ... off
Polarizability Calculation                      ... off
GBWName                                         ... 14_Si.gbw
Electron density file                           ... 14_Si.mdcip
The origin for moment calculation is the CENTER OF MASS  = ( 0.000000,  0.000000  0.000000)

-------------
DIPOLE MOMENT
-------------
                                X             Y             Z
Electronic contribution:     -0.00000       0.00000      -0.00000
Nuclear contribution   :      0.00000       0.00000       0.00000
                        -----------------------------------------
Total Dipole Moment    :     -0.00000       0.00000      -0.00000
                        -----------------------------------------
Magnitude (a.u.)       :      0.00000
Magnitude (Debye)      :      0.00000



--------------------
Rotational spectrum 
--------------------
 
Rotational constants in cm-1:     0.000000     0.000000     0.000000 
Rotational constants in MHz :     0.000000     0.000000     0.000000 

 Dipole components along the rotational axes: 
x,y,z [a.u.] :    -0.000000     0.000000    -0.000000 
x,y,z [Debye]:    -0.000000     0.000000    -0.000000 

 

Timings for individual modules:

Sum of individual times         ...        4.724 sec (=   0.079 min)
GTO integral calculation        ...        0.605 sec (=   0.010 min)  12.8 %
SCF iterations                  ...        1.849 sec (=   0.031 min)  39.1 %
MDCI module                     ...        2.270 sec (=   0.038 min)  48.0 %
                             ****ORCA TERMINATED NORMALLY****
TOTAL RUN TIME: 0 days 0 hours 0 minutes 5 seconds 271 msec
