
                                 *****************
                                 * O   R   C   A *
                                 *****************

           --- An Ab Initio, DFT and Semiempirical electronic structure package ---

                  #######################################################
                  #                        -***-                        #
                  #          Department of theory and spectroscopy      #
                  #               Directorship: Frank Neese             #
                  #        Max Planck Institute fuer Kohlenforschung    #
                  #                Kaiser Wilhelm Platz 1               #
                  #                 D-45470 Muelheim/Ruhr               #
                  #                      Germany                        #
                  #                                                     #
                  #                  All rights reserved                #
                  #                        -***-                        #
                  #######################################################


                         Program Version 4.2.0 -  RELEASE  -


 With contributions from (in alphabetic order):
   Daniel Aravena         : Magnetic Suceptibility
   Michael Atanasov       : Ab Initio Ligand Field Theory (pilot matlab implementation)
   Alexander A. Auer      : GIAO ZORA, VPT2
   Ute Becker             : Parallelization
   Giovanni Bistoni       : ED, misc. LED, open-shell LED, HFLED
   Martin Brehm           : Molecular dynamics
   Dmytro Bykov           : SCF Hessian
   Vijay G. Chilkuri      : MRCI spin determinant printing, contributions to CSF-ICE
   Dipayan Datta          : RHF DLPNO-CCSD density
   Achintya Kumar Dutta   : EOM-CC, STEOM-CC
   Dmitry Ganyushin       : Spin-Orbit,Spin-Spin,Magnetic field MRCI
   Miquel Garcia          : C-PCM Hessian, Gaussian charge scheme
   Yang Guo               : DLPNO-NEVPT2, CIM, IAO-localization
   Andreas Hansen         : Spin unrestricted coupled pair/coupled cluster methods
   Benjamin Helmich-Paris : CASSCF linear response (MC-RPA)
   Lee Huntington         : MR-EOM, pCC
   Robert Izsak           : Overlap fitted RIJCOSX, COSX-SCS-MP3, EOM
   Christian Kollmar      : KDIIS, OOCD, Brueckner-CCSD(T), CCSD density
   Simone Kossmann        : Meta GGA functionals, TD-DFT gradient, OOMP2, MP2 Hessian
   Martin Krupicka        : AUTO-CI
   Lucas Lang             : DCDCAS
   Dagmar Lenk            : GEPOL surface, SMD
   Dimitrios Liakos       : Extrapolation schemes; Compound Job, initial MDCI parallelization
   Dimitrios Manganas     : Further ROCIS development; embedding schemes
   Dimitrios Pantazis     : SARC Basis sets
   Taras Petrenko         : DFT Hessian,TD-DFT gradient, ASA, ECA, R-Raman, ABS, FL, XAS/XES, NRVS
   Peter Pinski           : DLPNO-MP2, DLPNO-MP2 Gradient
   Christoph Reimann      : Effective Core Potentials
   Marius Retegan         : Local ZFS, SOC
   Christoph Riplinger    : Optimizer, TS searches, QM/MM, DLPNO-CCSD(T), (RO)-DLPNO pert. Triples
   Tobias Risthaus        : Range-separated hybrids, TD-DFT gradient, RPA, STAB
   Michael Roemelt        : Original ROCIS implementation
   Masaaki Saitow         : Open-shell DLPNO-CCSD energy and density
   Barbara Sandhoefer     : DKH picture change effects
   Avijit Sen             : IP-ROCIS
   Kantharuban Sivalingam : CASSCF convergence, NEVPT2, FIC-MRCI
   Bernardo de Souza      : ESD, SOC TD-DFT
   Georgi Stoychev        : AutoAux, RI-MP2 NMR
   Willem Van den Heuvel  : Paramagnetic NMR
   Boris Wezisla          : Elementary symmetry handling
   Frank Wennmohs         : Technical directorship


 We gratefully acknowledge several colleagues who have allowed us to
 interface, adapt or use parts of their codes:
   Stefan Grimme, W. Hujo, H. Kruse,             : VdW corrections, initial TS optimization,
                  C. Bannwarth                     DFT functionals, gCP, sTDA/sTD-DF
   Ed Valeev, F. Pavosevic, A. Kumar             : LibInt (2-el integral package), F12 methods
   Garnet Chan, S. Sharma, J. Yang, R. Olivares  : DMRG
   Ulf Ekstrom                                   : XCFun DFT Library
   Mihaly Kallay                                 : mrcc  (arbitrary order and MRCC methods)
   Andreas Klamt, Michael Diedenhofen            : otool_cosmo (COSMO solvation model)
   Jiri Pittner, Ondrej Demel                    : Mk-CCSD
   Frank Weinhold                                : gennbo (NPA and NBO analysis)
   Christopher J. Cramer and Donald G. Truhlar   : smd solvation model
   Lars Goerigk                                  : TD-DFT with DH, B97 family of functionals
   V. Asgeirsson, H. Jonsson                     : NEB implementation
   FAccTs GmbH                                   : IRC, NEB, NEB-TS, Multilevel, MM, QM/MM, CI optimization
   S Lehtola, MJT Oliveira, MAL Marques          : LibXC Library


 Your calculation uses the libint2 library for the computation of 2-el integrals
 For citations please refer to: http://libint.valeyev.net

 Your ORCA version has been built with support for libXC version: 4.2.3
 For citations please refer to: https://tddft.org/programs/libxc/

 This ORCA versions uses:
   CBLAS   interface :  Fast vector & matrix operations
   LAPACKE interface :  Fast linear algebra routines
   SCALAPACK package :  Parallel linear algebra routines


----- Orbital basis set information -----
Your calculation utilizes the basis: def2-TZVP
   F. Weigend and R. Ahlrichs, Phys. Chem. Chem. Phys. 7, 3297 (2005).

================================================================================
                                        WARNINGS
                       Please study these warnings very carefully!
================================================================================


WARNING: your system is open-shell and RHF/RKS was chosen
  ===> : WILL SWITCH to UHF/UKS


WARNING: MDCI localization with Augmented Hessian Foster-Boys
  ===> : Switching off randomization!

WARNING: Post HF methods need fully converged wavefunctions
  ===> : Setting SCFConvForced true
         You can overwrite this default with %scf ConvForced false 


INFO   : the flag for use of LIBINT has been found!

================================================================================
                                       INPUT FILE
================================================================================
NAME = 15_P.in
|  1> #
|  2> # 15_P CCSD(T)/Def2-TZVP
|  3> #
|  4> ! CCSD(T) Def2-TZVP tightscf
|  5> 
|  6> *xyz 0 4
|  7>  P 0.0 0.0 0.0
|  8> *
|  9> 
| 10> %maxcore 5000 
| 11> 
| 12> %pal
| 13> nprocs 10
| 14> end
| 15> 
| 16> 
| 17>                          ****END OF INPUT****
================================================================================

                       ****************************
                       * Single Point Calculation *
                       ****************************

---------------------------------
CARTESIAN COORDINATES (ANGSTROEM)
---------------------------------
  P      0.000000    0.000000    0.000000

----------------------------
CARTESIAN COORDINATES (A.U.)
----------------------------
  NO LB      ZA    FRAG     MASS         X           Y           Z
   0 P    15.0000    0    30.974    0.000000    0.000000    0.000000

--------------------------------
INTERNAL COORDINATES (ANGSTROEM)
--------------------------------
 P      0   0   0     0.000000000000     0.00000000     0.00000000

---------------------------
INTERNAL COORDINATES (A.U.)
---------------------------
 P      0   0   0     0.000000000000     0.00000000     0.00000000

---------------------
BASIS SET INFORMATION
---------------------
There are 1 groups of distinct atoms

 Group   1 Type P   : 14s9p3d1f contracted to 5s5p2d1f pattern {73211/51111/21/1}

Atom   0P    basis set group =>   1


           ************************************************************
           *        Program running with 10 parallel MPI-processes    *
           *              working on a common directory               *
           ************************************************************
------------------------------------------------------------------------------
                           ORCA GTO INTEGRAL CALCULATION
------------------------------------------------------------------------------

                         BASIS SET STATISTICS AND STARTUP INFO

 # of primitive gaussian shells          ...   27
 # of primitive gaussian functions       ...   63
 # of contracted shells                  ...   13
 # of contracted basis functions         ...   37
 Highest angular momentum                ...    3
 Maximum contraction depth               ...    7
 Integral package used                   ... LIBINT
 Integral threshhold            Thresh   ...  2.500e-11
 Primitive cut-off              TCut     ...  2.500e-12


------------------------------ INTEGRAL EVALUATION ----------------------------


 * One electron integrals 
 Pre-screening matrix                    ... done
 Shell pair data                         ... done (   0.000 sec)



           ************************************************************
           *        Program running with 10 parallel MPI-processes    *
           *              working on a common directory               *
           ************************************************************
-------------------------------------------------------------------------------
                                 ORCA SCF
-------------------------------------------------------------------------------

------------
SCF SETTINGS
------------
Hamiltonian:
 Ab initio Hamiltonian  Method          .... Hartree-Fock(GTOs)


General Settings:
 Integral files         IntName         .... 15_P
 Hartree-Fock type      HFTyp           .... UHF
 Total Charge           Charge          ....    0
 Multiplicity           Mult            ....    4
 Number of Electrons    NEL             ....   15
 Basis Dimension        Dim             ....   37
 Nuclear Repulsion      ENuc            ....      0.0000000000 Eh

Convergence Acceleration:
 DIIS                   CNVDIIS         .... on
   Start iteration      DIISMaxIt       ....    12
   Startup error        DIISStart       ....  0.200000
   # of expansion vecs  DIISMaxEq       ....     5
   Bias factor          DIISBfac        ....   1.050
   Max. coefficient     DIISMaxC        ....  10.000
 Newton-Raphson         CNVNR           .... off
 SOSCF                  CNVSOSCF        .... off
 Level Shifting         CNVShift        .... on
   Level shift para.    LevelShift      ....    0.2500
   Turn off err/grad.   ShiftErr        ....    0.0010
 Zerner damping         CNVZerner       .... off
 Static damping         CNVDamp         .... on
   Fraction old density DampFac         ....    0.7000
   Max. Damping (<1)    DampMax         ....    0.9800
   Min. Damping (>=0)   DampMin         ....    0.0000
   Turn off err/grad.   DampErr         ....    0.1000
 Fernandez-Rico         CNVRico         .... off

SCF Procedure:
 Maximum # iterations   MaxIter         ....   125
 SCF integral mode      SCFMode         .... Direct
   Integral package                     .... LIBINT
 Reset frequency        DirectResetFreq ....    20
 Integral Threshold     Thresh          ....  2.500e-11 Eh
 Primitive CutOff       TCut            ....  2.500e-12 Eh

Convergence Tolerance:
 Convergence Check Mode ConvCheckMode   .... Total+1el-Energy
 Convergence forced     ConvForced      .... 1
 Energy Change          TolE            ....  1.000e-08 Eh
 1-El. energy change                    ....  1.000e-05 Eh
 DIIS Error             TolErr          ....  5.000e-07


Diagonalization of the overlap matrix:
Smallest eigenvalue                        ... 5.460e-02
Time for diagonalization                   ...    0.001 sec
Threshold for overlap eigenvalues          ... 1.000e-08
Number of eigenvalues below threshold      ... 0
Time for construction of square roots      ...    0.006 sec
Total time needed                          ...    0.007 sec

-------------------
DFT GRID GENERATION
-------------------

General Integration Accuracy     IntAcc      ...  4.340
Radial Grid Type                 RadialGrid  ... Gauss-Chebyshev
Angular Grid (max. acc.)         AngularGrid ... Lebedev-110
Angular grid pruning method      GridPruning ... 3 (G Style)
Weight generation scheme         WeightScheme... Becke
Basis function cutoff            BFCut       ...    1.0000e-11
Integration weight cutoff        WCut        ...    1.0000e-14
Grids for H and He will be reduced by one unit

# of grid points (after initial pruning)     ...   1806 (   0.0 sec)
# of grid points (after weights+screening)   ...   1806 (   0.0 sec)
Grid point division into batches done        ...    0.0 sec
Reduced shell lists constructed in    0.0 sec

Total number of grid points                  ...     1806
Total number of batches                      ...       29
Average number of points per batch           ...       62
Average number of grid points per atom       ...     1806
Average number of shells per batch           ...     6.00 (46.15%)
Average number of basis functions per batch  ...    21.00 (56.76%)
Average number of large shells per batch     ...     4.50 (75.00%)
Average number of large basis fcns per batch ...    15.00 (71.43%)
Maximum spatial batch extension              ...  17.83, 32.81, 32.81 au
Average spatial batch extension              ...   1.71,  2.88,  3.39 au

Time for grid setup =    0.027 sec

------------------------------
INITIAL GUESS: MODEL POTENTIAL
------------------------------
Loading Hartree-Fock densities                     ... done
Calculating cut-offs                               ... done
Setting up the integral package                    ... done
Initializing the effective Hamiltonian             ... done
Starting the Coulomb interaction                   ... done (   0.0 sec)
Reading the grid                                   ... done
Mapping shells                                     ... done
Starting the XC term evaluation                    ... done (   0.0 sec)
Transforming the Hamiltonian                       ... done (   0.0 sec)
Diagonalizing the Hamiltonian                      ... done (   0.0 sec)
Back transforming the eigenvectors                 ... done (   0.0 sec)
Now organizing SCF variables                       ... done
                      ------------------
                      INITIAL GUESS DONE (   0.1 sec)
                      ------------------
--------------
SCF ITERATIONS
--------------
ITER       Energy         Delta-E        Max-DP      RMS-DP      [F,P]     Damp
               ***  Starting incremental Fock matrix formation  ***
  0   -340.6965369526   0.000000000000 0.00932029  0.00056660  0.1358357 0.7000
  1   -340.7002141493  -0.003677196773 0.00925819  0.00051455  0.0954581 0.7000
                               ***Turning on DIIS***
  2   -340.7029206923  -0.002706542969 0.02641140  0.00139642  0.0670507 0.0000
  3   -340.7086306507  -0.005709958372 0.01074753  0.00040037  0.0059407 0.0000
  4   -340.7074043222   0.001226328510 0.00495653  0.00017372  0.0015285 0.0000
  5   -340.7081536724  -0.000749350272 0.00483783  0.00015157  0.0006562 0.0000
  6   -340.7091105783  -0.000956905866 0.00150420  0.00004025  0.0001255 0.0000
  7   -340.7097772134  -0.000666635127 0.00024868  0.00000696  0.0000145 0.0000
  8   -340.7098499227  -0.000072709273 0.00005680  0.00000180  0.0000027 0.0000
                            ***DIIS convergence achieved***

               *****************************************************
               *                     SUCCESS                       *
               *           SCF CONVERGED AFTER   9 CYCLES          *
               *****************************************************


----------------
TOTAL SCF ENERGY
----------------

Total Energy       :         -340.70986044 Eh           -9271.18664 eV

Components:
Nuclear Repulsion  :            0.00000000 Eh               0.00000 eV
Electronic Energy  :         -340.70986044 Eh           -9271.18664 eV
One Electron Energy:         -471.49923752 Eh          -12830.14652 eV
Two Electron Energy:          130.78937708 Eh            3558.95988 eV

Virial components:
Potential Energy   :         -681.41396188 Eh          -18542.21657 eV
Kinetic Energy     :          340.70410144 Eh            9271.02993 eV
Virial Ratio       :            2.00001690


---------------
SCF CONVERGENCE
---------------

  Last Energy change         ...   -1.0520e-05  Tolerance :   1.0000e-08
  Last MAX-Density change    ...    7.6214e-06  Tolerance :   1.0000e-07
  Last RMS-Density change    ...    2.4251e-07  Tolerance :   5.0000e-09
  Last DIIS Error            ...    3.1079e-07  Tolerance :   5.0000e-07

             **** THE GBW FILE WAS UPDATED (15_P.gbw) ****
             **** DENSITY FILE WAS UPDATED (15_P.scfp) ****
             **** ENERGY FILE WAS UPDATED (15_P.en.tmp) ****
----------------------
UHF SPIN CONTAMINATION
----------------------

Expectation value of <S**2>     :     3.750121
Ideal value S*(S+1) for S=1.5   :     3.750000
Deviation                       :     0.000121

             **** THE GBW FILE WAS UPDATED (15_P.gbw) ****
             **** DENSITY FILE WAS UPDATED (15_P.scfp) ****
----------------
ORBITAL ENERGIES
----------------
                 SPIN UP ORBITALS
  NO   OCC          E(Eh)            E(eV) 
   0   1.0000     -79.977996     -2176.3119 
   1   1.0000      -7.521389      -204.6674 
   2   1.0000      -5.420968      -147.5120 
   3   1.0000      -5.420968      -147.5120 
   4   1.0000      -5.420968      -147.5120 
   5   1.0000      -0.835501       -22.7352 
   6   1.0000      -0.391421       -10.6511 
   7   1.0000      -0.391421       -10.6511 
   8   1.0000      -0.391421       -10.6511 
   9   0.0000       0.335795         9.1375 
  10   0.0000       0.335795         9.1375 
  11   0.0000       0.335795         9.1375 
  12   0.0000       0.392175        10.6716 
  13   0.0000       0.392175        10.6716 
  14   0.0000       0.392175        10.6716 
  15   0.0000       0.392175        10.6716 
  16   0.0000       0.392175        10.6716 
  17   0.0000       0.418562        11.3896 
  18   0.0000       1.468887        39.9704 
  19   0.0000       1.468887        39.9704 
  20   0.0000       1.468887        39.9704 
  21   0.0000       1.468887        39.9704 
  22   0.0000       1.468887        39.9704 
  23   0.0000       1.546073        42.0708 
  24   0.0000       1.546073        42.0708 
  25   0.0000       1.546073        42.0708 
  26   0.0000       1.546073        42.0708 
  27   0.0000       1.546073        42.0708 
  28   0.0000       1.546073        42.0708 
  29   0.0000       1.546073        42.0708 
  30   0.0000       1.702978        46.3404 
  31   0.0000       1.702978        46.3404 
  32   0.0000       1.702978        46.3404 
  33   0.0000       7.810510       212.5348 
  34   0.0000       7.810510       212.5348 
  35   0.0000       7.810510       212.5348 
  36   0.0000      13.223313       359.8246 

                 SPIN DOWN ORBITALS
  NO   OCC          E(Eh)            E(eV) 
   0   1.0000     -79.955641     -2175.7036 
   1   1.0000      -7.499117      -204.0613 
   2   1.0000      -5.379210      -146.3758 
   3   1.0000      -5.379210      -146.3758 
   4   1.0000      -5.379210      -146.3758 
   5   1.0000      -0.556049       -15.1309 
   6   0.0000       0.051318         1.3964 
   7   0.0000       0.051318         1.3964 
   8   0.0000       0.051318         1.3964 
   9   0.0000       0.417786        11.3685 
  10   0.0000       0.417786        11.3685 
  11   0.0000       0.417786        11.3685 
  12   0.0000       0.484679        13.1888 
  13   0.0000       0.525403        14.2970 
  14   0.0000       0.525403        14.2970 
  15   0.0000       0.525403        14.2970 
  16   0.0000       0.525403        14.2970 
  17   0.0000       0.525403        14.2970 
  18   0.0000       1.528099        41.5817 
  19   0.0000       1.528099        41.5817 
  20   0.0000       1.528099        41.5817 
  21   0.0000       1.528099        41.5817 
  22   0.0000       1.528099        41.5817 
  23   0.0000       1.628277        44.3077 
  24   0.0000       1.628277        44.3077 
  25   0.0000       1.628277        44.3077 
  26   0.0000       1.628277        44.3077 
  27   0.0000       1.628277        44.3077 
  28   0.0000       1.628277        44.3077 
  29   0.0000       1.628277        44.3077 
  30   0.0000       1.773458        48.2583 
  31   0.0000       1.773458        48.2583 
  32   0.0000       1.773458        48.2583 
  33   0.0000       7.848602       213.5713 
  34   0.0000       7.848602       213.5713 
  35   0.0000       7.848602       213.5713 
  36   0.0000      13.256787       360.7355 

                    ********************************
                    * MULLIKEN POPULATION ANALYSIS *
                    ********************************

--------------------------------------------
MULLIKEN ATOMIC CHARGES AND SPIN POPULATIONS
--------------------------------------------
   0 P :    0.000000    3.000000
Sum of atomic charges         :    0.0000000
Sum of atomic spin populations:    3.0000000

-----------------------------------------------------
MULLIKEN REDUCED ORBITAL CHARGES AND SPIN POPULATIONS
-----------------------------------------------------
CHARGE
  0 P s       :     6.000000  s :     6.000000
      pz      :     3.000000  p :     9.000000
      px      :     3.000000
      py      :     3.000000
      dz2     :     0.000000  d :     0.000000
      dxz     :     0.000000
      dyz     :     0.000000
      dx2y2   :     0.000000
      dxy     :     0.000000
      f0      :     0.000000  f :     0.000000
      f+1     :     0.000000
      f-1     :     0.000000
      f+2     :     0.000000
      f-2     :     0.000000
      f+3     :     0.000000
      f-3     :     0.000000

SPIN
  0 P s       :    -0.000000  s :    -0.000000
      pz      :     1.000000  p :     3.000000
      px      :     1.000000
      py      :     1.000000
      dz2     :     0.000000  d :     0.000000
      dxz     :     0.000000
      dyz     :     0.000000
      dx2y2   :     0.000000
      dxy     :     0.000000
      f0      :     0.000000  f :     0.000000
      f+1     :     0.000000
      f-1     :     0.000000
      f+2     :     0.000000
      f-2     :     0.000000
      f+3     :     0.000000
      f-3     :     0.000000


                     *******************************
                     * LOEWDIN POPULATION ANALYSIS *
                     *******************************

-------------------------------------------
LOEWDIN ATOMIC CHARGES AND SPIN POPULATIONS
-------------------------------------------
   0 P :    0.000000    3.000000

----------------------------------------------------
LOEWDIN REDUCED ORBITAL CHARGES AND SPIN POPULATIONS
----------------------------------------------------
CHARGE
  0 P s       :     6.000000  s :     6.000000
      pz      :     3.000000  p :     9.000000
      px      :     3.000000
      py      :     3.000000
      dz2     :     0.000000  d :     0.000000
      dxz     :     0.000000
      dyz     :     0.000000
      dx2y2   :     0.000000
      dxy     :     0.000000
      f0      :     0.000000  f :     0.000000
      f+1     :     0.000000
      f-1     :     0.000000
      f+2     :     0.000000
      f-2     :     0.000000
      f+3     :     0.000000
      f-3     :     0.000000

SPIN
  0 P s       :    -0.000000  s :    -0.000000
      pz      :     1.000000  p :     3.000000
      px      :     1.000000
      py      :     1.000000
      dz2     :     0.000000  d :     0.000000
      dxz     :     0.000000
      dyz     :     0.000000
      dx2y2   :     0.000000
      dxy     :     0.000000
      f0      :     0.000000  f :     0.000000
      f+1     :     0.000000
      f-1     :     0.000000
      f+2     :     0.000000
      f-2     :     0.000000
      f+3     :     0.000000
      f-3     :     0.000000


                      *****************************
                      * MAYER POPULATION ANALYSIS *
                      *****************************

  NA   - Mulliken gross atomic population
  ZA   - Total nuclear charge
  QA   - Mulliken gross atomic charge
  VA   - Mayer's total valence
  BVA  - Mayer's bonded valence
  FA   - Mayer's free valence

  ATOM       NA         ZA         QA         VA         BVA        FA
  0 P     15.0000    15.0000     0.0000     3.0002     0.0000     3.0002

  Mayer bond orders larger than 0.100000


-------
TIMINGS
-------

Total SCF time: 0 days 0 hours 0 min 6 sec 

Total time                  ....       6.675 sec
Sum of individual times     ....       1.310 sec  ( 19.6%)

Fock matrix formation       ....       1.061 sec  ( 15.9%)
Diagonalization             ....       0.019 sec  (  0.3%)
Density matrix formation    ....       0.003 sec  (  0.0%)
Population analysis         ....       0.033 sec  (  0.5%)
Initial guess               ....       0.108 sec  (  1.6%)
Orbital Transformation      ....       0.000 sec  (  0.0%)
Orbital Orthonormalization  ....       0.000 sec  (  0.0%)
DIIS solution               ....       0.059 sec  (  0.9%)


           ************************************************************
           *        Program running with 10 parallel MPI-processes    *
           *              working on a common directory               *
           ************************************************************


------------------------------------------------------------------------------- 
                              ORCA-MATRIX DRIVEN CI                            
------------------------------------------------------------------------------- 

--------------------------------
AUTOMATIC CHOICE OF INCORE LEVEL
--------------------------------

Memory available                           ...   2500.00 MB
Memory needed for S+T                      ...      0.18 MB
Memory needed for J+K                      ...      0.36 MB
Memory needed for DIIS                     ...      2.51 MB
Memory needed for 3-ext                    ...      0.67 MB
Memory needed for 4-ext                    ...      2.43 MB
Memory needed for triples                  ...      0.84 MB
 -> Final InCoreLevel    ... 5
 -> check shows that triples correction can be computed


Wavefunction type
-----------------
Correlation treatment                      ...      CCSD     
Single excitations                         ... ON
Orbital optimization                       ... OFF
Calculation of Z vector                    ... OFF
Calculation of Brueckner orbitals          ... OFF
Perturbative triple excitations            ... ON
Calculation of F12 correction              ... OFF
Frozen core treatment                      ... chemical core (10 el)
Reference Wavefunction                     ... UHF
  Alpha-MOs occ    :     5 ...    8 (  4 MO's/  4 electrons)
  Beta-MOs occ     :     5 ...    5 (  1 MO's/  1 electrons)
  Alpha-MOs virt   :     9 ...   36 ( 28 MO's              )
  Beta-MOs virt    :     6 ...   36 ( 31 MO's              )
Number of AO's                             ...     37
Number of electrons                        ...     15
Number of correlated electrons             ...      5

Algorithmic settings
--------------------
Integral transformation                    ... AO direct full transformation
K(C) Formation                             ... FULL-MO TRAFO
Maximum number of iterations               ...        50
Convergence tolerance (max. residuum)      ... 1.000e-05
Level shift for amplitude update           ... 2.000e-01
Maximum number of DIIS vectors             ...         7
DIIS turned on at iteration                ...         0
Damping before turning on DIIS             ...     0.500
Damping after turning on DIIS              ...     0.000
Pair specific amplitude update             ... OFF
Natural orbital iterations                 ... OFF
Perturbative natural orbital generation    ... OFF
Printlevel                                 ... 2

Memory handling:
----------------
Maximum memory for working arrays          ...   2500 MB
Data storage in matrix containers          ... UNCOMPRESSED
Data type for integral storage             ... DOUBLE
In-Core Storage of quantities:
   Amplitudes+Sigma Vector      ... YES
   J+K operators                ... YES
   DIIS vectors                 ... YES
   3-external integrals         ... YES
   4-external integrals         ... YES


Initializing the integral package          ... done
Warning: reference  - re-canonicalizations have been set to INT 1 VIRT 1

--------------------------
UNRESTRICTED FOCK OPERATOR
--------------------------

<ss|ss>:          120 b            0 skpd (  0.0%)    0.000 s ( 0.001 ms/b)
<ss|sp>:          375 b            0 skpd (  0.0%)    0.000 s ( 0.001 ms/b)
<ss|sd>:          150 b            0 skpd (  0.0%)    0.000 s ( 0.001 ms/b)
<ss|sf>:           75 b            0 skpd (  0.0%)    0.000 s ( 0.001 ms/b)
<ss|pp>:          225 b            0 skpd (  0.0%)    0.000 s ( 0.001 ms/b)
<ss|pd>:          150 b            0 skpd (  0.0%)    0.000 s ( 0.001 ms/b)
<ss|pf>:           75 b            0 skpd (  0.0%)    0.000 s ( 0.002 ms/b)
<ss|dd>:           45 b            0 skpd (  0.0%)    0.000 s ( 0.002 ms/b)
<ss|df>:           30 b            0 skpd (  0.0%)    0.000 s ( 0.003 ms/b)
<ss|ff>:           15 b            0 skpd (  0.0%)    0.000 s ( 0.006 ms/b)
<sp|sp>:          325 b            0 skpd (  0.0%)    0.000 s ( 0.001 ms/b)
<sp|sd>:          250 b            0 skpd (  0.0%)    0.000 s ( 0.001 ms/b)
<sp|sf>:          125 b            0 skpd (  0.0%)    0.000 s ( 0.001 ms/b)
<sp|pp>:          375 b            0 skpd (  0.0%)    0.000 s ( 0.001 ms/b)
<sp|pd>:          250 b            0 skpd (  0.0%)    0.000 s ( 0.001 ms/b)
<sp|pf>:          125 b            0 skpd (  0.0%)    0.000 s ( 0.002 ms/b)
<sp|dd>: done
<sp|df>: done
<sp|ff>: done
<sd|sd>:           55 b            0 skpd (  0.0%)    0.000 s ( 0.001 ms/b)
<sd|sf>:           50 b            0 skpd (  0.0%)    0.000 s ( 0.002 ms/b)
<sd|pp>:          150 b            0 skpd (  0.0%)    0.000 s ( 0.002 ms/b)
<sd|pd>: done
<sd|pf>: done
<sd|dd>: done
<sd|df>: done
<sd|ff>: done
<sf|sf>:           15 b            0 skpd (  0.0%)    0.000 s ( 0.003 ms/b)
<sf|pp>:           75 b            0 skpd (  0.0%)    0.000 s ( 0.003 ms/b)
<sf|pd>: done
<sf|pf>: done
<sf|dd>: done
<sf|df>: done
<sf|ff>: done
<pp|pp>:          120 b            0 skpd (  0.0%)    0.000 s ( 0.004 ms/b)
<pp|pd>:          150 b            0 skpd (  0.0%)    0.000 s ( 0.002 ms/b)
<pp|pf>:           75 b            0 skpd (  0.0%)    0.000 s ( 0.004 ms/b)
<pp|dd>:           45 b            0 skpd (  0.0%)    0.000 s ( 0.007 ms/b)
<pp|df>:           30 b            0 skpd (  0.0%)    0.000 s ( 0.013 ms/b)
<pp|ff>:           15 b            0 skpd (  0.0%)    0.000 s ( 0.028 ms/b)
<pd|pd>:           55 b            0 skpd (  0.0%)    0.000 s ( 0.004 ms/b)
<pd|pf>:           50 b            0 skpd (  0.0%)    0.000 s ( 0.008 ms/b)
<pd|dd>: done
<pd|df>: done
<pd|ff>: done
<pf|pf>:           15 b            0 skpd (  0.0%)    0.000 s ( 0.012 ms/b)
<pf|dd>: done
<pf|df>: done
<pf|ff>: done
<dd|dd>: done
<dd|df>: done
<dd|ff>: done
<df|df>: done
<df|ff>: done
<ff|ff>: done
Recanonicalizing the internal orbitals
Recanonicalizing the virtual orbitals
Time needed for Fock operator              ...            0.030 sec
Reference energy                           ...   -340.709862624
Warning: for UHF the TrafoType has to be JK
Warning: for UHF the K(C)-option cannot be MO but must be AOX

-------------------------------
PARTIAL EXCHANGE TRANSFORMATION
-------------------------------

Transformation type                        ... two-operators
Generation of integrals (i,mue|j,nue)      ... ON
Generation of integrals (mue,kappa|nue,tau)... ON
Generation of integrals (i,mue|a,nue)      ... ON
Dimension of the basis                     ...   37
Number of internal alpha-MOs               ...    4 (   5-   8)
Number of internal beta-MOs                ...    1 (   5-   5)
Number of external alpha-MOs               ...   28 (   9-  36)
Number of external beta-MOs                ...   31 (   6-  36)
Pair cutoff                                ... 0.000e+00 Eh
Number of AO pairs in the trafo            ...  703
Total Number of distinct AO pairs          ...  703
Memory devoted for trafo                   ... 2500.0 MB 
Max. Number of MO pairs treated together   ... 239357      
Number Format for Storage                  ... Double (8 Byte)
Integral package used                      ... LIBINT

Starting integral evaluation:
    ... done with AO integral generation
Closing buffer AOK[aa] ( 0.00 GB; CompressionRatio= 0.91)
Closing buffer AOK[bb] ( 0.00 GB; CompressionRatio= 0.40)
Closing buffer AOK[ab] ( 0.00 GB; CompressionRatio= 0.73)
Closing buffer AOK[ba] ( 0.00 GB; CompressionRatio= 0.73)
Collecting buffer AOK 
Closing buffer IAAO1[aa] ( 0.00 GB; CompressionRatio= 0.99)
Closing buffer IAAO1[bb] ( 0.00 GB; CompressionRatio= 0.95)
Closing buffer IAAO1[ab] ( 0.00 GB; CompressionRatio= 0.99)
Closing buffer IAAO1[ba] ( 0.00 GB; CompressionRatio= 0.95)
Closing buffer IAAO2[aa] ( 0.00 GB; CompressionRatio= 0.99)
Closing buffer IAAO2[bb] ( 0.00 GB; CompressionRatio= 0.95)
Closing buffer IAAO2[ab] ( 0.00 GB; CompressionRatio= 0.99)
Closing buffer IAAO2[ba] ( 0.00 GB; CompressionRatio= 0.95)
Collecting buffer IAAO 
Closing buffer PRQS    ( 0.00 GB; CompressionRatio= 1.00)
Collecting buffer PRQS 
Number of alpha/alpha MO pairs in trafo    ...   10
Number of beta /beta  MO pairs in trafo    ...    1
Number of alpha/ beta MO pairs in trafo    ...    4
------------------------
SORTING OF (i,mue|j,nue)
------------------------

SORTING OF ALPHA/ALPHA PAIRS
IBATCH = 1 of  1
Closing buffer KAO[aa] ( 0.00 GB; CompressionRatio= 1.00)
Collecting buffer KAO 
SORTING OF BETA /BETA  PAIRS
IBATCH = 1 of  1
Closing buffer KAO[bb] ( 0.00 GB; CompressionRatio= 1.00)
Collecting buffer KAO 
SORTING OF ALPHA/BETA  PAIRS
IBATCH = 1 of  1
Closing buffer KAO[ab] ( 0.00 GB; CompressionRatio= 0.998905508938)
Collecting buffer KAO[ab] 
------------------------
SORTING OF (i,mue|a,nue)
------------------------

Number of alpha/alpha (i,a) pairs in trafo  ...  112
Number of beta /beta  (i,a) pairs in trafo  ...   31
Number of alpha/ beta (i,a) pairs in trafo  ...  124
Number of beta /alpha (i,a) pairs in trafo  ...   28
Setting up the alpha/alpha list             ... done
Setting up the beta /beta  list             ... done
Setting up the alpha/beta  list             ... done
Setting up the beta /alpha list             ... done
    ... Now sorting (i,mue|a,nue)integrals
    ... Integrals (i,b|a,c) will be made on the fly
SORTING OF ALPHA/ALPHA PAIRS
IBATCH = 1 of  1
Closing buffer IPAQ[aa]  0.00 GB; CompressionRatio= 1.00)
SORTING OF BETA /BETA  PAIRS
IBATCH = 1 of  1
Closing buffer IPAQ[bb]( 0.00 GB; CompressionRatio= 1.00)
SORTING OF ALPHA/BETA  PAIRS (NMatSort_ab=13)
IBATCH = 1 of  1
Closing buffer IPAQ[ab]( 0.00 GB; CompressionRatio= 1.00)
SORTING OF BETA/ALPHA  PAIRS
IBATCH = 1 of  1
Closing buffer IPAQ[ba]( 0.00 GB; CompressionRatio= 1.00)
N(AO-Batches) Done                         ...       676 
N(AO-Batches) Skipped                      ...         0 
N(IJ)-pairs Skipped                        ...         0 
TOTAL TIME for half transformation         ...     1.295 sec
AO-integral generation                     ...     0.007 sec
Half transformation                        ...     0.210 sec
K-integral sorting                         ...     0.217 sec
<ss|**>: 
------------------------------
PARTIAL COULOMB TRANSFORMATION
------------------------------

Transformation type                        ... two-operators
Dimension of the basis                     ...   37
Number of internal alpha-MOs               ...    4 (5-8)
Number of internal beta-MOs                ...    1 (5-5)
Pair cutoff                                ... 0.000e+00 Eh
Number of AO pairs included in the trafo   ...  703
Total Number of distinct AO pairs          ...  703
Memory devoted for trafo                   ... 2500.0 MB 
Max. Number of MO pairs treated together   ... 466116      
Max. Number of MOs treated per batch       ... 12597      
Number Format for Storage                  ... Double (8 Byte)
AO-integral source                         ... DIRECT
Integral package used                      ... LIBINT

Starting integral evaluation:
<sp|**>:         1365 b        0 skpd     0.004 s (  0.003 ms/b)
<sd|**>:         2275 b        0 skpd     0.012 s (  0.005 ms/b)
<sf|**>:          910 b        0 skpd     0.009 s (  0.009 ms/b)
<pp|**>:          455 b        0 skpd     0.009 s (  0.020 ms/b)
        1365 b        0 skpd     0.023 s (  0.017 ms/b)
<pd|**>:          910 b        0 skpd     0.027 s (  0.029 ms/b)
<pf|**>:          455 b        0 skpd     0.025 s (  0.055 ms/b)
<dd|**>:          273 b        0 skpd     0.022 s (  0.079 ms/b)
<df|**>:          182 b        0 skpd     0.026 s (  0.143 ms/b)
<ff|**>:           91 b        0 skpd     0.018 s (  0.195 ms/b)
Closing buffer AOJ[aa] ( 0.00 GB; CompressionRatio= 0.87)
Closing buffer AOJ[bb] ( 0.00 GB; CompressionRatio= 0.00)
Collecting buffer AOJ 
    ... done with AO integral generation
Number of Alpha-MO pairs included          ...   10
Number of Beta-MO pairs included           ...    1
    ... Now sorting integrals
SORTING ALPHA/ALPHA PAIRS
IBATCH = 1 of  1
Closing buffer JAO[aa] ( 0.00 GB; CompressionRatio= 1.00)
SORTING BETA/BETA PAIRS
IBATCH = 1 of  1
Closing buffer JAO[bb] ( 0.00 GB; CompressionRatio= 1.00)
Collecting buffer JAO 
TOTAL TIME for half transformation         ...     0.226 sec
AO-integral generation                     ...     0.101 sec
Half transformation                        ...     0.073 sec
J-integral sorting                         ...     0.036 sec

-------------------------- SECOND HALF TRANSFORMATION -------------------------
Formation of (ij|kl),(ij|ka), (ij|ab)      ... ok (     0.042 sec)
Formation of (ik|jl),(ik|ja), (ia|jb)      ... ok (     0.068 sec)


-----------------------
SPIN UNRESTRICTED GUESS
-----------------------

Entering MDCI_UHF_Guess, Tailored=0
Spin-components of the MP2 energy:
EMP2(aa)=     -0.022269578
EMP2(bb)=      0.000000000
EMP2(ab)=     -0.059113474

Initial guess performed in     0.001 sec
E(0)                                       ...   -340.709862624
E(MP2)                                     ...     -0.081383051
Initial E(tot)                             ...   -340.791245675
<T|T>                                      ...      0.043262241
Number of pairs included                   ... 10

------------------------------------------------
                  UHF COUPLED CLUSTER ITERATIONS
------------------------------------------------

Number of amplitudes to be optimized       ...         5895

Iter       E(tot)           E(Corr)          Delta-E          Residual     Time      <S|S>**1/2
  0   -340.791245675     -0.081383051     -0.000000000      0.012047859    0.04      0.000000271
                           *** Turning on DIIS ***
  1   -340.804079812     -0.094217188     -0.012834137      0.004530236    0.02      0.005823882
  2   -340.809380289     -0.099517665     -0.005300477      0.000946096    0.02      0.009462289
  3   -340.809573345     -0.099710721     -0.000193056      0.000265656    0.02      0.009994909
  4   -340.809637336     -0.099774712     -0.000063991      0.000045396    0.02      0.010012552
  5   -340.809627422     -0.099764798      0.000009914      0.000013565    0.02      0.009998803
  6   -340.809629858     -0.099767234     -0.000002436      0.000004488    0.02      0.009997672
               --- The Coupled-Cluster iterations have converged ---

----------------------
COUPLED CLUSTER ENERGY
----------------------

E(0)                                       ...   -340.709862624
E(CORR)                                    ...     -0.099767234
E(TOT)                                     ...   -340.809629858
Singles norm <S|S>**1/2                    ...      0.009997672 ( 0.008934783, 0.001062890)  
T1 diagnostic                              ...      0.004471095                              

------------------
LARGEST AMPLITUDES
------------------
   8a-> 13a   5b->  6b       0.050283
   7a-> 16a   5b->  6b       0.048517
   6a-> 14a   5b->  7b       0.047759
   6a-> 13a   5b->  8b       0.044677
   8a-> 15a   5b->  8b       0.040525
   7a-> 12a   5b->  8b       0.039336
   6a-> 16a   5b->  6b       0.038293
   6a-> 12a   5b->  6b       0.038028
   8a-> 14a   5b->  8b       0.037385
   7a-> 15a   5b->  7b       0.036864
   7a-> 12a   6a-> 16a       0.036535
   7a-> 16a   6a-> 12a       0.036535
   7a-> 12a   5b->  7b       0.035194
   8a-> 16a   5b->  7b       0.033062
   8a-> 12a   7a-> 15a       0.032901
   8a-> 15a   7a-> 12a       0.032901

----------------------
UHF TRIPLES CORRECTION (Algorithm 1)
----------------------

Multiplier for the singles contribution    ...      1.000000000

SPIN-CASE Alpha-Alpha-Alpha:
10% done
20% done
30% done
40% done
50% done
60% done
70% done
80% done
90% done


SPIN-CASE Beta-Beta-Beta:

SPIN-CASE Alpha-Alpha-Beta:
10% done
20% done
30% done
40% done
50% done
60% done
70% done
80% done
90% done


SPIN-CASE Beta-Beta-Alpha:

Triples Correction (T)                     ...     -0.003758688
    alpha-alpha-alpha ... -0.000278618 (  7.4%)
    alpha-alpha-beta  ... -0.003480071 ( 92.6%)
    alpha-beta -beta  ...  0.000000000 ( -0.0%)
    beta -beta -beta  ...  0.000000000 ( -0.0%)
Scaling of triples based on CCSD energies (Peterson et al. Molecular Physics 113, 1551 (2015))
E(T*) = f*E(T) where f = E(F12-CCSD)/E(CCSD) 
f = CCSD (with F12)/ CCSD (without F12)    ...      1.000000000
Scaled triples correction (T)              ...     -0.003758688

Final correlation energy                   ...     -0.103525922
E(CCSD)                                    ...   -340.809629858
E(CCSD(T))                                 ...   -340.813388546



        !!!!!!!!!!!!!!!!!!!!!!!!!!!!!!!!!!!!!!!!!!!!!!!!!!!!!!!!!!!!!!!!!!!!!!!!!! 
        !  Warning: Densities are linearized densities                           !
        !!!!!!!!!!!!!!!!!!!!!!!!!!!!!!!!!!!!!!!!!!!!!!!!!!!!!!!!!!!!!!!!!!!!!!!!!! 

NORM  =      1.068643411 sqrt=     1.033752103
W(HF) =      0.935765841
------------------------------------------------------------------------------
                           ORCA POPULATION ANALYSIS
------------------------------------------------------------------------------
Input electron density              ... 15_P.mdcip
Input spin density                  ... 15_P.mdcir
BaseName (.gbw .S,...)              ... 15_P

                    ********************************
                    * MULLIKEN POPULATION ANALYSIS *
                    ********************************

------------------------------------------
MULLIKEN ATOMIC CHARGES AND SPIN DENSITIES
------------------------------------------
   0 P :    0.000000    3.000000
Sum of atomic charges       :    0.0000000
Sum of atomic spin densities:    3.0000000

---------------------------------------------------
MULLIKEN REDUCED ORBITAL CHARGES AND SPIN DENSITIES
---------------------------------------------------
CHARGE
  0 P s       :     5.941650  s :     5.941650
      pz      :     2.993940  p :     8.981820
      px      :     2.993940
      py      :     2.993940
      dz2     :     0.014437  d :     0.072186
      dxz     :     0.014437
      dyz     :     0.014437
      dx2y2   :     0.014437
      dxy     :     0.014437
      f0      :     0.000621  f :     0.004344
      f+1     :     0.000621
      f-1     :     0.000621
      f+2     :     0.000621
      f-2     :     0.000621
      f+3     :     0.000621
      f-3     :     0.000621

SPIN
  0 P s       :     0.043925  s :     0.043925
      pz      :     0.964769  p :     2.894307
      px      :     0.964769
      py      :     0.964769
      dz2     :     0.012073  d :     0.060366
      dxz     :     0.012073
      dyz     :     0.012073
      dx2y2   :     0.012073
      dxy     :     0.012073
      f0      :     0.000200  f :     0.001402
      f+1     :     0.000200
      f-1     :     0.000200
      f+2     :     0.000200
      f-2     :     0.000200
      f+3     :     0.000200
      f-3     :     0.000200


                     *******************************
                     * LOEWDIN POPULATION ANALYSIS *
                     *******************************

-----------------------------------------
LOEWDIN ATOMIC CHARGES AND SPIN DENSITIES
-----------------------------------------
   0 P :    0.000000    3.000000

--------------------------------------------------
LOEWDIN REDUCED ORBITAL CHARGES AND SPIN DENSITIES
--------------------------------------------------
CHARGE
  0 P s       :     5.941650  s :     5.941650
      pz      :     2.993940  p :     8.981820
      px      :     2.993940
      py      :     2.993940
      dz2     :     0.014437  d :     0.072186
      dxz     :     0.014437
      dyz     :     0.014437
      dx2y2   :     0.014437
      dxy     :     0.014437
      f0      :     0.000621  f :     0.004344
      f+1     :     0.000621
      f-1     :     0.000621
      f+2     :     0.000621
      f-2     :     0.000621
      f+3     :     0.000621
      f-3     :     0.000621

SPIN
  0 P s       :     0.043925  s :     0.043925
      pz      :     0.964769  p :     2.894307
      px      :     0.964769
      py      :     0.964769
      dz2     :     0.012073  d :     0.060366
      dxz     :     0.012073
      dyz     :     0.012073
      dx2y2   :     0.012073
      dxy     :     0.012073
      f0      :     0.000200  f :     0.001402
      f+1     :     0.000200
      f-1     :     0.000200
      f+2     :     0.000200
      f-2     :     0.000200
      f+3     :     0.000200
      f-3     :     0.000200


                      *****************************
                      * MAYER POPULATION ANALYSIS *
                      *****************************

  NA   - Mulliken gross atomic population
  ZA   - Total nuclear charge
  QA   - Mulliken gross atomic charge
  VA   - Mayer's total valence
  BVA  - Mayer's bonded valence
  FA   - Mayer's free valence

  ATOM       NA         ZA         QA         VA         BVA        FA
  0 P     15.0000    15.0000     0.0000     3.3143     0.0000     3.3143





------------------------------------------------------------------------------- 
                                     TIMINGS                                   
------------------------------------------------------------------------------- 


Total execution time                   ...        2.195 sec

Fock Matrix Formation                  ...        0.030 sec (  1.4%)
Initial Guess                          ...        0.001 sec (  0.0%)
DIIS Solver                            ...        0.004 sec (  0.2%)
State Vector Update                    ...        0.000 sec (  0.0%)
Sigma-vector construction              ...        0.149 sec (  6.8%)
  <D|H|D>(4-ext)                       ...        0.075 sec ( 50.5% of sigma)
  Fock-dressing                        ...        0.040 sec ( 27.1% of sigma)
  (ij|ab),(ia|jb)-dressing             ...        0.019 sec ( 12.6% of sigma)
Total Time for computing (T)           ...        0.003 sec (  0.1% of ALL)
  I/O of integral and amplitudes       ...        0.001 sec ( 41.2% of (T))


-------------------------   --------------------
FINAL SINGLE POINT ENERGY      -340.813388546154
-------------------------   --------------------


                            ***************************************
                            *     ORCA property calculations      *
                            ***************************************

                                    ---------------------
                                    Active property flags
                                    ---------------------
   (+) Dipole Moment


------------------------------------------------------------------------------
                       ORCA ELECTRIC PROPERTIES CALCULATION
------------------------------------------------------------------------------

Dipole Moment Calculation                       ... on
Quadrupole Moment Calculation                   ... off
Polarizability Calculation                      ... off
GBWName                                         ... 15_P.gbw
Electron density file                           ... 15_P.scfp
The origin for moment calculation is the CENTER OF MASS  = ( 0.000000,  0.000000  0.000000)

-------------
DIPOLE MOMENT
-------------
                                X             Y             Z
Electronic contribution:      0.00000       0.00000       0.00000
Nuclear contribution   :      0.00000       0.00000       0.00000
                        -----------------------------------------
Total Dipole Moment    :      0.00000       0.00000       0.00000
                        -----------------------------------------
Magnitude (a.u.)       :      0.00000
Magnitude (Debye)      :      0.00000



--------------------
Rotational spectrum 
--------------------
 
Rotational constants in cm-1:     0.000000     0.000000     0.000000 
Rotational constants in MHz :     0.000000     0.000000     0.000000 

 Dipole components along the rotational axes: 
x,y,z [a.u.] :     0.000000     0.000000     0.000000 
x,y,z [Debye]:     0.000000     0.000000     0.000000 

 

                           *** MDCI DENSITY ***

------------------------------------------------------------------------------
                       ORCA ELECTRIC PROPERTIES CALCULATION
------------------------------------------------------------------------------

Dipole Moment Calculation                       ... on
Quadrupole Moment Calculation                   ... off
Polarizability Calculation                      ... off
GBWName                                         ... 15_P.gbw
Electron density file                           ... 15_P.mdcip
The origin for moment calculation is the CENTER OF MASS  = ( 0.000000,  0.000000  0.000000)

-------------
DIPOLE MOMENT
-------------
                                X             Y             Z
Electronic contribution:     -0.00000       0.00000      -0.00000
Nuclear contribution   :      0.00000       0.00000       0.00000
                        -----------------------------------------
Total Dipole Moment    :     -0.00000       0.00000      -0.00000
                        -----------------------------------------
Magnitude (a.u.)       :      0.00000
Magnitude (Debye)      :      0.00000



--------------------
Rotational spectrum 
--------------------
 
Rotational constants in cm-1:     0.000000     0.000000     0.000000 
Rotational constants in MHz :     0.000000     0.000000     0.000000 

 Dipole components along the rotational axes: 
x,y,z [a.u.] :    -0.000000     0.000000    -0.000000 
x,y,z [Debye]:    -0.000000     0.000000    -0.000000 

 

Timings for individual modules:

Sum of individual times         ...       10.063 sec (=   0.168 min)
GTO integral calculation        ...        0.545 sec (=   0.009 min)   5.4 %
SCF iterations                  ...        6.994 sec (=   0.117 min)  69.5 %
MDCI module                     ...        2.525 sec (=   0.042 min)  25.1 %
                             ****ORCA TERMINATED NORMALLY****
TOTAL RUN TIME: 0 days 0 hours 0 minutes 10 seconds 681 msec
