
                                 *****************
                                 * O   R   C   A *
                                 *****************

           --- An Ab Initio, DFT and Semiempirical electronic structure package ---

                  #######################################################
                  #                        -***-                        #
                  #          Department of theory and spectroscopy      #
                  #               Directorship: Frank Neese             #
                  #        Max Planck Institute fuer Kohlenforschung    #
                  #                Kaiser Wilhelm Platz 1               #
                  #                 D-45470 Muelheim/Ruhr               #
                  #                      Germany                        #
                  #                                                     #
                  #                  All rights reserved                #
                  #                        -***-                        #
                  #######################################################


                         Program Version 4.2.0 -  RELEASE  -


 With contributions from (in alphabetic order):
   Daniel Aravena         : Magnetic Suceptibility
   Michael Atanasov       : Ab Initio Ligand Field Theory (pilot matlab implementation)
   Alexander A. Auer      : GIAO ZORA, VPT2
   Ute Becker             : Parallelization
   Giovanni Bistoni       : ED, misc. LED, open-shell LED, HFLED
   Martin Brehm           : Molecular dynamics
   Dmytro Bykov           : SCF Hessian
   Vijay G. Chilkuri      : MRCI spin determinant printing, contributions to CSF-ICE
   Dipayan Datta          : RHF DLPNO-CCSD density
   Achintya Kumar Dutta   : EOM-CC, STEOM-CC
   Dmitry Ganyushin       : Spin-Orbit,Spin-Spin,Magnetic field MRCI
   Miquel Garcia          : C-PCM Hessian, Gaussian charge scheme
   Yang Guo               : DLPNO-NEVPT2, CIM, IAO-localization
   Andreas Hansen         : Spin unrestricted coupled pair/coupled cluster methods
   Benjamin Helmich-Paris : CASSCF linear response (MC-RPA)
   Lee Huntington         : MR-EOM, pCC
   Robert Izsak           : Overlap fitted RIJCOSX, COSX-SCS-MP3, EOM
   Christian Kollmar      : KDIIS, OOCD, Brueckner-CCSD(T), CCSD density
   Simone Kossmann        : Meta GGA functionals, TD-DFT gradient, OOMP2, MP2 Hessian
   Martin Krupicka        : AUTO-CI
   Lucas Lang             : DCDCAS
   Dagmar Lenk            : GEPOL surface, SMD
   Dimitrios Liakos       : Extrapolation schemes; Compound Job, initial MDCI parallelization
   Dimitrios Manganas     : Further ROCIS development; embedding schemes
   Dimitrios Pantazis     : SARC Basis sets
   Taras Petrenko         : DFT Hessian,TD-DFT gradient, ASA, ECA, R-Raman, ABS, FL, XAS/XES, NRVS
   Peter Pinski           : DLPNO-MP2, DLPNO-MP2 Gradient
   Christoph Reimann      : Effective Core Potentials
   Marius Retegan         : Local ZFS, SOC
   Christoph Riplinger    : Optimizer, TS searches, QM/MM, DLPNO-CCSD(T), (RO)-DLPNO pert. Triples
   Tobias Risthaus        : Range-separated hybrids, TD-DFT gradient, RPA, STAB
   Michael Roemelt        : Original ROCIS implementation
   Masaaki Saitow         : Open-shell DLPNO-CCSD energy and density
   Barbara Sandhoefer     : DKH picture change effects
   Avijit Sen             : IP-ROCIS
   Kantharuban Sivalingam : CASSCF convergence, NEVPT2, FIC-MRCI
   Bernardo de Souza      : ESD, SOC TD-DFT
   Georgi Stoychev        : AutoAux, RI-MP2 NMR
   Willem Van den Heuvel  : Paramagnetic NMR
   Boris Wezisla          : Elementary symmetry handling
   Frank Wennmohs         : Technical directorship


 We gratefully acknowledge several colleagues who have allowed us to
 interface, adapt or use parts of their codes:
   Stefan Grimme, W. Hujo, H. Kruse,             : VdW corrections, initial TS optimization,
                  C. Bannwarth                     DFT functionals, gCP, sTDA/sTD-DF
   Ed Valeev, F. Pavosevic, A. Kumar             : LibInt (2-el integral package), F12 methods
   Garnet Chan, S. Sharma, J. Yang, R. Olivares  : DMRG
   Ulf Ekstrom                                   : XCFun DFT Library
   Mihaly Kallay                                 : mrcc  (arbitrary order and MRCC methods)
   Andreas Klamt, Michael Diedenhofen            : otool_cosmo (COSMO solvation model)
   Jiri Pittner, Ondrej Demel                    : Mk-CCSD
   Frank Weinhold                                : gennbo (NPA and NBO analysis)
   Christopher J. Cramer and Donald G. Truhlar   : smd solvation model
   Lars Goerigk                                  : TD-DFT with DH, B97 family of functionals
   V. Asgeirsson, H. Jonsson                     : NEB implementation
   FAccTs GmbH                                   : IRC, NEB, NEB-TS, Multilevel, MM, QM/MM, CI optimization
   S Lehtola, MJT Oliveira, MAL Marques          : LibXC Library


 Your calculation uses the libint2 library for the computation of 2-el integrals
 For citations please refer to: http://libint.valeyev.net

 Your ORCA version has been built with support for libXC version: 4.2.3
 For citations please refer to: https://tddft.org/programs/libxc/

 This ORCA versions uses:
   CBLAS   interface :  Fast vector & matrix operations
   LAPACKE interface :  Fast linear algebra routines
   SCALAPACK package :  Parallel linear algebra routines


----- Orbital basis set information -----
Your calculation utilizes the basis: def2-TZVP
   F. Weigend and R. Ahlrichs, Phys. Chem. Chem. Phys. 7, 3297 (2005).

================================================================================
                                        WARNINGS
                       Please study these warnings very carefully!
================================================================================


WARNING: your system is open-shell and RHF/RKS was chosen
  ===> : WILL SWITCH to UHF/UKS


WARNING: MDCI localization with Augmented Hessian Foster-Boys
  ===> : Switching off randomization!

WARNING: Post HF methods need fully converged wavefunctions
  ===> : Setting SCFConvForced true
         You can overwrite this default with %scf ConvForced false 


INFO   : the flag for use of LIBINT has been found!

================================================================================
                                       INPUT FILE
================================================================================
NAME = 16_S.in
|  1> #
|  2> # 16_S CCSD(T)/Def2-TZVP
|  3> #
|  4> ! CCSD(T) Def2-TZVP tightscf
|  5> 
|  6> *xyz 0 3
|  7>  S 0.0 0.0 0.0
|  8> *
|  9> 
| 10> %maxcore 5000 
| 11> 
| 12> %pal
| 13> nprocs 15
| 14> end
| 15> 
| 16> 
| 17>                          ****END OF INPUT****
================================================================================

                       ****************************
                       * Single Point Calculation *
                       ****************************

---------------------------------
CARTESIAN COORDINATES (ANGSTROEM)
---------------------------------
  S      0.000000    0.000000    0.000000

----------------------------
CARTESIAN COORDINATES (A.U.)
----------------------------
  NO LB      ZA    FRAG     MASS         X           Y           Z
   0 S    16.0000    0    32.060    0.000000    0.000000    0.000000

--------------------------------
INTERNAL COORDINATES (ANGSTROEM)
--------------------------------
 S      0   0   0     0.000000000000     0.00000000     0.00000000

---------------------------
INTERNAL COORDINATES (A.U.)
---------------------------
 S      0   0   0     0.000000000000     0.00000000     0.00000000

---------------------
BASIS SET INFORMATION
---------------------
There are 1 groups of distinct atoms

 Group   1 Type S   : 14s9p3d1f contracted to 5s5p2d1f pattern {73211/51111/21/1}

Atom   0S    basis set group =>   1


           ************************************************************
           *        Program running with 15 parallel MPI-processes    *
           *              working on a common directory               *
           ************************************************************
------------------------------------------------------------------------------
                           ORCA GTO INTEGRAL CALCULATION
------------------------------------------------------------------------------

                         BASIS SET STATISTICS AND STARTUP INFO

 # of primitive gaussian shells          ...   27
 # of primitive gaussian functions       ...   63
 # of contracted shells                  ...   13
 # of contracted basis functions         ...   37
 Highest angular momentum                ...    3
 Maximum contraction depth               ...    7
 Integral package used                   ... LIBINT
 Integral threshhold            Thresh   ...  2.500e-11
 Primitive cut-off              TCut     ...  2.500e-12


------------------------------ INTEGRAL EVALUATION ----------------------------


 * One electron integrals 
 Pre-screening matrix                    ... done
 Shell pair data                         ... done (   0.000 sec)



           ************************************************************
           *        Program running with 15 parallel MPI-processes    *
           *              working on a common directory               *
           ************************************************************
-------------------------------------------------------------------------------
                                 ORCA SCF
-------------------------------------------------------------------------------

------------
SCF SETTINGS
------------
Hamiltonian:
 Ab initio Hamiltonian  Method          .... Hartree-Fock(GTOs)


General Settings:
 Integral files         IntName         .... 16_S
 Hartree-Fock type      HFTyp           .... UHF
 Total Charge           Charge          ....    0
 Multiplicity           Mult            ....    3
 Number of Electrons    NEL             ....   16
 Basis Dimension        Dim             ....   37
 Nuclear Repulsion      ENuc            ....      0.0000000000 Eh

Convergence Acceleration:
 DIIS                   CNVDIIS         .... on
   Start iteration      DIISMaxIt       ....    12
   Startup error        DIISStart       ....  0.200000
   # of expansion vecs  DIISMaxEq       ....     5
   Bias factor          DIISBfac        ....   1.050
   Max. coefficient     DIISMaxC        ....  10.000
 Newton-Raphson         CNVNR           .... off
 SOSCF                  CNVSOSCF        .... off
 Level Shifting         CNVShift        .... on
   Level shift para.    LevelShift      ....    0.2500
   Turn off err/grad.   ShiftErr        ....    0.0010
 Zerner damping         CNVZerner       .... off
 Static damping         CNVDamp         .... on
   Fraction old density DampFac         ....    0.7000
   Max. Damping (<1)    DampMax         ....    0.9800
   Min. Damping (>=0)   DampMin         ....    0.0000
   Turn off err/grad.   DampErr         ....    0.1000
 Fernandez-Rico         CNVRico         .... off

SCF Procedure:
 Maximum # iterations   MaxIter         ....   125
 SCF integral mode      SCFMode         .... Direct
   Integral package                     .... LIBINT
 Reset frequency        DirectResetFreq ....    20
 Integral Threshold     Thresh          ....  2.500e-11 Eh
 Primitive CutOff       TCut            ....  2.500e-12 Eh

Convergence Tolerance:
 Convergence Check Mode ConvCheckMode   .... Total+1el-Energy
 Convergence forced     ConvForced      .... 1
 Energy Change          TolE            ....  1.000e-08 Eh
 1-El. energy change                    ....  1.000e-05 Eh
 DIIS Error             TolErr          ....  5.000e-07


Diagonalization of the overlap matrix:
Smallest eigenvalue                        ... 4.995e-02
Time for diagonalization                   ...    0.001 sec
Threshold for overlap eigenvalues          ... 1.000e-08
Number of eigenvalues below threshold      ... 0
Time for construction of square roots      ...    0.008 sec
Total time needed                          ...    0.009 sec

-------------------
DFT GRID GENERATION
-------------------

General Integration Accuracy     IntAcc      ...  4.340
Radial Grid Type                 RadialGrid  ... Gauss-Chebyshev
Angular Grid (max. acc.)         AngularGrid ... Lebedev-110
Angular grid pruning method      GridPruning ... 3 (G Style)
Weight generation scheme         WeightScheme... Becke
Basis function cutoff            BFCut       ...    1.0000e-11
Integration weight cutoff        WCut        ...    1.0000e-14
Grids for H and He will be reduced by one unit

# of grid points (after initial pruning)     ...   1806 (   0.0 sec)
# of grid points (after weights+screening)   ...   1806 (   0.0 sec)
Grid point division into batches done        ...    0.0 sec
Reduced shell lists constructed in    0.0 sec

Total number of grid points                  ...     1806
Total number of batches                      ...       29
Average number of points per batch           ...       62
Average number of grid points per atom       ...     1806
Average number of shells per batch           ...     5.33 (41.03%)
Average number of basis functions per batch  ...    18.67 (50.45%)
Average number of large shells per batch     ...     4.00 (75.00%)
Average number of large basis fcns per batch ...    13.33 (71.43%)
Maximum spatial batch extension              ...  16.21, 29.83, 29.83 au
Average spatial batch extension              ...   1.12,  2.06,  2.06 au

Time for grid setup =    0.039 sec

------------------------------
INITIAL GUESS: MODEL POTENTIAL
------------------------------
Loading Hartree-Fock densities                     ... done
Calculating cut-offs                               ... done
Setting up the integral package                    ... done
Initializing the effective Hamiltonian             ... done
Starting the Coulomb interaction                   ... done (   0.0 sec)
Reading the grid                                   ... done
Mapping shells                                     ... done
Starting the XC term evaluation                    ... done (   0.0 sec)
Transforming the Hamiltonian                       ... done (   0.0 sec)
Diagonalizing the Hamiltonian                      ... done (   0.0 sec)
Back transforming the eigenvectors                 ... done (   0.0 sec)
Now organizing SCF variables                       ... done
                      ------------------
                      INITIAL GUESS DONE (   0.2 sec)
                      ------------------
--------------
SCF ITERATIONS
--------------
ITER       Energy         Delta-E        Max-DP      RMS-DP      [F,P]     Damp
               ***  Starting incremental Fock matrix formation  ***
  0   -397.4816423682   0.000000000000 0.01092299  0.00055502  0.1376908 0.7000
  1   -397.4867330236  -0.005090655431 0.01006771  0.00048797  0.0968851 0.7000
                               ***Turning on DIIS***
  2   -397.4906554235  -0.003922399918 0.02695114  0.00129737  0.0681470 0.0000
  3   -397.5010610859  -0.010405662355 0.00720669  0.00036749  0.0036305 0.0000
  4   -397.5027251817  -0.001664095829 0.00431826  0.00019987  0.0014686 0.0000
  5   -397.4992134863   0.003511695446 0.00355338  0.00014992  0.0007511 0.0000
  6   -397.5015959173  -0.002382431061 0.00061760  0.00002399  0.0001544 0.0000
  7   -397.5019602464  -0.000364329098 0.00009267  0.00000413  0.0000261 0.0000
  8   -397.5019605192  -0.000000272733 0.00000935  0.00000060  0.0000029 0.0000
                            ***DIIS convergence achieved***

               *****************************************************
               *                     SUCCESS                       *
               *           SCF CONVERGED AFTER   9 CYCLES          *
               *****************************************************


----------------
TOTAL SCF ENERGY
----------------

Total Energy       :         -397.50195521 Eh          -10816.57811 eV

Components:
Nuclear Repulsion  :            0.00000000 Eh               0.00000 eV
Electronic Energy  :         -397.50195521 Eh          -10816.57811 eV
One Electron Energy:         -549.39192177 Eh          -14949.71422 eV
Two Electron Energy:          151.88996657 Eh            4133.13611 eV

Virial components:
Potential Energy   :         -795.00045579 Eh          -21633.06221 eV
Kinetic Energy     :          397.49850058 Eh           10816.48410 eV
Virial Ratio       :            2.00000869


---------------
SCF CONVERGENCE
---------------

  Last Energy change         ...    5.3131e-06  Tolerance :   1.0000e-08
  Last MAX-Density change    ...    2.8308e-06  Tolerance :   1.0000e-07
  Last RMS-Density change    ...    2.2132e-07  Tolerance :   5.0000e-09
  Last DIIS Error            ...    3.3011e-07  Tolerance :   5.0000e-07

             **** THE GBW FILE WAS UPDATED (16_S.gbw) ****
             **** DENSITY FILE WAS UPDATED (16_S.scfp) ****
             **** ENERGY FILE WAS UPDATED (16_S.en.tmp) ****
----------------------
UHF SPIN CONTAMINATION
----------------------

Expectation value of <S**2>     :     2.011968
Ideal value S*(S+1) for S=1.0   :     2.000000
Deviation                       :     0.011968

             **** THE GBW FILE WAS UPDATED (16_S.gbw) ****
             **** DENSITY FILE WAS UPDATED (16_S.scfp) ****
----------------
ORBITAL ENERGIES
----------------
                 SPIN UP ORBITALS
  NO   OCC          E(Eh)            E(eV) 
   0   1.0000     -92.009843     -2503.7151 
   1   1.0000      -9.011575      -245.2174 
   2   1.0000      -6.704776      -182.4462 
   3   1.0000      -6.704776      -182.4462 
   4   1.0000      -6.684294      -181.8889 
   5   1.0000      -0.988330       -26.8938 
   6   1.0000      -0.485355       -13.2072 
   7   1.0000      -0.485355       -13.2072 
   8   1.0000      -0.414217       -11.2714 
   9   0.0000       0.379387        10.3236 
  10   0.0000       0.379387        10.3236 
  11   0.0000       0.410915        11.1816 
  12   0.0000       0.453846        12.3498 
  13   0.0000       0.453846        12.3498 
  14   0.0000       0.495000        13.4696 
  15   0.0000       0.495000        13.4696 
  16   0.0000       0.510615        13.8945 
  17   0.0000       0.542128        14.7521 
  18   0.0000       1.698526        46.2192 
  19   0.0000       1.698526        46.2192 
  20   0.0000       1.733789        47.1788 
  21   0.0000       1.733789        47.1788 
  22   0.0000       1.746767        47.5319 
  23   0.0000       1.848820        50.3089 
  24   0.0000       1.848820        50.3089 
  25   0.0000       1.883161        51.2434 
  26   0.0000       1.883161        51.2434 
  27   0.0000       1.904346        51.8199 
  28   0.0000       1.904346        51.8199 
  29   0.0000       1.911659        52.0189 
  30   0.0000       2.023470        55.0614 
  31   0.0000       2.023470        55.0614 
  32   0.0000       2.073259        56.4162 
  33   0.0000       9.442855       256.9531 
  34   0.0000       9.442855       256.9531 
  35   0.0000       9.476546       257.8699 
  36   0.0000      18.077196       491.9055 

                 SPIN DOWN ORBITALS
  NO   OCC          E(Eh)            E(eV) 
   0   1.0000     -91.990134     -2503.1788 
   1   1.0000      -8.992813      -244.7069 
   2   1.0000      -6.673956      -181.6076 
   3   1.0000      -6.657528      -181.1605 
   4   1.0000      -6.657528      -181.1605 
   5   1.0000      -0.773215       -21.0402 
   6   1.0000      -0.378294       -10.2939 
   7   0.0000       0.013015         0.3542 
   8   0.0000       0.013015         0.3542 
   9   0.0000       0.421848        11.4791 
  10   0.0000       0.458638        12.4802 
  11   0.0000       0.458638        12.4802 
  12   0.0000       0.564739        15.3673 
  13   0.0000       0.572963        15.5911 
  14   0.0000       0.572963        15.5911 
  15   0.0000       0.592275        16.1166 
  16   0.0000       0.603146        16.4124 
  17   0.0000       0.603146        16.4124 
  18   0.0000       1.763539        47.9883 
  19   0.0000       1.763539        47.9883 
  20   0.0000       1.768824        48.1322 
  21   0.0000       1.768824        48.1322 
  22   0.0000       1.770453        48.1765 
  23   0.0000       1.941853        52.8405 
  24   0.0000       1.941853        52.8405 
  25   0.0000       1.945680        52.9447 
  26   0.0000       1.945680        52.9447 
  27   0.0000       1.947496        52.9941 
  28   0.0000       1.947496        52.9941 
  29   0.0000       1.948022        53.0084 
  30   0.0000       2.088518        56.8315 
  31   0.0000       2.099807        57.1387 
  32   0.0000       2.099807        57.1387 
  33   0.0000       9.485676       258.1184 
  34   0.0000       9.486224       258.1333 
  35   0.0000       9.486224       258.1333 
  36   0.0000      18.105292       492.6700 

                    ********************************
                    * MULLIKEN POPULATION ANALYSIS *
                    ********************************

--------------------------------------------
MULLIKEN ATOMIC CHARGES AND SPIN POPULATIONS
--------------------------------------------
   0 S :   -0.000000    2.000000
Sum of atomic charges         :   -0.0000000
Sum of atomic spin populations:    2.0000000

-----------------------------------------------------
MULLIKEN REDUCED ORBITAL CHARGES AND SPIN POPULATIONS
-----------------------------------------------------
CHARGE
  0 S s       :     5.994498  s :     5.994498
      pz      :     3.290816  p :     9.998972
      px      :     3.363551
      py      :     3.344605
      dz2     :     0.000022  d :     0.005502
      dxz     :     0.001749
      dyz     :     0.001658
      dx2y2   :     0.000001
      dxy     :     0.002072
      f0      :     0.000096  f :     0.001028
      f+1     :     0.000130
      f-1     :     0.000124
      f+2     :     0.000145
      f-2     :     0.000258
      f+3     :     0.000137
      f-3     :     0.000138

SPIN
  0 S s       :     0.001732  s :     0.001732
      pz      :     0.708530  p :     1.999025
      px      :     0.635771
      py      :     0.654724
      dz2     :    -0.000007  d :    -0.001732
      dxz     :    -0.000550
      dyz     :    -0.000522
      dx2y2   :    -0.000000
      dxy     :    -0.000652
      f0      :     0.000087  f :     0.000975
      f+1     :     0.000129
      f-1     :     0.000122
      f+2     :     0.000145
      f-2     :     0.000229
      f+3     :     0.000131
      f-3     :     0.000131


                     *******************************
                     * LOEWDIN POPULATION ANALYSIS *
                     *******************************

-------------------------------------------
LOEWDIN ATOMIC CHARGES AND SPIN POPULATIONS
-------------------------------------------
   0 S :    0.000000    2.000000

----------------------------------------------------
LOEWDIN REDUCED ORBITAL CHARGES AND SPIN POPULATIONS
----------------------------------------------------
CHARGE
  0 S s       :     5.994498  s :     5.994498
      pz      :     3.290816  p :     9.998972
      px      :     3.363551
      py      :     3.344605
      dz2     :     0.000022  d :     0.005502
      dxz     :     0.001749
      dyz     :     0.001658
      dx2y2   :     0.000001
      dxy     :     0.002072
      f0      :     0.000096  f :     0.001028
      f+1     :     0.000130
      f-1     :     0.000124
      f+2     :     0.000145
      f-2     :     0.000258
      f+3     :     0.000137
      f-3     :     0.000138

SPIN
  0 S s       :     0.001732  s :     0.001732
      pz      :     0.708530  p :     1.999025
      px      :     0.635771
      py      :     0.654724
      dz2     :    -0.000007  d :    -0.001732
      dxz     :    -0.000550
      dyz     :    -0.000522
      dx2y2   :    -0.000000
      dxy     :    -0.000652
      f0      :     0.000087  f :     0.000975
      f+1     :     0.000129
      f-1     :     0.000122
      f+2     :     0.000145
      f-2     :     0.000229
      f+3     :     0.000131
      f-3     :     0.000131


                      *****************************
                      * MAYER POPULATION ANALYSIS *
                      *****************************

  NA   - Mulliken gross atomic population
  ZA   - Total nuclear charge
  QA   - Mulliken gross atomic charge
  VA   - Mayer's total valence
  BVA  - Mayer's bonded valence
  FA   - Mayer's free valence

  ATOM       NA         ZA         QA         VA         BVA        FA
  0 S     16.0000    16.0000    -0.0000     2.0239     0.0000     2.0239

  Mayer bond orders larger than 0.100000


-------
TIMINGS
-------

Total SCF time: 0 days 0 hours 0 min 1 sec 

Total time                  ....       1.952 sec
Sum of individual times     ....       1.668 sec  ( 85.4%)

Fock matrix formation       ....       1.170 sec  ( 59.9%)
Diagonalization             ....       0.029 sec  (  1.5%)
Density matrix formation    ....       0.002 sec  (  0.1%)
Population analysis         ....       0.141 sec  (  7.2%)
Initial guess               ....       0.115 sec  (  5.9%)
Orbital Transformation      ....       0.000 sec  (  0.0%)
Orbital Orthonormalization  ....       0.000 sec  (  0.0%)
DIIS solution               ....       0.172 sec  (  8.8%)


           ************************************************************
           *        Program running with 15 parallel MPI-processes    *
           *              working on a common directory               *
           ************************************************************


------------------------------------------------------------------------------- 
                              ORCA-MATRIX DRIVEN CI                            
------------------------------------------------------------------------------- 

--------------------------------
AUTOMATIC CHOICE OF INCORE LEVEL
--------------------------------

Memory available                           ...   2500.00 MB
Memory needed for S+T                      ...      0.18 MB
Memory needed for J+K                      ...      0.36 MB
Memory needed for DIIS                     ...      2.51 MB
Memory needed for 3-ext                    ...      0.67 MB
Memory needed for 4-ext                    ...      2.43 MB
Memory needed for triples                  ...      0.84 MB
 -> Final InCoreLevel    ... 5
 -> check shows that triples correction can be computed


Wavefunction type
-----------------
Correlation treatment                      ...      CCSD     
Single excitations                         ... ON
Orbital optimization                       ... OFF
Calculation of Z vector                    ... OFF
Calculation of Brueckner orbitals          ... OFF
Perturbative triple excitations            ... ON
Calculation of F12 correction              ... OFF
Frozen core treatment                      ... chemical core (10 el)
Reference Wavefunction                     ... UHF
  Alpha-MOs occ    :     5 ...    8 (  4 MO's/  4 electrons)
  Beta-MOs occ     :     5 ...    6 (  2 MO's/  2 electrons)
  Alpha-MOs virt   :     9 ...   36 ( 28 MO's              )
  Beta-MOs virt    :     7 ...   36 ( 30 MO's              )
Number of AO's                             ...     37
Number of electrons                        ...     16
Number of correlated electrons             ...      6

Algorithmic settings
--------------------
Integral transformation                    ... AO direct full transformation
K(C) Formation                             ... FULL-MO TRAFO
Maximum number of iterations               ...        50
Convergence tolerance (max. residuum)      ... 1.000e-05
Level shift for amplitude update           ... 2.000e-01
Maximum number of DIIS vectors             ...         7
DIIS turned on at iteration                ...         0
Damping before turning on DIIS             ...     0.500
Damping after turning on DIIS              ...     0.000
Pair specific amplitude update             ... OFF
Natural orbital iterations                 ... OFF
Perturbative natural orbital generation    ... OFF
Printlevel                                 ... 2

Memory handling:
----------------
Maximum memory for working arrays          ...   2500 MB
Data storage in matrix containers          ... UNCOMPRESSED
Data type for integral storage             ... DOUBLE
In-Core Storage of quantities:
   Amplitudes+Sigma Vector      ... YES
   J+K operators                ... YES
   DIIS vectors                 ... YES
   3-external integrals         ... YES
   4-external integrals         ... YES


Initializing the integral package          ... done
Warning: reference  - re-canonicalizations have been set to INT 1 VIRT 1

--------------------------
UNRESTRICTED FOCK OPERATOR
--------------------------

<ss|ss>:          120 b            0 skpd (  0.0%)    0.000 s ( 0.002 ms/b)
<ss|sp>:          375 b            0 skpd (  0.0%)    0.001 s ( 0.001 ms/b)
<ss|sd>:          150 b            0 skpd (  0.0%)    0.000 s ( 0.002 ms/b)
<ss|sf>:           75 b            0 skpd (  0.0%)    0.000 s ( 0.001 ms/b)
<ss|pp>:          225 b            0 skpd (  0.0%)    0.000 s ( 0.001 ms/b)
<ss|pd>:          150 b            0 skpd (  0.0%)    0.000 s ( 0.001 ms/b)
<ss|pf>:           75 b            0 skpd (  0.0%)    0.000 s ( 0.002 ms/b)
<ss|dd>:           45 b            0 skpd (  0.0%)    0.000 s ( 0.002 ms/b)
<ss|df>:           30 b            0 skpd (  0.0%)    0.000 s ( 0.003 ms/b)
<ss|ff>:           15 b            0 skpd (  0.0%)    0.000 s ( 0.006 ms/b)
<sp|sp>:          325 b            0 skpd (  0.0%)    0.000 s ( 0.001 ms/b)
<sp|sd>:          250 b            0 skpd (  0.0%)    0.000 s ( 0.001 ms/b)
<sp|sf>:          125 b            0 skpd (  0.0%)    0.000 s ( 0.001 ms/b)
<sp|pp>:          375 b            0 skpd (  0.0%)    0.000 s ( 0.001 ms/b)
<sp|pd>:          250 b            0 skpd (  0.0%)    0.000 s ( 0.002 ms/b)
<sp|pf>:          125 b            0 skpd (  0.0%)    0.000 s ( 0.002 ms/b)
<sp|dd>:           75 b            0 skpd (  0.0%)    0.000 s ( 0.003 ms/b)
<sp|df>:           50 b            0 skpd (  0.0%)    0.000 s ( 0.005 ms/b)
<sp|ff>:           25 b            0 skpd (  0.0%)    0.000 s ( 0.011 ms/b)
<sd|sd>:           55 b            0 skpd (  0.0%)    0.000 s ( 0.002 ms/b)
<sd|sf>:           50 b            0 skpd (  0.0%)    0.000 s ( 0.002 ms/b)
<sd|pp>:          150 b            0 skpd (  0.0%)    0.000 s ( 0.002 ms/b)
<sd|pd>:          100 b            0 skpd (  0.0%)    0.000 s ( 0.004 ms/b)
<sd|pf>:           50 b            0 skpd (  0.0%)    0.000 s ( 0.004 ms/b)
<sd|dd>:           30 b            0 skpd (  0.0%)    0.000 s ( 0.007 ms/b)
<sd|df>:           20 b            0 skpd (  0.0%)    0.000 s ( 0.011 ms/b)
<sd|ff>:           10 b            0 skpd (  0.0%)    0.000 s ( 0.023 ms/b)
<sf|sf>:           15 b            0 skpd (  0.0%)    0.000 s ( 0.004 ms/b)
<sf|pp>:           75 b            0 skpd (  0.0%)    0.000 s ( 0.003 ms/b)
<sf|pd>:           50 b            0 skpd (  0.0%)    0.000 s ( 0.006 ms/b)
<sf|pf>:           25 b            0 skpd (  0.0%)    0.000 s ( 0.007 ms/b)
<sf|dd>:           15 b            0 skpd (  0.0%)    0.000 s ( 0.010 ms/b)
<sf|df>:           10 b            0 skpd (  0.0%)    0.000 s ( 0.018 ms/b)
<sf|ff>:            5 b            0 skpd (  0.0%)    0.000 s ( 0.038 ms/b)
<pp|pp>:          120 b            0 skpd (  0.0%)    0.000 s ( 0.004 ms/b)
<pp|pd>:          150 b            0 skpd (  0.0%)    0.001 s ( 0.004 ms/b)
<pp|pf>:           75 b            0 skpd (  0.0%)    0.000 s ( 0.004 ms/b)
<pp|dd>:           45 b            0 skpd (  0.0%)    0.000 s ( 0.007 ms/b)
<pp|df>:           30 b            0 skpd (  0.0%)    0.000 s ( 0.013 ms/b)
<pp|ff>:           15 b            0 skpd (  0.0%)    0.000 s ( 0.027 ms/b)
<pd|pd>:           55 b            0 skpd (  0.0%)    0.000 s ( 0.007 ms/b)
<pd|pf>:           50 b            0 skpd (  0.0%)    0.000 s ( 0.008 ms/b)
<pd|dd>:           30 b            0 skpd (  0.0%)    0.000 s ( 0.013 ms/b)
<pd|df>:           20 b            0 skpd (  0.0%)    0.001 s ( 0.025 ms/b)
<pd|ff>:           10 b            0 skpd (  0.0%)    0.001 s ( 0.053 ms/b)
<pf|pf>:           15 b            0 skpd (  0.0%)    0.000 s ( 0.012 ms/b)
<pf|dd>:           15 b            0 skpd (  0.0%)    0.000 s ( 0.017 ms/b)
<pf|df>:           10 b            0 skpd (  0.0%)    0.000 s ( 0.037 ms/b)
<pf|ff>:            5 b            0 skpd (  0.0%)    0.000 s ( 0.078 ms/b)
<dd|dd>:            6 b            0 skpd (  0.0%)    0.000 s ( 0.031 ms/b)
<dd|df>:            6 b            0 skpd (  0.0%)    0.000 s ( 0.042 ms/b)
<dd|ff>:            3 b            0 skpd (  0.0%)    0.000 s ( 0.096 ms/b)
<df|df>:            3 b            0 skpd (  0.0%)    0.000 s ( 0.067 ms/b)
<df|ff>:            2 b            0 skpd (  0.0%)    0.000 s ( 0.155 ms/b)
<ff|ff>:            1 b            0 skpd (  0.0%)    0.000 s ( 0.260 ms/b)
Recanonicalizing the internal orbitals
Recanonicalizing the virtual orbitals
Time needed for Fock operator              ...            0.144 sec
Reference energy                           ...   -397.501955052
Warning: for UHF the TrafoType has to be JK
Warning: for UHF the K(C)-option cannot be MO but must be AOX

-------------------------------
PARTIAL EXCHANGE TRANSFORMATION
-------------------------------

Transformation type                        ... two-operators
Generation of integrals (i,mue|j,nue)      ... ON
Generation of integrals (mue,kappa|nue,tau)... ON
Generation of integrals (i,mue|a,nue)      ... ON
Dimension of the basis                     ...   37
Number of internal alpha-MOs               ...    4 (   5-   8)
Number of internal beta-MOs                ...    2 (   5-   6)
Number of external alpha-MOs               ...   28 (   9-  36)
Number of external beta-MOs                ...   30 (   7-  36)
Pair cutoff                                ... 0.000e+00 Eh
Number of AO pairs in the trafo            ...  703
Total Number of distinct AO pairs          ...  703
Memory devoted for trafo                   ... 2500.0 MB 
Max. Number of MO pairs treated together   ... 239357      
Number Format for Storage                  ... Double (8 Byte)
Integral package used                      ... LIBINT

Starting integral evaluation:
    ... done with AO integral generation
Closing buffer AOK[aa] ( 0.00 GB; CompressionRatio= 0.00)
Closing buffer AOK[bb] ( 0.00 GB; CompressionRatio= 0.00)
Closing buffer AOK[ab] ( 0.00 GB; CompressionRatio= 0.00)
Closing buffer AOK[ba] ( 0.00 GB; CompressionRatio= 0.00)
Collecting buffer AOK 
Closing buffer IAAO1[aa] ( 0.00 GB; CompressionRatio= 0.00)
Closing buffer IAAO1[bb] ( 0.00 GB; CompressionRatio= 0.00)
Closing buffer IAAO1[ab] ( 0.00 GB; CompressionRatio= 0.00)
Closing buffer IAAO1[ba] ( 0.00 GB; CompressionRatio= 0.00)
Closing buffer IAAO2[aa] ( 0.00 GB; CompressionRatio= 0.00)
Closing buffer IAAO2[bb] ( 0.00 GB; CompressionRatio= 0.00)
Closing buffer IAAO2[ab] ( 0.00 GB; CompressionRatio= 0.00)
Closing buffer IAAO2[ba] ( 0.00 GB; CompressionRatio= 0.00)
Collecting buffer IAAO 
Closing buffer PRQS    ( 0.00 GB; CompressionRatio= 0.00)
Collecting buffer PRQS 
Number of alpha/alpha MO pairs in trafo    ...   10
Number of beta /beta  MO pairs in trafo    ...    3
Number of alpha/ beta MO pairs in trafo    ...    8
------------------------
SORTING OF (i,mue|j,nue)
------------------------

SORTING OF ALPHA/ALPHA PAIRS
IBATCH = 1 of  1
Closing buffer KAO[aa] ( 0.00 GB; CompressionRatio= 1.00)
Collecting buffer KAO 
SORTING OF BETA /BETA  PAIRS
IBATCH = 1 of  1
Closing buffer KAO[bb] ( 0.00 GB; CompressionRatio= 1.00)
Collecting buffer KAO 
SORTING OF ALPHA/BETA  PAIRS
IBATCH = 1 of  1
Closing buffer KAO[ab] ( 0.00 GB; CompressionRatio= 0.998905508938)
Collecting buffer KAO[ab] 
------------------------
SORTING OF (i,mue|a,nue)
------------------------

Number of alpha/alpha (i,a) pairs in trafo  ...  112
Number of beta /beta  (i,a) pairs in trafo  ...   60
Number of alpha/ beta (i,a) pairs in trafo  ...  120
Number of beta /alpha (i,a) pairs in trafo  ...   56
Setting up the alpha/alpha list             ... done
Setting up the beta /beta  list             ... done
Setting up the alpha/beta  list             ... done
Setting up the beta /alpha list             ... done
    ... Now sorting (i,mue|a,nue)integrals
    ... Integrals (i,b|a,c) will be made on the fly
SORTING OF ALPHA/ALPHA PAIRS
IBATCH = 1 of  1
Closing buffer IPAQ[aa]  0.00 GB; CompressionRatio= 1.00)
SORTING OF BETA /BETA  PAIRS
IBATCH = 1 of  1
Closing buffer IPAQ[bb]( 0.00 GB; CompressionRatio= 1.00)
SORTING OF ALPHA/BETA  PAIRS (NMatSort_ab=8)
IBATCH = 1 of  1
Closing buffer IPAQ[ab]( 0.00 GB; CompressionRatio= 1.00)
SORTING OF BETA/ALPHA  PAIRS
IBATCH = 1 of  1
Closing buffer IPAQ[ba]( 0.00 GB; CompressionRatio= 1.00)
N(AO-Batches) Done                         ...         0 
N(AO-Batches) Skipped                      ...         0 
N(IJ)-pairs Skipped                        ...         0 
TOTAL TIME for half transformation         ...     1.574 sec
AO-integral generation                     ...     0.000 sec
Half transformation                        ...     0.000 sec
K-integral sorting                         ...     0.476 sec
<ss|**>: 
------------------------------
PARTIAL COULOMB TRANSFORMATION
------------------------------

Transformation type                        ... two-operators
Dimension of the basis                     ...   37
Number of internal alpha-MOs               ...    4 (5-8)
Number of internal beta-MOs                ...    2 (5-6)
Pair cutoff                                ... 0.000e+00 Eh
Number of AO pairs included in the trafo   ...  703
Total Number of distinct AO pairs          ...  703
Memory devoted for trafo                   ... 2500.0 MB 
Max. Number of MO pairs treated together   ... 466116      
Max. Number of MOs treated per batch       ... 12597      
Number Format for Storage                  ... Double (8 Byte)
AO-integral source                         ... DIRECT
Integral package used                      ... LIBINT

Starting integral evaluation:
<sp|**>:         1365 b        0 skpd     0.002 s (  0.001 ms/b)
<sd|**>:         2275 b        0 skpd     0.011 s (  0.005 ms/b)
<sf|**>:          910 b        0 skpd     0.008 s (  0.008 ms/b)
<pp|**>:          455 b        0 skpd     0.007 s (  0.016 ms/b)
        1365 b        0 skpd     0.022 s (  0.016 ms/b)
<pd|**>:          910 b        0 skpd     0.026 s (  0.028 ms/b)
<pf|**>: <dd|**>:          455 b        0 skpd     0.022 s (  0.049 ms/b)
<df|**>:          273 b        0 skpd     0.019 s (  0.071 ms/b)
<ff|**>:          182 b        0 skpd     0.024 s (  0.130 ms/b)
          91 b        0 skpd     0.016 s (  0.180 ms/b)
Closing buffer AOJ[aa] ( 0.00 GB; CompressionRatio= 0.87)
Closing buffer AOJ[bb] ( 0.00 GB; CompressionRatio= 0.00)
Collecting buffer AOJ 
    ... done with AO integral generation
Number of Alpha-MO pairs included          ...   10
Number of Beta-MO pairs included           ...    3
    ... Now sorting integrals
SORTING ALPHA/ALPHA PAIRS
IBATCH = 1 of  1
Closing buffer JAO[aa] ( 0.00 GB; CompressionRatio= 1.00)
SORTING BETA/BETA PAIRS
IBATCH = 1 of  1
Closing buffer JAO[bb] ( 0.00 GB; CompressionRatio= 1.00)
Collecting buffer JAO 
TOTAL TIME for half transformation         ...     0.332 sec
AO-integral generation                     ...     0.101 sec
Half transformation                        ...     0.057 sec
J-integral sorting                         ...     0.051 sec

-------------------------- SECOND HALF TRANSFORMATION -------------------------
Formation of (ij|kl),(ij|ka), (ij|ab)      ... ok (     0.064 sec)
Formation of (ik|jl),(ik|ja), (ia|jb)      ... ok (     0.109 sec)


-----------------------
SPIN UNRESTRICTED GUESS
-----------------------

Entering MDCI_UHF_Guess, Tailored=0
Spin-components of the MP2 energy:
EMP2(aa)=     -0.023588160
EMP2(bb)=     -0.003072380
EMP2(ab)=     -0.087505874

Initial guess performed in     0.001 sec
E(0)                                       ...   -397.501955052
E(MP2)                                     ...     -0.114166414
Initial E(tot)                             ...   -397.616121466
<T|T>                                      ...      0.048493095
Number of pairs included                   ... 15

------------------------------------------------
                  UHF COUPLED CLUSTER ITERATIONS
------------------------------------------------

Number of amplitudes to be optimized       ...         9608

Iter       E(tot)           E(Corr)          Delta-E          Residual     Time      <S|S>**1/2
  0   -397.616121466     -0.114166414     -0.000000000      0.021819262    0.05      0.000002454
                           *** Turning on DIIS ***
  1   -397.632664239     -0.130709187     -0.016542773      0.011206414    0.03      0.009777926
  2   -397.639425801     -0.137470749     -0.006761562      0.003281239    0.03      0.016439391
  3   -397.639965067     -0.138010014     -0.000539265      0.000529849    0.03      0.018619208
  4   -397.640065310     -0.138110258     -0.000100244      0.000098962    0.03      0.019032388
  5   -397.640068063     -0.138113010     -0.000002753      0.000043324    0.03      0.019053512
  6   -397.640068144     -0.138113092     -0.000000081      0.000014710    0.03      0.019046370
  7   -397.640068243     -0.138113191     -0.000000099      0.000004313    0.03      0.019040649
               --- The Coupled-Cluster iterations have converged ---

----------------------
COUPLED CLUSTER ENERGY
----------------------

E(0)                                       ...   -397.501955052
E(CORR)                                    ...     -0.138113191
E(TOT)                                     ...   -397.640068243
Singles norm <S|S>**1/2                    ...      0.019040649 ( 0.008538713, 0.010501937)  
T1 diagnostic                              ...      0.007773313                              

------------------
LARGEST AMPLITUDES
------------------
   8a-> 16a   6b-> 12b       0.060438
   7a-> 12a   5b->  7b       0.049381
   6a-> 13a   5b->  7b       0.049381
   7a-> 13a   5b->  8b       0.049381
   6a-> 12a   5b->  8b       0.049381
   8a-> 14a   5b->  8b       0.048946
   8a-> 15a   5b->  7b       0.048946
   8a-> 14a   6b-> 14b       0.048377
   8a-> 15a   6b-> 13b       0.048377
   7a-> 13a   6a-> 12a       0.042937
   7a-> 12a   6a-> 13a       0.042937
   8a-> 14a   6a-> 16a       0.039892
   8a-> 16a   6a-> 14a       0.039892
   8a-> 15a   7a-> 16a       0.039892
   8a-> 16a   7a-> 15a       0.039892
   8a-> 11a   6b->  9b       0.036722

----------------------
UHF TRIPLES CORRECTION (Algorithm 1)
----------------------

Multiplier for the singles contribution    ...      1.000000000

SPIN-CASE Alpha-Alpha-Alpha:
10% done
20% done
30% done
40% done
50% done
60% done
70% done
80% done
90% done


SPIN-CASE Beta-Beta-Beta:

SPIN-CASE Alpha-Alpha-Beta:
10% done
20% done
30% done
40% done
50% done
60% done
70% done
80% done
90% done


SPIN-CASE Beta-Beta-Alpha:
10% done
20% done
30% done
40% done
50% done
60% done
70% done
80% done
90% done


Triples Correction (T)                     ...     -0.004658694
    alpha-alpha-alpha ... -0.000236742 (  5.1%)
    alpha-alpha-beta  ... -0.003356704 ( 72.1%)
    alpha-beta -beta  ... -0.001065248 ( 22.9%)
    beta -beta -beta  ...  0.000000000 ( -0.0%)
Scaling of triples based on CCSD energies (Peterson et al. Molecular Physics 113, 1551 (2015))
E(T*) = f*E(T) where f = E(F12-CCSD)/E(CCSD) 
f = CCSD (with F12)/ CCSD (without F12)    ...      1.000000000
Scaled triples correction (T)              ...     -0.004658694

Final correlation energy                   ...     -0.142771884
E(CCSD)                                    ...   -397.640068243
E(CCSD(T))                                 ...   -397.644726936



        !!!!!!!!!!!!!!!!!!!!!!!!!!!!!!!!!!!!!!!!!!!!!!!!!!!!!!!!!!!!!!!!!!!!!!!!!! 
        !  Warning: Densities are linearized densities                           !
        !!!!!!!!!!!!!!!!!!!!!!!!!!!!!!!!!!!!!!!!!!!!!!!!!!!!!!!!!!!!!!!!!!!!!!!!!! 

NORM  =      1.075298581 sqrt=     1.036966046
W(HF) =      0.929974258
------------------------------------------------------------------------------
                           ORCA POPULATION ANALYSIS
------------------------------------------------------------------------------
Input electron density              ... 16_S.mdcip
Input spin density                  ... 16_S.mdcir
BaseName (.gbw .S,...)              ... 16_S

                    ********************************
                    * MULLIKEN POPULATION ANALYSIS *
                    ********************************

------------------------------------------
MULLIKEN ATOMIC CHARGES AND SPIN DENSITIES
------------------------------------------
   0 S :   -0.000000    2.000000
Sum of atomic charges       :   -0.0000000
Sum of atomic spin densities:    2.0000000

---------------------------------------------------
MULLIKEN REDUCED ORBITAL CHARGES AND SPIN DENSITIES
---------------------------------------------------
CHARGE
  0 S s       :     5.958447  s :     5.958447
      pz      :     3.274348  p :     9.944210
      px      :     3.344003
      py      :     3.325859
      dz2     :     0.017523  d :     0.088509
      dxz     :     0.017639
      dyz     :     0.017553
      dx2y2   :     0.017912
      dxy     :     0.017882
      f0      :     0.001227  f :     0.008834
      f+1     :     0.001246
      f-1     :     0.001230
      f+2     :     0.001264
      f-2     :     0.001257
      f+3     :     0.001305
      f-3     :     0.001305

SPIN
  0 S s       :     0.023449  s :     0.023449
      pz      :     0.685449  p :     1.933867
      px      :     0.615039
      py      :     0.633379
      dz2     :     0.008057  d :     0.039332
      dxz     :     0.007989
      dyz     :     0.008104
      dx2y2   :     0.007514
      dxy     :     0.007668
      f0      :     0.000469  f :     0.003352
      f+1     :     0.000473
      f-1     :     0.000467
      f+2     :     0.000479
      f-2     :     0.000471
      f+3     :     0.000496
      f-3     :     0.000496


                     *******************************
                     * LOEWDIN POPULATION ANALYSIS *
                     *******************************

-----------------------------------------
LOEWDIN ATOMIC CHARGES AND SPIN DENSITIES
-----------------------------------------
   0 S :    0.000000    2.000000

--------------------------------------------------
LOEWDIN REDUCED ORBITAL CHARGES AND SPIN DENSITIES
--------------------------------------------------
CHARGE
  0 S s       :     5.958447  s :     5.958447
      pz      :     3.274348  p :     9.944210
      px      :     3.344003
      py      :     3.325859
      dz2     :     0.017523  d :     0.088509
      dxz     :     0.017639
      dyz     :     0.017553
      dx2y2   :     0.017912
      dxy     :     0.017882
      f0      :     0.001227  f :     0.008834
      f+1     :     0.001246
      f-1     :     0.001230
      f+2     :     0.001264
      f-2     :     0.001257
      f+3     :     0.001305
      f-3     :     0.001305

SPIN
  0 S s       :     0.023449  s :     0.023449
      pz      :     0.685449  p :     1.933867
      px      :     0.615039
      py      :     0.633379
      dz2     :     0.008057  d :     0.039332
      dxz     :     0.007989
      dyz     :     0.008104
      dx2y2   :     0.007514
      dxy     :     0.007668
      f0      :     0.000469  f :     0.003352
      f+1     :     0.000473
      f-1     :     0.000467
      f+2     :     0.000479
      f-2     :     0.000471
      f+3     :     0.000496
      f-3     :     0.000496


                      *****************************
                      * MAYER POPULATION ANALYSIS *
                      *****************************

  NA   - Mulliken gross atomic population
  ZA   - Total nuclear charge
  QA   - Mulliken gross atomic charge
  VA   - Mayer's total valence
  BVA  - Mayer's bonded valence
  FA   - Mayer's free valence

  ATOM       NA         ZA         QA         VA         BVA        FA
  0 S     16.0000    16.0000    -0.0000     2.4528     0.0000     2.4528





------------------------------------------------------------------------------- 
                                     TIMINGS                                   
------------------------------------------------------------------------------- 


Total execution time                   ...        2.821 sec

Fock Matrix Formation                  ...        0.144 sec (  5.1%)
Initial Guess                          ...        0.001 sec (  0.0%)
DIIS Solver                            ...        0.010 sec (  0.4%)
State Vector Update                    ...        0.001 sec (  0.0%)
Sigma-vector construction              ...        0.244 sec (  8.7%)
  <D|H|D>(4-ext)                       ...        0.116 sec ( 47.3% of sigma)
  <S|H|0>                              ...        0.002 sec (  0.8% of sigma)
  <D|H|S>(1-ext)                       ...        0.001 sec (  0.5% of sigma)
  Fock-dressing                        ...        0.081 sec ( 33.0% of sigma)
  (ij|ab),(ia|jb)-dressing             ...        0.027 sec ( 11.0% of sigma)
Total Time for computing (T)           ...        0.006 sec (  0.2% of ALL)
  I/O of integral and amplitudes       ...        0.002 sec ( 28.5% of (T))
  External N**7 contributions          ...        0.001 sec ( 16.6% of (T))
  N**6 triples energy contributions    ...        0.003 sec ( 41.2% of (T))


-------------------------   --------------------
FINAL SINGLE POINT ENERGY      -397.644726936499
-------------------------   --------------------


                            ***************************************
                            *     ORCA property calculations      *
                            ***************************************

                                    ---------------------
                                    Active property flags
                                    ---------------------
   (+) Dipole Moment


------------------------------------------------------------------------------
                       ORCA ELECTRIC PROPERTIES CALCULATION
------------------------------------------------------------------------------

Dipole Moment Calculation                       ... on
Quadrupole Moment Calculation                   ... off
Polarizability Calculation                      ... off
GBWName                                         ... 16_S.gbw
Electron density file                           ... 16_S.scfp
The origin for moment calculation is the CENTER OF MASS  = ( 0.000000,  0.000000  0.000000)

-------------
DIPOLE MOMENT
-------------
                                X             Y             Z
Electronic contribution:     -0.00000      -0.00000       0.00000
Nuclear contribution   :      0.00000       0.00000       0.00000
                        -----------------------------------------
Total Dipole Moment    :     -0.00000      -0.00000       0.00000
                        -----------------------------------------
Magnitude (a.u.)       :      0.00000
Magnitude (Debye)      :      0.00000



--------------------
Rotational spectrum 
--------------------
 
Rotational constants in cm-1:     0.000000     0.000000     0.000000 
Rotational constants in MHz :     0.000000     0.000000     0.000000 

 Dipole components along the rotational axes: 
x,y,z [a.u.] :    -0.000000    -0.000000     0.000000 
x,y,z [Debye]:    -0.000000    -0.000000     0.000000 

 

                           *** MDCI DENSITY ***

------------------------------------------------------------------------------
                       ORCA ELECTRIC PROPERTIES CALCULATION
------------------------------------------------------------------------------

Dipole Moment Calculation                       ... on
Quadrupole Moment Calculation                   ... off
Polarizability Calculation                      ... off
GBWName                                         ... 16_S.gbw
Electron density file                           ... 16_S.mdcip
The origin for moment calculation is the CENTER OF MASS  = ( 0.000000,  0.000000  0.000000)

-------------
DIPOLE MOMENT
-------------
                                X             Y             Z
Electronic contribution:     -0.00000      -0.00000       0.00000
Nuclear contribution   :      0.00000       0.00000       0.00000
                        -----------------------------------------
Total Dipole Moment    :     -0.00000      -0.00000       0.00000
                        -----------------------------------------
Magnitude (a.u.)       :      0.00000
Magnitude (Debye)      :      0.00000



--------------------
Rotational spectrum 
--------------------
 
Rotational constants in cm-1:     0.000000     0.000000     0.000000 
Rotational constants in MHz :     0.000000     0.000000     0.000000 

 Dipole components along the rotational axes: 
x,y,z [a.u.] :    -0.000000    -0.000000     0.000000 
x,y,z [Debye]:    -0.000000    -0.000000     0.000000 

 

Timings for individual modules:

Sum of individual times         ...        6.106 sec (=   0.102 min)
GTO integral calculation        ...        0.630 sec (=   0.010 min)  10.3 %
SCF iterations                  ...        2.291 sec (=   0.038 min)  37.5 %
MDCI module                     ...        3.185 sec (=   0.053 min)  52.2 %
                             ****ORCA TERMINATED NORMALLY****
TOTAL RUN TIME: 0 days 0 hours 0 minutes 6 seconds 764 msec
