
                                 *****************
                                 * O   R   C   A *
                                 *****************

           --- An Ab Initio, DFT and Semiempirical electronic structure package ---

                  #######################################################
                  #                        -***-                        #
                  #          Department of theory and spectroscopy      #
                  #               Directorship: Frank Neese             #
                  #        Max Planck Institute fuer Kohlenforschung    #
                  #                Kaiser Wilhelm Platz 1               #
                  #                 D-45470 Muelheim/Ruhr               #
                  #                      Germany                        #
                  #                                                     #
                  #                  All rights reserved                #
                  #                        -***-                        #
                  #######################################################


                         Program Version 4.2.0 -  RELEASE  -


 With contributions from (in alphabetic order):
   Daniel Aravena         : Magnetic Suceptibility
   Michael Atanasov       : Ab Initio Ligand Field Theory (pilot matlab implementation)
   Alexander A. Auer      : GIAO ZORA, VPT2
   Ute Becker             : Parallelization
   Giovanni Bistoni       : ED, misc. LED, open-shell LED, HFLED
   Martin Brehm           : Molecular dynamics
   Dmytro Bykov           : SCF Hessian
   Vijay G. Chilkuri      : MRCI spin determinant printing, contributions to CSF-ICE
   Dipayan Datta          : RHF DLPNO-CCSD density
   Achintya Kumar Dutta   : EOM-CC, STEOM-CC
   Dmitry Ganyushin       : Spin-Orbit,Spin-Spin,Magnetic field MRCI
   Miquel Garcia          : C-PCM Hessian, Gaussian charge scheme
   Yang Guo               : DLPNO-NEVPT2, CIM, IAO-localization
   Andreas Hansen         : Spin unrestricted coupled pair/coupled cluster methods
   Benjamin Helmich-Paris : CASSCF linear response (MC-RPA)
   Lee Huntington         : MR-EOM, pCC
   Robert Izsak           : Overlap fitted RIJCOSX, COSX-SCS-MP3, EOM
   Christian Kollmar      : KDIIS, OOCD, Brueckner-CCSD(T), CCSD density
   Simone Kossmann        : Meta GGA functionals, TD-DFT gradient, OOMP2, MP2 Hessian
   Martin Krupicka        : AUTO-CI
   Lucas Lang             : DCDCAS
   Dagmar Lenk            : GEPOL surface, SMD
   Dimitrios Liakos       : Extrapolation schemes; Compound Job, initial MDCI parallelization
   Dimitrios Manganas     : Further ROCIS development; embedding schemes
   Dimitrios Pantazis     : SARC Basis sets
   Taras Petrenko         : DFT Hessian,TD-DFT gradient, ASA, ECA, R-Raman, ABS, FL, XAS/XES, NRVS
   Peter Pinski           : DLPNO-MP2, DLPNO-MP2 Gradient
   Christoph Reimann      : Effective Core Potentials
   Marius Retegan         : Local ZFS, SOC
   Christoph Riplinger    : Optimizer, TS searches, QM/MM, DLPNO-CCSD(T), (RO)-DLPNO pert. Triples
   Tobias Risthaus        : Range-separated hybrids, TD-DFT gradient, RPA, STAB
   Michael Roemelt        : Original ROCIS implementation
   Masaaki Saitow         : Open-shell DLPNO-CCSD energy and density
   Barbara Sandhoefer     : DKH picture change effects
   Avijit Sen             : IP-ROCIS
   Kantharuban Sivalingam : CASSCF convergence, NEVPT2, FIC-MRCI
   Bernardo de Souza      : ESD, SOC TD-DFT
   Georgi Stoychev        : AutoAux, RI-MP2 NMR
   Willem Van den Heuvel  : Paramagnetic NMR
   Boris Wezisla          : Elementary symmetry handling
   Frank Wennmohs         : Technical directorship


 We gratefully acknowledge several colleagues who have allowed us to
 interface, adapt or use parts of their codes:
   Stefan Grimme, W. Hujo, H. Kruse,             : VdW corrections, initial TS optimization,
                  C. Bannwarth                     DFT functionals, gCP, sTDA/sTD-DF
   Ed Valeev, F. Pavosevic, A. Kumar             : LibInt (2-el integral package), F12 methods
   Garnet Chan, S. Sharma, J. Yang, R. Olivares  : DMRG
   Ulf Ekstrom                                   : XCFun DFT Library
   Mihaly Kallay                                 : mrcc  (arbitrary order and MRCC methods)
   Andreas Klamt, Michael Diedenhofen            : otool_cosmo (COSMO solvation model)
   Jiri Pittner, Ondrej Demel                    : Mk-CCSD
   Frank Weinhold                                : gennbo (NPA and NBO analysis)
   Christopher J. Cramer and Donald G. Truhlar   : smd solvation model
   Lars Goerigk                                  : TD-DFT with DH, B97 family of functionals
   V. Asgeirsson, H. Jonsson                     : NEB implementation
   FAccTs GmbH                                   : IRC, NEB, NEB-TS, Multilevel, MM, QM/MM, CI optimization
   S Lehtola, MJT Oliveira, MAL Marques          : LibXC Library


 Your calculation uses the libint2 library for the computation of 2-el integrals
 For citations please refer to: http://libint.valeyev.net

 Your ORCA version has been built with support for libXC version: 4.2.3
 For citations please refer to: https://tddft.org/programs/libxc/

 This ORCA versions uses:
   CBLAS   interface :  Fast vector & matrix operations
   LAPACKE interface :  Fast linear algebra routines
   SCALAPACK package :  Parallel linear algebra routines


----- Orbital basis set information -----
Your calculation utilizes the basis: def2-TZVP
   F. Weigend and R. Ahlrichs, Phys. Chem. Chem. Phys. 7, 3297 (2005).

================================================================================
                                        WARNINGS
                       Please study these warnings very carefully!
================================================================================


WARNING: your system is open-shell and RHF/RKS was chosen
  ===> : WILL SWITCH to UHF/UKS


WARNING: MDCI localization with Augmented Hessian Foster-Boys
  ===> : Switching off randomization!

WARNING: Post HF methods need fully converged wavefunctions
  ===> : Setting SCFConvForced true
         You can overwrite this default with %scf ConvForced false 


INFO   : the flag for use of LIBINT has been found!

================================================================================
                                       INPUT FILE
================================================================================
NAME = 29_Cu.in
|  1> #
|  2> # 29_Cu CCSD(T)/Def2-TZVP
|  3> #
|  4> ! CCSD(T) Def2-TZVP tightscf
|  5> 
|  6> *xyz 0 2
|  7>  Cu 0.0 0.0 0.0
|  8> *
|  9> 
| 10> %maxcore 5000 
| 11> 
| 12> %pal
| 13> nprocs 24
| 14> end
| 15> 
| 16> 
| 17>                          ****END OF INPUT****
================================================================================

                       ****************************
                       * Single Point Calculation *
                       ****************************

---------------------------------
CARTESIAN COORDINATES (ANGSTROEM)
---------------------------------
  Cu     0.000000    0.000000    0.000000

----------------------------
CARTESIAN COORDINATES (A.U.)
----------------------------
  NO LB      ZA    FRAG     MASS         X           Y           Z
   0 Cu   29.0000    0    63.550    0.000000    0.000000    0.000000

--------------------------------
INTERNAL COORDINATES (ANGSTROEM)
--------------------------------
 Cu     0   0   0     0.000000000000     0.00000000     0.00000000

---------------------------
INTERNAL COORDINATES (A.U.)
---------------------------
 Cu     0   0   0     0.000000000000     0.00000000     0.00000000

---------------------
BASIS SET INFORMATION
---------------------
There are 1 groups of distinct atoms

 Group   1 Type Cu  : 17s11p7d1f contracted to 6s4p4d1f pattern {842111/6311/4111/1}

Atom   0Cu   basis set group =>   1


           ************************************************************
           *        Program running with 24 parallel MPI-processes    *
           *              working on a common directory               *
           ************************************************************
------------------------------------------------------------------------------
                           ORCA GTO INTEGRAL CALCULATION
------------------------------------------------------------------------------

                         BASIS SET STATISTICS AND STARTUP INFO

 # of primitive gaussian shells          ...   36
 # of primitive gaussian functions       ...   92
 # of contracted shells                  ...   15
 # of contracted basis functions         ...   45
 Highest angular momentum                ...    3
 Maximum contraction depth               ...    8
 Integral package used                   ... LIBINT
 Integral threshhold            Thresh   ...  2.500e-11
 Primitive cut-off              TCut     ...  2.500e-12


------------------------------ INTEGRAL EVALUATION ----------------------------


 * One electron integrals 
 Pre-screening matrix                    ... done
 Shell pair data                         ... done (   0.000 sec)



           ************************************************************
           *        Program running with 24 parallel MPI-processes    *
           *              working on a common directory               *
           ************************************************************
-------------------------------------------------------------------------------
                                 ORCA SCF
-------------------------------------------------------------------------------

------------
SCF SETTINGS
------------
Hamiltonian:
 Ab initio Hamiltonian  Method          .... Hartree-Fock(GTOs)


General Settings:
 Integral files         IntName         .... 29_Cu
 Hartree-Fock type      HFTyp           .... UHF
 Total Charge           Charge          ....    0
 Multiplicity           Mult            ....    2
 Number of Electrons    NEL             ....   29
 Basis Dimension        Dim             ....   45
 Nuclear Repulsion      ENuc            ....      0.0000000000 Eh

Convergence Acceleration:
 DIIS                   CNVDIIS         .... on
   Start iteration      DIISMaxIt       ....    12
   Startup error        DIISStart       ....  0.200000
   # of expansion vecs  DIISMaxEq       ....     5
   Bias factor          DIISBfac        ....   1.050
   Max. coefficient     DIISMaxC        ....  10.000
 Newton-Raphson         CNVNR           .... off
 SOSCF                  CNVSOSCF        .... off
 Level Shifting         CNVShift        .... on
   Level shift para.    LevelShift      ....    0.2500
   Turn off err/grad.   ShiftErr        ....    0.0010
 Zerner damping         CNVZerner       .... off
 Static damping         CNVDamp         .... on
   Fraction old density DampFac         ....    0.7000
   Max. Damping (<1)    DampMax         ....    0.9800
   Min. Damping (>=0)   DampMin         ....    0.0000
   Turn off err/grad.   DampErr         ....    0.1000
 Fernandez-Rico         CNVRico         .... off

SCF Procedure:
 Maximum # iterations   MaxIter         ....   125
 SCF integral mode      SCFMode         .... Direct
   Integral package                     .... LIBINT
 Reset frequency        DirectResetFreq ....    20
 Integral Threshold     Thresh          ....  2.500e-11 Eh
 Primitive CutOff       TCut            ....  2.500e-12 Eh

Convergence Tolerance:
 Convergence Check Mode ConvCheckMode   .... Total+1el-Energy
 Convergence forced     ConvForced      .... 1
 Energy Change          TolE            ....  1.000e-08 Eh
 1-El. energy change                    ....  1.000e-05 Eh
 DIIS Error             TolErr          ....  5.000e-07


Diagonalization of the overlap matrix:
Smallest eigenvalue                        ... 7.073e-02
Time for diagonalization                   ...    0.001 sec
Threshold for overlap eigenvalues          ... 1.000e-08
Number of eigenvalues below threshold      ... 0
Time for construction of square roots      ...    0.012 sec
Total time needed                          ...    0.013 sec

-------------------
DFT GRID GENERATION
-------------------

General Integration Accuracy     IntAcc      ...  4.340
Radial Grid Type                 RadialGrid  ... Gauss-Chebyshev
Angular Grid (max. acc.)         AngularGrid ... Lebedev-110
Angular grid pruning method      GridPruning ... 3 (G Style)
Weight generation scheme         WeightScheme... Becke
Basis function cutoff            BFCut       ...    1.0000e-11
Integration weight cutoff        WCut        ...    1.0000e-14
Grids for H and He will be reduced by one unit

# of grid points (after initial pruning)     ...   2912 (   0.0 sec)
# of grid points (after weights+screening)   ...   2912 (   0.0 sec)
Grid point division into batches done        ...    0.0 sec
Reduced shell lists constructed in    0.0 sec

Total number of grid points                  ...     2912
Total number of batches                      ...       46
Average number of points per batch           ...       63
Average number of grid points per atom       ...     2912
Average number of shells per batch           ...     3.33 (22.22%)
Average number of basis functions per batch  ...    10.00 (22.22%)
Average number of large shells per batch     ...     3.33 (100.00%)
Average number of large basis fcns per batch ...    10.00 (100.00%)
Maximum spatial batch extension              ...  17.39, 26.34, 26.34 au
Average spatial batch extension              ...   0.76,  1.15,  1.15 au

Time for grid setup =    0.058 sec

------------------------------
INITIAL GUESS: MODEL POTENTIAL
------------------------------
Loading Hartree-Fock densities                     ... done
Calculating cut-offs                               ... done
Setting up the integral package                    ... done
Initializing the effective Hamiltonian             ... done
Starting the Coulomb interaction                   ... done (   0.0 sec)
Reading the grid                                   ... done
Mapping shells                                     ... done
Starting the XC term evaluation                    ... done (   0.0 sec)
Transforming the Hamiltonian                       ... done (   0.0 sec)
Diagonalizing the Hamiltonian                      ... done (   0.0 sec)
Back transforming the eigenvectors                 ... done (   0.0 sec)
Now organizing SCF variables                       ... done
                      ------------------
                      INITIAL GUESS DONE (   0.2 sec)
                      ------------------
--------------
SCF ITERATIONS
--------------
ITER       Energy         Delta-E        Max-DP      RMS-DP      [F,P]     Damp
               ***  Starting incremental Fock matrix formation  ***
  0  -1638.8851872605   0.000000000000 0.05862820  0.00134687  0.1958680 0.7000
  1  -1638.8975226437  -0.012335383177 0.06703108  0.00128159  0.0852479 0.7000
                               ***Turning on DIIS***
  2  -1638.9040253810  -0.006502737381 0.20175982  0.00373632  0.0541295 0.0000
  3  -1638.7884644232   0.115560957874 0.05773200  0.00113087  0.0248344 0.0000
  4  -1639.1378325157  -0.349368092588 0.05053925  0.00099085  0.0182884 0.0000
  5  -1638.9201123532   0.217720162525 0.04127328  0.00082505  0.0048580 0.0000
  6  -1638.9361164869  -0.016004133691 0.03078886  0.00063378  0.0029451 0.0000
  7  -1638.9341899281   0.001926558797 0.01514600  0.00031841  0.0014806 0.0000
  8  -1638.9300594540   0.004130474117 0.01181778  0.00025189  0.0007298 0.0000
  9  -1638.9246947497   0.005364704249 0.00245494  0.00005290  0.0001243 0.0000
 10  -1638.9233562867   0.001338463054 0.00010242  0.00000315  0.0000291 0.0000
 11  -1638.9232158636   0.000140423078 0.00013182  0.00000353  0.0000102 0.0000
 12  -1638.9231386707   0.000077192964 0.00003322  0.00000198  0.0000055 0.0000
                            ***DIIS convergence achieved***

               *****************************************************
               *                     SUCCESS                       *
               *           SCF CONVERGED AFTER  13 CYCLES          *
               *****************************************************


----------------
TOTAL SCF ENERGY
----------------

Total Energy       :        -1638.92308543 Eh          -44597.36444 eV

Components:
Nuclear Repulsion  :            0.00000000 Eh               0.00000 eV
Electronic Energy  :        -1638.92308543 Eh          -44597.36444 eV
One Electron Energy:        -2289.73343774 Eh          -62306.81446 eV
Two Electron Energy:          650.81035231 Eh           17709.45002 eV

Virial components:
Potential Energy   :        -3277.80070362 Eh          -89193.49166 eV
Kinetic Energy     :         1638.87761820 Eh           44596.12721 eV
Virial Ratio       :            2.00002774


---------------
SCF CONVERGENCE
---------------

  Last Energy change         ...    5.3245e-05  Tolerance :   1.0000e-08
  Last MAX-Density change    ...    8.1607e-06  Tolerance :   1.0000e-07
  Last RMS-Density change    ...    4.0454e-07  Tolerance :   5.0000e-09
  Last DIIS Error            ...    8.9749e-07  Tolerance :   5.0000e-07

             **** THE GBW FILE WAS UPDATED (29_Cu.gbw) ****
             **** DENSITY FILE WAS UPDATED (29_Cu.scfp) ****
             **** ENERGY FILE WAS UPDATED (29_Cu.en.tmp) ****
----------------------
UHF SPIN CONTAMINATION
----------------------

Expectation value of <S**2>     :     0.751931
Ideal value S*(S+1) for S=0.5   :     0.750000
Deviation                       :     0.001931

             **** THE GBW FILE WAS UPDATED (29_Cu.gbw) ****
             **** DENSITY FILE WAS UPDATED (29_Cu.scfp) ****
----------------
ORBITAL ENERGIES
----------------
                 SPIN UP ORBITALS
  NO   OCC          E(Eh)            E(eV) 
   0   1.0000    -328.796099     -8946.9967 
   1   1.0000     -40.821952     -1110.8218 
   2   1.0000     -35.619979      -969.2689 
   3   1.0000     -35.619979      -969.2689 
   4   1.0000     -35.619979      -969.2689 
   5   1.0000      -5.014678      -136.4563 
   6   1.0000      -3.324566       -90.4660 
   7   1.0000      -3.324566       -90.4660 
   8   1.0000      -3.324566       -90.4660 
   9   1.0000      -0.489630       -13.3235 
  10   1.0000      -0.489630       -13.3235 
  11   1.0000      -0.489630       -13.3235 
  12   1.0000      -0.489630       -13.3235 
  13   1.0000      -0.489630       -13.3235 
  14   1.0000      -0.240251        -6.5376 
  15   0.0000       0.180884         4.9221 
  16   0.0000       0.208953         5.6859 
  17   0.0000       0.208953         5.6859 
  18   0.0000       0.208953         5.6859 
  19   0.0000       0.258858         7.0439 
  20   0.0000       0.258858         7.0439 
  21   0.0000       0.258858         7.0439 
  22   0.0000       0.258858         7.0439 
  23   0.0000       0.258858         7.0439 
  24   0.0000       1.094070        29.7712 
  25   0.0000       1.094070        29.7712 
  26   0.0000       1.094070        29.7712 
  27   0.0000       1.094070        29.7712 
  28   0.0000       1.094070        29.7712 
  29   0.0000       2.515534        68.4511 
  30   0.0000       2.515534        68.4511 
  31   0.0000       2.515534        68.4511 
  32   0.0000       3.405235        92.6611 
  33   0.0000       4.220863       114.8555 
  34   0.0000       4.220863       114.8555 
  35   0.0000       4.220863       114.8555 
  36   0.0000       4.220863       114.8555 
  37   0.0000       4.220863       114.8555 
  38   0.0000       6.342380       172.5849 
  39   0.0000       6.342380       172.5849 
  40   0.0000       6.342380       172.5849 
  41   0.0000       6.342380       172.5849 
  42   0.0000       6.342380       172.5849 
  43   0.0000       6.342380       172.5849 
  44   0.0000       6.342380       172.5849 

                 SPIN DOWN ORBITALS
  NO   OCC          E(Eh)            E(eV) 
   0   1.0000    -328.794420     -8946.9510 
   1   1.0000     -40.822844     -1110.8461 
   2   1.0000     -35.622716      -969.3434 
   3   1.0000     -35.622716      -969.3434 
   4   1.0000     -35.622716      -969.3434 
   5   1.0000      -5.013927      -136.4359 
   6   1.0000      -3.329774       -90.6078 
   7   1.0000      -3.329774       -90.6078 
   8   1.0000      -3.329774       -90.6078 
   9   1.0000      -0.493861       -13.4386 
  10   1.0000      -0.493861       -13.4386 
  11   1.0000      -0.493861       -13.4386 
  12   1.0000      -0.493861       -13.4386 
  13   1.0000      -0.493861       -13.4386 
  14   0.0000       0.018815         0.5120 
  15   0.0000       0.231365         6.2958 
  16   0.0000       0.274825         7.4784 
  17   0.0000       0.274825         7.4784 
  18   0.0000       0.274825         7.4784 
  19   0.0000       0.274825         7.4784 
  20   0.0000       0.274825         7.4784 
  21   0.0000       0.277477         7.5505 
  22   0.0000       0.277477         7.5505 
  23   0.0000       0.277477         7.5505 
  24   0.0000       1.112450        30.2713 
  25   0.0000       1.112450        30.2713 
  26   0.0000       1.112450        30.2713 
  27   0.0000       1.112450        30.2713 
  28   0.0000       1.112450        30.2713 
  29   0.0000       2.527870        68.7868 
  30   0.0000       2.527870        68.7868 
  31   0.0000       2.527870        68.7868 
  32   0.0000       3.422718        93.1369 
  33   0.0000       4.222487       114.8997 
  34   0.0000       4.222487       114.8997 
  35   0.0000       4.222487       114.8997 
  36   0.0000       4.222487       114.8997 
  37   0.0000       4.222487       114.8997 
  38   0.0000       6.340028       172.5209 
  39   0.0000       6.340028       172.5209 
  40   0.0000       6.340028       172.5209 
  41   0.0000       6.340028       172.5209 
  42   0.0000       6.340028       172.5209 
  43   0.0000       6.340028       172.5209 
  44   0.0000       6.340028       172.5209 

                    ********************************
                    * MULLIKEN POPULATION ANALYSIS *
                    ********************************

--------------------------------------------
MULLIKEN ATOMIC CHARGES AND SPIN POPULATIONS
--------------------------------------------
   0 Cu:   -0.000000    1.000000
Sum of atomic charges         :   -0.0000000
Sum of atomic spin populations:    1.0000000

-----------------------------------------------------
MULLIKEN REDUCED ORBITAL CHARGES AND SPIN POPULATIONS
-----------------------------------------------------
CHARGE
  0 Cus       :     7.000000  s :     7.000000
      pz      :     4.000000  p :    12.000000
      px      :     4.000000
      py      :     4.000000
      dz2     :     2.000000  d :    10.000000
      dxz     :     2.000000
      dyz     :     2.000000
      dx2y2   :     2.000000
      dxy     :     2.000000
      f0      :     0.000000  f :     0.000000
      f+1     :     0.000000
      f-1     :     0.000000
      f+2     :     0.000000
      f-2     :     0.000000
      f+3     :     0.000000
      f-3     :     0.000000

SPIN
  0 Cus       :     1.000000  s :     1.000000
      pz      :     0.000000  p :     0.000000
      px      :     0.000000
      py      :    -0.000000
      dz2     :    -0.000000  d :    -0.000000
      dxz     :     0.000000
      dyz     :     0.000000
      dx2y2   :    -0.000000
      dxy     :     0.000000
      f0      :     0.000000  f :     0.000000
      f+1     :     0.000000
      f-1     :     0.000000
      f+2     :     0.000000
      f-2     :     0.000000
      f+3     :     0.000000
      f-3     :     0.000000


                     *******************************
                     * LOEWDIN POPULATION ANALYSIS *
                     *******************************

-------------------------------------------
LOEWDIN ATOMIC CHARGES AND SPIN POPULATIONS
-------------------------------------------
   0 Cu:   -0.000000    1.000000

----------------------------------------------------
LOEWDIN REDUCED ORBITAL CHARGES AND SPIN POPULATIONS
----------------------------------------------------
CHARGE
  0 Cus       :     7.000000  s :     7.000000
      pz      :     4.000000  p :    12.000000
      px      :     4.000000
      py      :     4.000000
      dz2     :     2.000000  d :    10.000000
      dxz     :     2.000000
      dyz     :     2.000000
      dx2y2   :     2.000000
      dxy     :     2.000000
      f0      :     0.000000  f :     0.000000
      f+1     :     0.000000
      f-1     :     0.000000
      f+2     :     0.000000
      f-2     :     0.000000
      f+3     :     0.000000
      f-3     :     0.000000

SPIN
  0 Cus       :     1.000000  s :     1.000000
      pz      :     0.000000  p :     0.000000
      px      :     0.000000
      py      :    -0.000000
      dz2     :    -0.000000  d :    -0.000000
      dxz     :     0.000000
      dyz     :     0.000000
      dx2y2   :    -0.000000
      dxy     :     0.000000
      f0      :     0.000000  f :     0.000000
      f+1     :     0.000000
      f-1     :     0.000000
      f+2     :     0.000000
      f-2     :     0.000000
      f+3     :     0.000000
      f-3     :     0.000000


                      *****************************
                      * MAYER POPULATION ANALYSIS *
                      *****************************

  NA   - Mulliken gross atomic population
  ZA   - Total nuclear charge
  QA   - Mulliken gross atomic charge
  VA   - Mayer's total valence
  BVA  - Mayer's bonded valence
  FA   - Mayer's free valence

  ATOM       NA         ZA         QA         VA         BVA        FA
  0 Cu    29.0000    29.0000    -0.0000     1.0039     0.0000     1.0039

  Mayer bond orders larger than 0.100000


-------
TIMINGS
-------

Total SCF time: 0 days 0 hours 0 min 3 sec 

Total time                  ....       3.115 sec
Sum of individual times     ....       2.689 sec  ( 86.3%)

Fock matrix formation       ....       2.067 sec  ( 66.4%)
Diagonalization             ....       0.062 sec  (  2.0%)
Density matrix formation    ....       0.004 sec  (  0.1%)
Population analysis         ....       0.113 sec  (  3.6%)
Initial guess               ....       0.114 sec  (  3.7%)
Orbital Transformation      ....       0.000 sec  (  0.0%)
Orbital Orthonormalization  ....       0.000 sec  (  0.0%)
DIIS solution               ....       0.271 sec  (  8.7%)


           ************************************************************
           *        Program running with 24 parallel MPI-processes    *
           *              working on a common directory               *
           ************************************************************


------------------------------------------------------------------------------- 
                              ORCA-MATRIX DRIVEN CI                            
------------------------------------------------------------------------------- 

--------------------------------
AUTOMATIC CHOICE OF INCORE LEVEL
--------------------------------

Memory available                           ...   2500.00 MB
Memory needed for S+T                      ...      1.13 MB
Memory needed for J+K                      ...      2.29 MB
Memory needed for DIIS                     ...     15.86 MB
Memory needed for 3-ext                    ...      2.06 MB
Memory needed for 4-ext                    ...      3.19 MB
Memory needed for triples                  ...      1.03 MB
 -> Final InCoreLevel    ... 5
 -> check shows that triples correction can be computed


Wavefunction type
-----------------
Correlation treatment                      ...      CCSD     
Single excitations                         ... ON
Orbital optimization                       ... OFF
Calculation of Z vector                    ... OFF
Calculation of Brueckner orbitals          ... OFF
Perturbative triple excitations            ... ON
Calculation of F12 correction              ... OFF
Frozen core treatment                      ... chemical core (10 el)
Reference Wavefunction                     ... UHF
  Alpha-MOs occ    :     5 ...   14 ( 10 MO's/ 10 electrons)
  Beta-MOs occ     :     5 ...   13 (  9 MO's/  9 electrons)
  Alpha-MOs virt   :    15 ...   44 ( 30 MO's              )
  Beta-MOs virt    :    14 ...   44 ( 31 MO's              )
Number of AO's                             ...     45
Number of electrons                        ...     29
Number of correlated electrons             ...     19

Algorithmic settings
--------------------
Integral transformation                    ... AO direct full transformation
K(C) Formation                             ... FULL-MO TRAFO
Maximum number of iterations               ...        50
Convergence tolerance (max. residuum)      ... 1.000e-05
Level shift for amplitude update           ... 2.000e-01
Maximum number of DIIS vectors             ...         7
DIIS turned on at iteration                ...         0
Damping before turning on DIIS             ...     0.500
Damping after turning on DIIS              ...     0.000
Pair specific amplitude update             ... OFF
Natural orbital iterations                 ... OFF
Perturbative natural orbital generation    ... OFF
Printlevel                                 ... 2

Memory handling:
----------------
Maximum memory for working arrays          ...   2500 MB
Data storage in matrix containers          ... UNCOMPRESSED
Data type for integral storage             ... DOUBLE
In-Core Storage of quantities:
   Amplitudes+Sigma Vector      ... YES
   J+K operators                ... YES
   DIIS vectors                 ... YES
   3-external integrals         ... YES
   4-external integrals         ... YES


Initializing the integral package          ... done
Warning: reference  - re-canonicalizations have been set to INT 1 VIRT 1

--------------------------
UNRESTRICTED FOCK OPERATOR
--------------------------

<ss|ss>:          231 b            0 skpd (  0.0%)    0.000 s ( 0.002 ms/b)
<ss|sp>:          504 b            0 skpd (  0.0%)    0.001 s ( 0.002 ms/b)
<ss|sd>:          504 b            0 skpd (  0.0%)    0.001 s ( 0.001 ms/b)
<ss|sf>:          126 b            0 skpd (  0.0%)    0.000 s ( 0.001 ms/b)
<ss|pp>:          210 b            0 skpd (  0.0%)    0.001 s ( 0.003 ms/b)
<ss|pd>:          336 b            0 skpd (  0.0%)    0.001 s ( 0.002 ms/b)
<ss|pf>:           84 b            0 skpd (  0.0%)    0.000 s ( 0.003 ms/b)
<ss|dd>:          210 b            0 skpd (  0.0%)    0.001 s ( 0.003 ms/b)
<ss|df>:           84 b            0 skpd (  0.0%)    0.000 s ( 0.003 ms/b)
<ss|ff>:           21 b            0 skpd (  0.0%)    0.000 s ( 0.006 ms/b)
<sp|sp>:          300 b            0 skpd (  0.0%)    0.001 s ( 0.002 ms/b)
<sp|sd>:          576 b            0 skpd (  0.0%)    0.001 s ( 0.001 ms/b)
<sp|sf>:          144 b            0 skpd (  0.0%)    0.000 s ( 0.002 ms/b)
<sp|pp>:          240 b            0 skpd (  0.0%)    0.001 s ( 0.004 ms/b)
<sp|pd>:          384 b            0 skpd (  0.0%)    0.001 s ( 0.003 ms/b)
<sp|pf>:           96 b            0 skpd (  0.0%)    0.000 s ( 0.005 ms/b)
<sp|dd>:          240 b            0 skpd (  0.0%)    0.001 s ( 0.005 ms/b)
<sp|df>: done
<sp|ff>:           24 b           20 skpd ( 83.3%)    0.000 s ( 0.020 ms/b)
<sd|sd>:          300 b            0 skpd (  0.0%)    0.001 s ( 0.002 ms/b)
<sd|sf>:          144 b            0 skpd (  0.0%)    0.000 s ( 0.003 ms/b)
<sd|pp>:          240 b            0 skpd (  0.0%)    0.001 s ( 0.005 ms/b)
<sd|pd>:          384 b            1 skpd (  0.3%)    0.001 s ( 0.004 ms/b)
<sd|pf>: done
<sd|dd>:          240 b            0 skpd (  0.0%)    0.002 s ( 0.007 ms/b)
<sd|df>:           96 b            0 skpd (  0.0%)    0.001 s ( 0.010 ms/b)
<sd|ff>: done
<sf|sf>:           21 b            0 skpd (  0.0%)    0.000 s ( 0.003 ms/b)
<sf|pp>:           60 b            0 skpd (  0.0%)    0.000 s ( 0.006 ms/b)
<sf|pd>: done
<sf|pf>: done
<sf|dd>:           60 b            0 skpd (  0.0%)    0.001 s ( 0.010 ms/b)
<sf|df>: done
<sf|ff>: done
<pp|pp>:           55 b            0 skpd (  0.0%)    0.001 s ( 0.016 ms/b)
<pp|pd>:          160 b            0 skpd (  0.0%)    0.001 s ( 0.007 ms/b)
<pp|pf>:           40 b            0 skpd (  0.0%)    0.000 s ( 0.012 ms/b)
<pp|dd>:          100 b            0 skpd (  0.0%)    0.001 s ( 0.013 ms/b)
<pp|df>:           40 b            0 skpd (  0.0%)    0.001 s ( 0.018 ms/b)
<pp|ff>:           10 b            0 skpd (  0.0%)    0.000 s ( 0.040 ms/b)
<pd|pd>:          136 b            0 skpd (  0.0%)    0.002 s ( 0.014 ms/b)
<pd|pf>:           64 b            0 skpd (  0.0%)    0.001 s ( 0.017 ms/b)
<pd|dd>:          160 b            0 skpd (  0.0%)    0.003 s ( 0.018 ms/b)
<pd|df>:           64 b            0 skpd (  0.0%)    0.002 s ( 0.026 ms/b)
<pd|ff>:           16 b           14 skpd ( 87.5%)    0.000 s ( 0.100 ms/b)
<pf|pf>:           10 b            0 skpd (  0.0%)    0.000 s ( 0.021 ms/b)
<pf|dd>:           40 b            0 skpd (  0.0%)    0.001 s ( 0.021 ms/b)
<pf|df>: done
<pf|ff>:            4 b            3 skpd ( 75.0%)    0.000 s ( 0.113 ms/b)
<dd|dd>:           55 b            0 skpd (  0.0%)    0.003 s ( 0.046 ms/b)
<dd|df>:           40 b            0 skpd (  0.0%)    0.002 s ( 0.040 ms/b)
<dd|ff>:           10 b            0 skpd (  0.0%)    0.001 s ( 0.108 ms/b)
<df|df>:           10 b            0 skpd (  0.0%)    0.001 s ( 0.066 ms/b)
<df|ff>: done
<ff|ff>: done
Recanonicalizing the internal orbitals
Recanonicalizing the virtual orbitals
Time needed for Fock operator              ...            0.081 sec
Reference energy                           ...  -1638.923080804
Warning: for UHF the TrafoType has to be JK
Warning: for UHF the K(C)-option cannot be MO but must be AOX

-------------------------------
PARTIAL EXCHANGE TRANSFORMATION
-------------------------------

Transformation type                        ... two-operators
Generation of integrals (i,mue|j,nue)      ... ON
Generation of integrals (mue,kappa|nue,tau)... ON
Generation of integrals (i,mue|a,nue)      ... ON
Dimension of the basis                     ...   45
Number of internal alpha-MOs               ...   10 (   5-  14)
Number of internal beta-MOs                ...    9 (   5-  13)
Number of external alpha-MOs               ...   30 (  15-  44)
Number of external beta-MOs                ...   31 (  14-  44)
Pair cutoff                                ... 0.000e+00 Eh
Number of AO pairs in the trafo            ... 1035
Total Number of distinct AO pairs          ... 1035
Memory devoted for trafo                   ... 2500.0 MB 
Max. Number of MO pairs treated together   ... 161817      
Number Format for Storage                  ... Double (8 Byte)
Integral package used                      ... LIBINT

Starting integral evaluation:
    ... done with AO integral generation
Closing buffer AOK[aa] ( 0.00 GB; CompressionRatio= 0.00)
Closing buffer AOK[bb] ( 0.00 GB; CompressionRatio= 0.00)
Closing buffer AOK[ab] ( 0.00 GB; CompressionRatio= 0.00)
Closing buffer AOK[ba] ( 0.00 GB; CompressionRatio= 0.00)
Collecting buffer AOK 
Closing buffer IAAO1[aa] ( 0.00 GB; CompressionRatio= 0.00)
Closing buffer IAAO1[bb] ( 0.00 GB; CompressionRatio= 0.00)
Closing buffer IAAO1[ab] ( 0.00 GB; CompressionRatio= 0.00)
Closing buffer IAAO1[ba] ( 0.00 GB; CompressionRatio= 0.00)
Closing buffer IAAO2[aa] ( 0.00 GB; CompressionRatio= 0.00)
Closing buffer IAAO2[bb] ( 0.00 GB; CompressionRatio= 0.00)
Closing buffer IAAO2[ab] ( 0.00 GB; CompressionRatio= 0.00)
Closing buffer IAAO2[ba] ( 0.00 GB; CompressionRatio= 0.00)
Collecting buffer IAAO 
Closing buffer PRQS    ( 0.00 GB; CompressionRatio= 0.00)
Collecting buffer PRQS 
Number of alpha/alpha MO pairs in trafo    ...   55
Number of beta /beta  MO pairs in trafo    ...   45
Number of alpha/ beta MO pairs in trafo    ...   90
------------------------
SORTING OF (i,mue|j,nue)
------------------------

SORTING OF ALPHA/ALPHA PAIRS
IBATCH = 1 of  1
Closing buffer KAO[aa] ( 0.00 GB; CompressionRatio= 1.00)
Collecting buffer KAO 
SORTING OF BETA /BETA  PAIRS
IBATCH = 1 of  1
Closing buffer KAO[bb] ( 0.00 GB; CompressionRatio= 1.00)
Collecting buffer KAO 
SORTING OF ALPHA/BETA  PAIRS
IBATCH = 1 of  1
Closing buffer KAO[ab] ( 0.00 GB; CompressionRatio= 0.999259807550)
Collecting buffer KAO[ab] 
------------------------
SORTING OF (i,mue|a,nue)
------------------------

Number of alpha/alpha (i,a) pairs in trafo  ...  300
Number of beta /beta  (i,a) pairs in trafo  ...  279
Number of alpha/ beta (i,a) pairs in trafo  ...  310
Number of beta /alpha (i,a) pairs in trafo  ...  270
Setting up the alpha/alpha list             ... done
Setting up the beta /beta  list             ... done
Setting up the alpha/beta  list             ... done
Setting up the beta /alpha list             ... done
    ... Now sorting (i,mue|a,nue)integrals
    ... Integrals (i,b|a,c) will be made on the fly
SORTING OF ALPHA/ALPHA PAIRS
IBATCH = 1 of  1
Closing buffer IPAQ[aa]  0.00 GB; CompressionRatio= 1.00)
SORTING OF BETA /BETA  PAIRS
IBATCH = 1 of  1
Closing buffer IPAQ[bb]( 0.00 GB; CompressionRatio= 1.00)
SORTING OF ALPHA/BETA  PAIRS (NMatSort_ab=13)
IBATCH = 1 of  1
Closing buffer IPAQ[ab]( 0.00 GB; CompressionRatio= 1.00)
SORTING OF BETA/ALPHA  PAIRS
IBATCH = 1 of  1
Closing buffer IPAQ[ba]( 0.00 GB; CompressionRatio= 1.00)
N(AO-Batches) Done                         ...         0 
N(AO-Batches) Skipped                      ...         0 
N(IJ)-pairs Skipped                        ...         0 
TOTAL TIME for half transformation         ...     2.443 sec
AO-integral generation                     ...     0.000 sec
Half transformation                        ...     0.000 sec
K-integral sorting                         ...     0.752 sec
<ss|**>: 
------------------------------
PARTIAL COULOMB TRANSFORMATION
------------------------------

Transformation type                        ... two-operators
Dimension of the basis                     ...   45
Number of internal alpha-MOs               ...   10 (5-14)
Number of internal beta-MOs                ...    9 (5-13)
Pair cutoff                                ... 0.000e+00 Eh
Number of AO pairs included in the trafo   ... 1035
Total Number of distinct AO pairs          ... 1035
Memory devoted for trafo                   ... 2500.0 MB 
Max. Number of MO pairs treated together   ... 316599      
Max. Number of MOs treated per batch       ... 7035      
Number Format for Storage                  ... Double (8 Byte)
AO-integral source                         ... DIRECT
Integral package used                      ... LIBINT

Starting integral evaluation:
        2520 b        0 skpd     0.004 s (  0.002 ms/b)
<sp|**>:         2880 b        0 skpd     0.015 s (  0.005 ms/b)
<sd|**>:         2880 b        0 skpd     0.036 s (  0.012 ms/b)
<sf|**>:          720 b        0 skpd     0.010 s (  0.014 ms/b)
<pp|**>:         1200 b        0 skpd     0.016 s (  0.013 ms/b)
<pd|**>:         1920 b        0 skpd     0.042 s (  0.022 ms/b)
<pf|**>:          480 b        0 skpd     0.028 s (  0.058 ms/b)
<dd|**>:         1200 b        0 skpd     0.046 s (  0.039 ms/b)
<df|**>:          480 b        0 skpd     0.037 s (  0.077 ms/b)
<ff|**>:          120 b        0 skpd     0.018 s (  0.147 ms/b)
Closing buffer AOJ[aa] ( 0.00 GB; CompressionRatio= 0.97)
Closing buffer AOJ[bb] ( 0.00 GB; CompressionRatio= 0.00)
Collecting buffer AOJ 
    ... done with AO integral generation
Number of Alpha-MO pairs included          ...   55
Number of Beta-MO pairs included           ...   45
    ... Now sorting integrals
SORTING ALPHA/ALPHA PAIRS
IBATCH = 1 of  1
Closing buffer JAO[aa] ( 0.00 GB; CompressionRatio= 1.00)
SORTING BETA/BETA PAIRS
IBATCH = 1 of  1
Closing buffer JAO[bb] ( 0.00 GB; CompressionRatio= 1.00)
Collecting buffer JAO 
TOTAL TIME for half transformation         ...     0.493 sec
AO-integral generation                     ...     0.153 sec
Half transformation                        ...     0.100 sec
J-integral sorting                         ...     0.101 sec

-------------------------- SECOND HALF TRANSFORMATION -------------------------
Formation of (ij|kl),(ij|ka), (ij|ab)      ... ok (     0.210 sec)
Formation of (ik|jl),(ik|ja), (ia|jb)      ... ok (     0.344 sec)


-----------------------
SPIN UNRESTRICTED GUESS
-----------------------

Entering MDCI_UHF_Guess, Tailored=0
Spin-components of the MP2 energy:
EMP2(aa)=     -0.124173406
EMP2(bb)=     -0.112783551
EMP2(ab)=     -0.427126408

Initial guess performed in     0.006 sec
E(0)                                       ...  -1638.923080804
E(MP2)                                     ...     -0.664083365
Initial E(tot)                             ...  -1639.587164169
<T|T>                                      ...      0.104568214
Number of pairs included                   ... 171

------------------------------------------------
                  UHF COUPLED CLUSTER ITERATIONS
------------------------------------------------

Number of amplitudes to be optimized       ...       121519

Iter       E(tot)           E(Corr)          Delta-E          Residual     Time      <S|S>**1/2
  0  -1639.587164169     -0.664083365     -0.000000000      0.045308522    0.12      0.000000401
                           *** Turning on DIIS ***
  1  -1639.437386984     -0.514306180      0.149777185      0.021370951    0.11      0.088096258
  2  -1639.483705978     -0.560625174     -0.046318994      0.006865329    0.11      0.061785140
  3  -1639.482482003     -0.559401199      0.001223975      0.004116097    0.11      0.075961375
  4  -1639.483572913     -0.560492109     -0.001090910      0.002439997    0.11      0.081315503
  5  -1639.484265608     -0.561184804     -0.000692694      0.001174034    0.11      0.085476362
  6  -1639.484496501     -0.561415696     -0.000230893      0.000290175    0.11      0.088156067
  7  -1639.484464586     -0.561383782      0.000031914      0.000068942    0.11      0.088755300
  8  -1639.484483801     -0.561402997     -0.000019215      0.000029321    0.10      0.088785247
  9  -1639.484484303     -0.561403499     -0.000000502      0.000007244    0.12      0.088821261
               --- The Coupled-Cluster iterations have converged ---

----------------------
COUPLED CLUSTER ENERGY
----------------------

E(0)                                       ...  -1638.923080804
E(CORR)                                    ...     -0.561403499
E(TOT)                                     ...  -1639.484484303
Singles norm <S|S>**1/2                    ...      0.088821261 ( 0.048570893, 0.040250367)  
T1 diagnostic                              ...      0.020376995                              

------------------
LARGEST AMPLITUDES
------------------
  14a-> 15a  -1a-> -1a       0.050973
  12b-> 20b  -1b-> -1b       0.031773
  13b-> 19b  -1b-> -1b       0.031773
   9b-> 18b  -1b-> -1b       0.030794
  14a-> 18a  13b-> 23b       0.028388
   9a-> 19a  -1a-> -1a       0.027173
  11a-> 20a  -1a-> -1a       0.026790
  10b-> 17b  -1b-> -1b       0.026090
  14a-> 18a  11b-> 22b       0.025957
  13a-> 23a  -1a-> -1a       0.025418
  12a-> 22a  -1a-> -1a       0.025418
  14a-> 18a  10b-> 21b       0.025186
  11b-> 16b  -1b-> -1b       0.024561
  10a-> 21a  -1a-> -1a       0.023945
  14a-> 17a  12b-> 21b       0.021537
  14a-> 16a   9b-> 21b       0.021453

----------------------
UHF TRIPLES CORRECTION (Algorithm 1)
----------------------

Multiplier for the singles contribution    ...      1.000000000

SPIN-CASE Alpha-Alpha-Alpha:
10% done
20% done
30% done
40% done
50% done
60% done
70% done
80% done
90% done


SPIN-CASE Beta-Beta-Beta:
10% done
20% done
30% done
40% done
50% done
60% done
70% done
80% done
90% done


SPIN-CASE Alpha-Alpha-Beta:
10% done
20% done
30% done
40% done
50% done
60% done
70% done
80% done
90% done


SPIN-CASE Beta-Beta-Alpha:
10% done
20% done
30% done
40% done
50% done
60% done
70% done
80% done
90% done


Triples Correction (T)                     ...     -0.013718237
    alpha-alpha-alpha ... -0.000782695 (  5.7%)
    alpha-alpha-beta  ... -0.007112296 ( 51.8%)
    alpha-beta -beta  ... -0.005489286 ( 40.0%)
    beta -beta -beta  ... -0.000333960 (  2.4%)
Scaling of triples based on CCSD energies (Peterson et al. Molecular Physics 113, 1551 (2015))
E(T*) = f*E(T) where f = E(F12-CCSD)/E(CCSD) 
f = CCSD (with F12)/ CCSD (without F12)    ...      1.000000000
Scaled triples correction (T)              ...     -0.013718237

Final correlation energy                   ...     -0.575121736
E(CCSD)                                    ...  -1639.484484303
E(CCSD(T))                                 ...  -1639.498202540



        !!!!!!!!!!!!!!!!!!!!!!!!!!!!!!!!!!!!!!!!!!!!!!!!!!!!!!!!!!!!!!!!!!!!!!!!!! 
        !  Warning: Densities are linearized densities                           !
        !!!!!!!!!!!!!!!!!!!!!!!!!!!!!!!!!!!!!!!!!!!!!!!!!!!!!!!!!!!!!!!!!!!!!!!!!! 

NORM  =      1.093596654 sqrt=     1.045751717
W(HF) =      0.914413917
------------------------------------------------------------------------------
                           ORCA POPULATION ANALYSIS
------------------------------------------------------------------------------
Input electron density              ... 29_Cu.mdcip
Input spin density                  ... 29_Cu.mdcir
BaseName (.gbw .S,...)              ... 29_Cu

                    ********************************
                    * MULLIKEN POPULATION ANALYSIS *
                    ********************************

------------------------------------------
MULLIKEN ATOMIC CHARGES AND SPIN DENSITIES
------------------------------------------
   0 Cu:   -0.000000    1.000000
Sum of atomic charges       :   -0.0000000
Sum of atomic spin densities:    1.0000000

---------------------------------------------------
MULLIKEN REDUCED ORBITAL CHARGES AND SPIN DENSITIES
---------------------------------------------------
CHARGE
  0 Cus       :     6.992559  s :     6.992559
      pz      :     4.006492  p :    12.019475
      px      :     4.006492
      py      :     4.006492
      dz2     :     1.993965  d :     9.969826
      dxz     :     1.993965
      dyz     :     1.993965
      dx2y2   :     1.993965
      dxy     :     1.993965
      f0      :     0.002592  f :     0.018141
      f+1     :     0.002592
      f-1     :     0.002592
      f+2     :     0.002592
      f-2     :     0.002592
      f+3     :     0.002592
      f-3     :     0.002592

SPIN
  0 Cus       :     0.989410  s :     0.989410
      pz      :     0.000566  p :     0.001698
      px      :     0.000566
      py      :     0.000566
      dz2     :     0.001810  d :     0.009049
      dxz     :     0.001810
      dyz     :     0.001810
      dx2y2   :     0.001810
      dxy     :     0.001810
      f0      :    -0.000023  f :    -0.000158
      f+1     :    -0.000023
      f-1     :    -0.000023
      f+2     :    -0.000023
      f-2     :    -0.000023
      f+3     :    -0.000023
      f-3     :    -0.000023


                     *******************************
                     * LOEWDIN POPULATION ANALYSIS *
                     *******************************

-----------------------------------------
LOEWDIN ATOMIC CHARGES AND SPIN DENSITIES
-----------------------------------------
   0 Cu:   -0.000000    1.000000

--------------------------------------------------
LOEWDIN REDUCED ORBITAL CHARGES AND SPIN DENSITIES
--------------------------------------------------
CHARGE
  0 Cus       :     6.992559  s :     6.992559
      pz      :     4.006492  p :    12.019475
      px      :     4.006492
      py      :     4.006492
      dz2     :     1.993965  d :     9.969826
      dxz     :     1.993965
      dyz     :     1.993965
      dx2y2   :     1.993965
      dxy     :     1.993965
      f0      :     0.002592  f :     0.018141
      f+1     :     0.002592
      f-1     :     0.002592
      f+2     :     0.002592
      f-2     :     0.002592
      f+3     :     0.002592
      f-3     :     0.002592

SPIN
  0 Cus       :     0.989410  s :     0.989410
      pz      :     0.000566  p :     0.001698
      px      :     0.000566
      py      :     0.000566
      dz2     :     0.001810  d :     0.009049
      dxz     :     0.001810
      dyz     :     0.001810
      dx2y2   :     0.001810
      dxy     :     0.001810
      f0      :    -0.000023  f :    -0.000158
      f+1     :    -0.000023
      f-1     :    -0.000023
      f+2     :    -0.000023
      f-2     :    -0.000023
      f+3     :    -0.000023
      f-3     :    -0.000023


                      *****************************
                      * MAYER POPULATION ANALYSIS *
                      *****************************

  NA   - Mulliken gross atomic population
  ZA   - Total nuclear charge
  QA   - Mulliken gross atomic charge
  VA   - Mayer's total valence
  BVA  - Mayer's bonded valence
  FA   - Mayer's free valence

  ATOM       NA         ZA         QA         VA         BVA        FA
  0 Cu    29.0000    29.0000    -0.0000     1.6037     0.0000     1.6037





------------------------------------------------------------------------------- 
                                     TIMINGS                                   
------------------------------------------------------------------------------- 


Total execution time                   ...        5.427 sec

Fock Matrix Formation                  ...        0.081 sec (  1.5%)
Initial Guess                          ...        0.006 sec (  0.1%)
DIIS Solver                            ...        0.124 sec (  2.3%)
State Vector Update                    ...        0.008 sec (  0.1%)
Sigma-vector construction              ...        0.964 sec ( 17.8%)
  <D|H|D>(0-ext Fock)                  ...        0.002 sec (  0.2% of sigma)
  <D|H|D>(0-ext)                       ...        0.004 sec (  0.5% of sigma)
  <D|H|D>(2-ext)                       ...        0.023 sec (  2.4% of sigma)
  <D|H|D>(4-ext)                       ...        0.294 sec ( 30.5% of sigma)
  <S|H|0>                              ...        0.035 sec (  3.7% of sigma)
  <D|H|S>(1-ext)                       ...        0.011 sec (  1.2% of sigma)
  Fock-dressing                        ...        0.256 sec ( 26.5% of sigma)
  (ik|jl)-dressing                     ...        0.008 sec (  0.8% of sigma)
  (ij|ab),(ia|jb)-dressing             ...        0.252 sec ( 26.1% of sigma)
  Pair energies                        ...        0.002 sec (  0.2% of sigma)
Total Time for computing (T)           ...        0.048 sec (  0.9% of ALL)
  I/O of integral and amplitudes       ...        0.012 sec ( 25.0% of (T))
  External N**7 contributions          ...        0.010 sec ( 20.1% of (T))
  Internal N**7 contributions          ...        0.003 sec (  7.1% of (T))
  N**6 triples energy contributions    ...        0.020 sec ( 42.1% of (T))


-------------------------   --------------------
FINAL SINGLE POINT ENERGY     -1639.498202540092
-------------------------   --------------------


                            ***************************************
                            *     ORCA property calculations      *
                            ***************************************

                                    ---------------------
                                    Active property flags
                                    ---------------------
   (+) Dipole Moment


------------------------------------------------------------------------------
                       ORCA ELECTRIC PROPERTIES CALCULATION
------------------------------------------------------------------------------

Dipole Moment Calculation                       ... on
Quadrupole Moment Calculation                   ... off
Polarizability Calculation                      ... off
GBWName                                         ... 29_Cu.gbw
Electron density file                           ... 29_Cu.scfp
The origin for moment calculation is the CENTER OF MASS  = ( 0.000000,  0.000000  0.000000)

-------------
DIPOLE MOMENT
-------------
                                X             Y             Z
Electronic contribution:     -0.00000      -0.00000       0.00000
Nuclear contribution   :      0.00000       0.00000       0.00000
                        -----------------------------------------
Total Dipole Moment    :     -0.00000      -0.00000       0.00000
                        -----------------------------------------
Magnitude (a.u.)       :      0.00000
Magnitude (Debye)      :      0.00000



--------------------
Rotational spectrum 
--------------------
 
Rotational constants in cm-1:     0.000000     0.000000     0.000000 
Rotational constants in MHz :     0.000000     0.000000     0.000000 

 Dipole components along the rotational axes: 
x,y,z [a.u.] :    -0.000000    -0.000000     0.000000 
x,y,z [Debye]:    -0.000000    -0.000000     0.000000 

 

                           *** MDCI DENSITY ***

------------------------------------------------------------------------------
                       ORCA ELECTRIC PROPERTIES CALCULATION
------------------------------------------------------------------------------

Dipole Moment Calculation                       ... on
Quadrupole Moment Calculation                   ... off
Polarizability Calculation                      ... off
GBWName                                         ... 29_Cu.gbw
Electron density file                           ... 29_Cu.mdcip
The origin for moment calculation is the CENTER OF MASS  = ( 0.000000,  0.000000  0.000000)

-------------
DIPOLE MOMENT
-------------
                                X             Y             Z
Electronic contribution:     -0.00000       0.00000       0.00000
Nuclear contribution   :      0.00000       0.00000       0.00000
                        -----------------------------------------
Total Dipole Moment    :     -0.00000       0.00000       0.00000
                        -----------------------------------------
Magnitude (a.u.)       :      0.00000
Magnitude (Debye)      :      0.00000



--------------------
Rotational spectrum 
--------------------
 
Rotational constants in cm-1:     0.000000     0.000000     0.000000 
Rotational constants in MHz :     0.000000     0.000000     0.000000 

 Dipole components along the rotational axes: 
x,y,z [a.u.] :    -0.000000     0.000000     0.000000 
x,y,z [Debye]:    -0.000000     0.000000     0.000000 

 

Timings for individual modules:

Sum of individual times         ...       10.130 sec (=   0.169 min)
GTO integral calculation        ...        0.741 sec (=   0.012 min)   7.3 %
SCF iterations                  ...        3.513 sec (=   0.059 min)  34.7 %
MDCI module                     ...        5.876 sec (=   0.098 min)  58.0 %
                             ****ORCA TERMINATED NORMALLY****
TOTAL RUN TIME: 0 days 0 hours 0 minutes 10 seconds 875 msec
