
                                 *****************
                                 * O   R   C   A *
                                 *****************

           --- An Ab Initio, DFT and Semiempirical electronic structure package ---

                  #######################################################
                  #                        -***-                        #
                  #          Department of theory and spectroscopy      #
                  #               Directorship: Frank Neese             #
                  #        Max Planck Institute fuer Kohlenforschung    #
                  #                Kaiser Wilhelm Platz 1               #
                  #                 D-45470 Muelheim/Ruhr               #
                  #                      Germany                        #
                  #                                                     #
                  #                  All rights reserved                #
                  #                        -***-                        #
                  #######################################################


                         Program Version 4.2.0 -  RELEASE  -


 With contributions from (in alphabetic order):
   Daniel Aravena         : Magnetic Suceptibility
   Michael Atanasov       : Ab Initio Ligand Field Theory (pilot matlab implementation)
   Alexander A. Auer      : GIAO ZORA, VPT2
   Ute Becker             : Parallelization
   Giovanni Bistoni       : ED, misc. LED, open-shell LED, HFLED
   Martin Brehm           : Molecular dynamics
   Dmytro Bykov           : SCF Hessian
   Vijay G. Chilkuri      : MRCI spin determinant printing, contributions to CSF-ICE
   Dipayan Datta          : RHF DLPNO-CCSD density
   Achintya Kumar Dutta   : EOM-CC, STEOM-CC
   Dmitry Ganyushin       : Spin-Orbit,Spin-Spin,Magnetic field MRCI
   Miquel Garcia          : C-PCM Hessian, Gaussian charge scheme
   Yang Guo               : DLPNO-NEVPT2, CIM, IAO-localization
   Andreas Hansen         : Spin unrestricted coupled pair/coupled cluster methods
   Benjamin Helmich-Paris : CASSCF linear response (MC-RPA)
   Lee Huntington         : MR-EOM, pCC
   Robert Izsak           : Overlap fitted RIJCOSX, COSX-SCS-MP3, EOM
   Christian Kollmar      : KDIIS, OOCD, Brueckner-CCSD(T), CCSD density
   Simone Kossmann        : Meta GGA functionals, TD-DFT gradient, OOMP2, MP2 Hessian
   Martin Krupicka        : AUTO-CI
   Lucas Lang             : DCDCAS
   Dagmar Lenk            : GEPOL surface, SMD
   Dimitrios Liakos       : Extrapolation schemes; Compound Job, initial MDCI parallelization
   Dimitrios Manganas     : Further ROCIS development; embedding schemes
   Dimitrios Pantazis     : SARC Basis sets
   Taras Petrenko         : DFT Hessian,TD-DFT gradient, ASA, ECA, R-Raman, ABS, FL, XAS/XES, NRVS
   Peter Pinski           : DLPNO-MP2, DLPNO-MP2 Gradient
   Christoph Reimann      : Effective Core Potentials
   Marius Retegan         : Local ZFS, SOC
   Christoph Riplinger    : Optimizer, TS searches, QM/MM, DLPNO-CCSD(T), (RO)-DLPNO pert. Triples
   Tobias Risthaus        : Range-separated hybrids, TD-DFT gradient, RPA, STAB
   Michael Roemelt        : Original ROCIS implementation
   Masaaki Saitow         : Open-shell DLPNO-CCSD energy and density
   Barbara Sandhoefer     : DKH picture change effects
   Avijit Sen             : IP-ROCIS
   Kantharuban Sivalingam : CASSCF convergence, NEVPT2, FIC-MRCI
   Bernardo de Souza      : ESD, SOC TD-DFT
   Georgi Stoychev        : AutoAux, RI-MP2 NMR
   Willem Van den Heuvel  : Paramagnetic NMR
   Boris Wezisla          : Elementary symmetry handling
   Frank Wennmohs         : Technical directorship


 We gratefully acknowledge several colleagues who have allowed us to
 interface, adapt or use parts of their codes:
   Stefan Grimme, W. Hujo, H. Kruse,             : VdW corrections, initial TS optimization,
                  C. Bannwarth                     DFT functionals, gCP, sTDA/sTD-DF
   Ed Valeev, F. Pavosevic, A. Kumar             : LibInt (2-el integral package), F12 methods
   Garnet Chan, S. Sharma, J. Yang, R. Olivares  : DMRG
   Ulf Ekstrom                                   : XCFun DFT Library
   Mihaly Kallay                                 : mrcc  (arbitrary order and MRCC methods)
   Andreas Klamt, Michael Diedenhofen            : otool_cosmo (COSMO solvation model)
   Jiri Pittner, Ondrej Demel                    : Mk-CCSD
   Frank Weinhold                                : gennbo (NPA and NBO analysis)
   Christopher J. Cramer and Donald G. Truhlar   : smd solvation model
   Lars Goerigk                                  : TD-DFT with DH, B97 family of functionals
   V. Asgeirsson, H. Jonsson                     : NEB implementation
   FAccTs GmbH                                   : IRC, NEB, NEB-TS, Multilevel, MM, QM/MM, CI optimization
   S Lehtola, MJT Oliveira, MAL Marques          : LibXC Library


 Your calculation uses the libint2 library for the computation of 2-el integrals
 For citations please refer to: http://libint.valeyev.net

 Your ORCA version has been built with support for libXC version: 4.2.3
 For citations please refer to: https://tddft.org/programs/libxc/

 This ORCA versions uses:
   CBLAS   interface :  Fast vector & matrix operations
   LAPACKE interface :  Fast linear algebra routines
   SCALAPACK package :  Parallel linear algebra routines


----- Orbital basis set information -----
Your calculation utilizes the basis: def2-TZVP
   F. Weigend and R. Ahlrichs, Phys. Chem. Chem. Phys. 7, 3297 (2005).

================================================================================
                                        WARNINGS
                       Please study these warnings very carefully!
================================================================================


WARNING: your system is open-shell and RHF/RKS was chosen
  ===> : WILL SWITCH to UHF/UKS


WARNING: MDCI localization with Augmented Hessian Foster-Boys
  ===> : Switching off randomization!

WARNING: Post HF methods need fully converged wavefunctions
  ===> : Setting SCFConvForced true
         You can overwrite this default with %scf ConvForced false 


INFO   : the flag for use of LIBINT has been found!

================================================================================
                                       INPUT FILE
================================================================================
NAME = 31_Ga.in
|  1> #
|  2> # 31_Ga CCSD(T)/Def2-TZVP
|  3> #
|  4> ! CCSD(T) Def2-TZVP tightscf
|  5> 
|  6> *xyz 0 2
|  7>  Ga 0.0 0.0 0.0
|  8> *
|  9> 
| 10> %maxcore 5000 
| 11> 
| 12> %pal
| 13> nprocs 24
| 14> end
| 15> 
| 16> 
| 17>                          ****END OF INPUT****
================================================================================

                       ****************************
                       * Single Point Calculation *
                       ****************************

---------------------------------
CARTESIAN COORDINATES (ANGSTROEM)
---------------------------------
  Ga     0.000000    0.000000    0.000000

----------------------------
CARTESIAN COORDINATES (A.U.)
----------------------------
  NO LB      ZA    FRAG     MASS         X           Y           Z
   0 Ga   31.0000    0    69.720    0.000000    0.000000    0.000000

--------------------------------
INTERNAL COORDINATES (ANGSTROEM)
--------------------------------
 Ga     0   0   0     0.000000000000     0.00000000     0.00000000

---------------------------
INTERNAL COORDINATES (A.U.)
---------------------------
 Ga     0   0   0     0.000000000000     0.00000000     0.00000000

---------------------
BASIS SET INFORMATION
---------------------
There are 1 groups of distinct atoms

 Group   1 Type Ga  : 17s12p8d1f contracted to 6s5p4d1f pattern {842111/63111/5111/1}

Atom   0Ga   basis set group =>   1


           ************************************************************
           *        Program running with 24 parallel MPI-processes    *
           *              working on a common directory               *
           ************************************************************
------------------------------------------------------------------------------
                           ORCA GTO INTEGRAL CALCULATION
------------------------------------------------------------------------------

                         BASIS SET STATISTICS AND STARTUP INFO

 # of primitive gaussian shells          ...   38
 # of primitive gaussian functions       ...  100
 # of contracted shells                  ...   16
 # of contracted basis functions         ...   48
 Highest angular momentum                ...    3
 Maximum contraction depth               ...    8
 Integral package used                   ... LIBINT
 Integral threshhold            Thresh   ...  2.500e-11
 Primitive cut-off              TCut     ...  2.500e-12


------------------------------ INTEGRAL EVALUATION ----------------------------


 * One electron integrals 
 Pre-screening matrix                    ... done
 Shell pair data                         ... done (   0.000 sec)



           ************************************************************
           *        Program running with 24 parallel MPI-processes    *
           *              working on a common directory               *
           ************************************************************
-------------------------------------------------------------------------------
                                 ORCA SCF
-------------------------------------------------------------------------------

------------
SCF SETTINGS
------------
Hamiltonian:
 Ab initio Hamiltonian  Method          .... Hartree-Fock(GTOs)


General Settings:
 Integral files         IntName         .... 31_Ga
 Hartree-Fock type      HFTyp           .... UHF
 Total Charge           Charge          ....    0
 Multiplicity           Mult            ....    2
 Number of Electrons    NEL             ....   31
 Basis Dimension        Dim             ....   48
 Nuclear Repulsion      ENuc            ....      0.0000000000 Eh

Convergence Acceleration:
 DIIS                   CNVDIIS         .... on
   Start iteration      DIISMaxIt       ....    12
   Startup error        DIISStart       ....  0.200000
   # of expansion vecs  DIISMaxEq       ....     5
   Bias factor          DIISBfac        ....   1.050
   Max. coefficient     DIISMaxC        ....  10.000
 Newton-Raphson         CNVNR           .... off
 SOSCF                  CNVSOSCF        .... off
 Level Shifting         CNVShift        .... on
   Level shift para.    LevelShift      ....    0.2500
   Turn off err/grad.   ShiftErr        ....    0.0010
 Zerner damping         CNVZerner       .... off
 Static damping         CNVDamp         .... on
   Fraction old density DampFac         ....    0.7000
   Max. Damping (<1)    DampMax         ....    0.9800
   Min. Damping (>=0)   DampMin         ....    0.0000
   Turn off err/grad.   DampErr         ....    0.1000
 Fernandez-Rico         CNVRico         .... off

SCF Procedure:
 Maximum # iterations   MaxIter         ....   125
 SCF integral mode      SCFMode         .... Direct
   Integral package                     .... LIBINT
 Reset frequency        DirectResetFreq ....    20
 Integral Threshold     Thresh          ....  2.500e-11 Eh
 Primitive CutOff       TCut            ....  2.500e-12 Eh

Convergence Tolerance:
 Convergence Check Mode ConvCheckMode   .... Total+1el-Energy
 Convergence forced     ConvForced      .... 1
 Energy Change          TolE            ....  1.000e-08 Eh
 1-El. energy change                    ....  1.000e-05 Eh
 DIIS Error             TolErr          ....  5.000e-07


Diagonalization of the overlap matrix:
Smallest eigenvalue                        ... 4.745e-02
Time for diagonalization                   ...    0.002 sec
Threshold for overlap eigenvalues          ... 1.000e-08
Number of eigenvalues below threshold      ... 0
Time for construction of square roots      ...    0.016 sec
Total time needed                          ...    0.018 sec

-------------------
DFT GRID GENERATION
-------------------

General Integration Accuracy     IntAcc      ...  4.340
Radial Grid Type                 RadialGrid  ... Gauss-Chebyshev
Angular Grid (max. acc.)         AngularGrid ... Lebedev-110
Angular grid pruning method      GridPruning ... 3 (G Style)
Weight generation scheme         WeightScheme... Becke
Basis function cutoff            BFCut       ...    1.0000e-11
Integration weight cutoff        WCut        ...    1.0000e-14
Grids for H and He will be reduced by one unit

# of grid points (after initial pruning)     ...   2972 (   0.0 sec)
# of grid points (after weights+screening)   ...   2972 (   0.0 sec)
Grid point division into batches done        ...    0.0 sec
Reduced shell lists constructed in    0.0 sec

Total number of grid points                  ...     2972
Total number of batches                      ...       47
Average number of points per batch           ...       63
Average number of grid points per atom       ...     2972
Average number of shells per batch           ...     5.33 (33.33%)
Average number of basis functions per batch  ...    20.00 (41.67%)
Average number of large shells per batch     ...     4.67 (87.50%)
Average number of large basis fcns per batch ...    16.67 (83.33%)
Maximum spatial batch extension              ...  17.39, 26.34, 26.34 au
Average spatial batch extension              ...   0.74,  1.12,  1.12 au

Time for grid setup =    0.123 sec

------------------------------
INITIAL GUESS: MODEL POTENTIAL
------------------------------
Loading Hartree-Fock densities                     ... done
Calculating cut-offs                               ... done
Setting up the integral package                    ... done
Initializing the effective Hamiltonian             ... done
Starting the Coulomb interaction                   ... done (   0.0 sec)
Reading the grid                                   ... done
Mapping shells                                     ... done
Starting the XC term evaluation                    ... done (   0.0 sec)
Transforming the Hamiltonian                       ... done (   0.0 sec)
Diagonalizing the Hamiltonian                      ... done (   0.0 sec)
Back transforming the eigenvectors                 ... done (   0.0 sec)
Now organizing SCF variables                       ... done
                      ------------------
                      INITIAL GUESS DONE (   0.2 sec)
                      ------------------
--------------
SCF ITERATIONS
--------------
ITER       Energy         Delta-E        Max-DP      RMS-DP      [F,P]     Damp
               ***  Starting incremental Fock matrix formation  ***
  0  -1923.1559792819   0.000000000000 0.01551520  0.00105387  0.2605317 0.7000
  1  -1923.1799628029  -0.023983520963 0.01903366  0.00071559  0.1424233 0.7000
                               ***Turning on DIIS***
  2  -1923.1931969704  -0.013234167562 0.06631847  0.00194336  0.0773854 0.0000
  3  -1923.5974985826  -0.404301612134 0.02832223  0.00104337  0.0381045 0.0000
  4  -1923.0405687909   0.556929791610 0.01839414  0.00046719  0.0129440 0.0000
  5  -1923.1935330699  -0.152964278924 0.00866572  0.00021023  0.0030062 0.0000
  6  -1923.2212479983  -0.027714928456 0.00492954  0.00011674  0.0007845 0.0000
  7  -1923.2236443007  -0.002396302380 0.00087517  0.00002090  0.0001033 0.0000
  8  -1923.2235396814   0.000104619349 0.00018392  0.00000618  0.0000363 0.0000
  9  -1923.2234289865   0.000110694818 0.00006755  0.00000184  0.0000115 0.0000
 10  -1923.2234907165  -0.000061729950 0.00001167  0.00000027  0.0000018 0.0000
                            ***DIIS convergence achieved***

               *****************************************************
               *                     SUCCESS                       *
               *           SCF CONVERGED AFTER  11 CYCLES          *
               *****************************************************


----------------
TOTAL SCF ENERGY
----------------

Total Energy       :        -1923.22348548 Eh          -52333.57163 eV

Components:
Nuclear Repulsion  :            0.00000000 Eh               0.00000 eV
Electronic Energy  :        -1923.22348548 Eh          -52333.57163 eV
One Electron Energy:        -2684.89348496 Eh          -73059.66601 eV
Two Electron Energy:          761.66999948 Eh           20726.09438 eV

Virial components:
Potential Energy   :        -3846.40935182 Eh         -104666.11959 eV
Kinetic Energy     :         1923.18586635 Eh           52332.54796 eV
Virial Ratio       :            2.00001956


---------------
SCF CONVERGENCE
---------------

  Last Energy change         ...    5.2396e-06  Tolerance :   1.0000e-08
  Last MAX-Density change    ...    8.1382e-06  Tolerance :   1.0000e-07
  Last RMS-Density change    ...    2.1188e-07  Tolerance :   5.0000e-09
  Last DIIS Error            ...    7.5799e-07  Tolerance :   5.0000e-07

             **** THE GBW FILE WAS UPDATED (31_Ga.gbw) ****
             **** DENSITY FILE WAS UPDATED (31_Ga.scfp) ****
             **** ENERGY FILE WAS UPDATED (31_Ga.en.tmp) ****
----------------------
UHF SPIN CONTAMINATION
----------------------

Expectation value of <S**2>     :     0.762990
Ideal value S*(S+1) for S=0.5   :     0.750000
Deviation                       :     0.012990

             **** THE GBW FILE WAS UPDATED (31_Ga.gbw) ****
             **** DENSITY FILE WAS UPDATED (31_Ga.scfp) ****
----------------
ORBITAL ENERGIES
----------------
                 SPIN UP ORBITALS
  NO   OCC          E(Eh)            E(eV) 
   0   1.0000    -378.815536    -10308.0948 
   1   1.0000     -48.166443     -1310.6755 
   2   1.0000     -42.492781     -1156.2873 
   3   1.0000     -42.492629     -1156.2832 
   4   1.0000     -42.492629     -1156.2832 
   5   1.0000      -6.393062      -173.9641 
   6   1.0000      -4.481826      -121.9567 
   7   1.0000      -4.481826      -121.9567 
   8   1.0000      -4.481447      -121.9464 
   9   1.0000      -1.194672       -32.5087 
  10   1.0000      -1.194672       -32.5087 
  11   1.0000      -1.188769       -32.3481 
  12   1.0000      -1.188769       -32.3481 
  13   1.0000      -1.186955       -32.2987 
  14   1.0000      -0.455323       -12.3900 
  15   1.0000      -0.214570        -5.8388 
  16   0.0000       0.029094         0.7917 
  17   0.0000       0.029094         0.7917 
  18   0.0000       0.274135         7.4596 
  19   0.0000       0.276797         7.5320 
  20   0.0000       0.276797         7.5320 
  21   0.0000       0.288939         7.8624 
  22   0.0000       0.288939         7.8624 
  23   0.0000       0.300503         8.1771 
  24   0.0000       0.364526         9.9193 
  25   0.0000       0.390664        10.6305 
  26   0.0000       0.390664        10.6305 
  27   0.0000       0.976184        26.5633 
  28   0.0000       0.976184        26.5633 
  29   0.0000       0.977784        26.6068 
  30   0.0000       0.977784        26.6068 
  31   0.0000       0.978376        26.6230 
  32   0.0000       1.106107        30.0987 
  33   0.0000       1.106107        30.0987 
  34   0.0000       1.111168        30.2364 
  35   0.0000       1.111168        30.2364 
  36   0.0000       1.113999        30.3135 
  37   0.0000       1.113999        30.3135 
  38   0.0000       1.114910        30.3382 
  39   0.0000       2.568977        69.9054 
  40   0.0000       2.568977        69.9054 
  41   0.0000       2.580811        70.2274 
  42   0.0000       2.580811        70.2274 
  43   0.0000       2.584740        70.3343 
  44   0.0000       3.643701        99.1501 
  45   0.0000       3.643701        99.1501 
  46   0.0000       3.646722        99.2323 
  47   0.0000       4.513336       122.8141 

                 SPIN DOWN ORBITALS
  NO   OCC          E(Eh)            E(eV) 
   0   1.0000    -378.814402    -10308.0639 
   1   1.0000     -48.166715     -1310.6829 
   2   1.0000     -42.492891     -1156.2903 
   3   1.0000     -42.492891     -1156.2903 
   4   1.0000     -42.490143     -1156.2156 
   5   1.0000      -6.392023      -173.9358 
   6   1.0000      -4.483044      -121.9898 
   7   1.0000      -4.483044      -121.9898 
   8   1.0000      -4.472479      -121.7023 
   9   1.0000      -1.195630       -32.5347 
  10   1.0000      -1.195630       -32.5347 
  11   1.0000      -1.187352       -32.3095 
  12   1.0000      -1.187352       -32.3095 
  13   1.0000      -1.184774       -32.2393 
  14   1.0000      -0.393212       -10.6998 
  15   0.0000       0.039254         1.0682 
  16   0.0000       0.039254         1.0682 
  17   0.0000       0.077217         2.1012 
  18   0.0000       0.292045         7.9469 
  19   0.0000       0.292045         7.9469 
  20   0.0000       0.307503         8.3676 
  21   0.0000       0.315219         8.5775 
  22   0.0000       0.315219         8.5775 
  23   0.0000       0.334302         9.0968 
  24   0.0000       0.395311        10.7570 
  25   0.0000       0.395311        10.7570 
  26   0.0000       0.429534        11.6882 
  27   0.0000       0.977956        26.6115 
  28   0.0000       0.977956        26.6115 
  29   0.0000       1.005407        27.3585 
  30   0.0000       1.005407        27.3585 
  31   0.0000       1.015436        27.6314 
  32   0.0000       1.106839        30.1186 
  33   0.0000       1.106839        30.1186 
  34   0.0000       1.130884        30.7729 
  35   0.0000       1.130884        30.7729 
  36   0.0000       1.146006        31.1844 
  37   0.0000       1.146006        31.1844 
  38   0.0000       1.151209        31.3260 
  39   0.0000       2.569637        69.9234 
  40   0.0000       2.569637        69.9234 
  41   0.0000       2.590875        70.5013 
  42   0.0000       2.590875        70.5013 
  43   0.0000       2.598089        70.6976 
  44   0.0000       3.644896        99.1827 
  45   0.0000       3.644896        99.1827 
  46   0.0000       3.666394        99.7677 
  47   0.0000       4.518016       122.9415 

                    ********************************
                    * MULLIKEN POPULATION ANALYSIS *
                    ********************************

--------------------------------------------
MULLIKEN ATOMIC CHARGES AND SPIN POPULATIONS
--------------------------------------------
   0 Ga:   -0.000000    1.000000
Sum of atomic charges         :   -0.0000000
Sum of atomic spin populations:    1.0000000

-----------------------------------------------------
MULLIKEN REDUCED ORBITAL CHARGES AND SPIN POPULATIONS
-----------------------------------------------------
CHARGE
  0 Gas       :     7.993642  s :     7.993642
      pz      :     4.000000  p :    12.999985
      px      :     4.000000
      py      :     4.999985
      dz2     :     2.001590  d :    10.006358
      dxz     :     2.000000
      dyz     :     2.000000
      dx2y2   :     2.004769
      dxy     :     2.000000
      f0      :     0.000000  f :     0.000015
      f+1     :     0.000000
      f-1     :     0.000006
      f+2     :     0.000000
      f-2     :     0.000000
      f+3     :     0.000000
      f-3     :     0.000009

SPIN
  0 Gas       :    -0.001553  s :    -0.001553
      pz      :     0.000000  p :     0.999986
      px      :     0.000000
      py      :     0.999986
      dz2     :     0.000388  d :     0.001553
      dxz     :    -0.000000
      dyz     :    -0.000000
      dx2y2   :     0.001165
      dxy     :    -0.000000
      f0      :    -0.000000  f :     0.000014
      f+1     :    -0.000000
      f-1     :     0.000005
      f+2     :    -0.000000
      f-2     :    -0.000000
      f+3     :    -0.000000
      f-3     :     0.000009


                     *******************************
                     * LOEWDIN POPULATION ANALYSIS *
                     *******************************

-------------------------------------------
LOEWDIN ATOMIC CHARGES AND SPIN POPULATIONS
-------------------------------------------
   0 Ga:   -0.000000    1.000000

----------------------------------------------------
LOEWDIN REDUCED ORBITAL CHARGES AND SPIN POPULATIONS
----------------------------------------------------
CHARGE
  0 Gas       :     7.993642  s :     7.993642
      pz      :     4.000000  p :    12.999985
      px      :     4.000000
      py      :     4.999985
      dz2     :     2.001590  d :    10.006358
      dxz     :     2.000000
      dyz     :     2.000000
      dx2y2   :     2.004769
      dxy     :     2.000000
      f0      :     0.000000  f :     0.000015
      f+1     :     0.000000
      f-1     :     0.000006
      f+2     :     0.000000
      f-2     :     0.000000
      f+3     :     0.000000
      f-3     :     0.000009

SPIN
  0 Gas       :    -0.001553  s :    -0.001553
      pz      :     0.000000  p :     0.999986
      px      :     0.000000
      py      :     0.999986
      dz2     :     0.000388  d :     0.001553
      dxz     :    -0.000000
      dyz     :    -0.000000
      dx2y2   :     0.001165
      dxy     :    -0.000000
      f0      :    -0.000000  f :     0.000014
      f+1     :    -0.000000
      f-1     :     0.000005
      f+2     :    -0.000000
      f-2     :    -0.000000
      f+3     :    -0.000000
      f-3     :     0.000009


                      *****************************
                      * MAYER POPULATION ANALYSIS *
                      *****************************

  NA   - Mulliken gross atomic population
  ZA   - Total nuclear charge
  QA   - Mulliken gross atomic charge
  VA   - Mayer's total valence
  BVA  - Mayer's bonded valence
  FA   - Mayer's free valence

  ATOM       NA         ZA         QA         VA         BVA        FA
  0 Ga    31.0000    31.0000    -0.0000     1.0260     0.0000     1.0260

  Mayer bond orders larger than 0.100000


-------
TIMINGS
-------

Total SCF time: 0 days 0 hours 0 min 13 sec 

Total time                  ....      13.124 sec
Sum of individual times     ....      12.611 sec  ( 96.1%)

Fock matrix formation       ....       1.884 sec  ( 14.4%)
Diagonalization             ....       0.055 sec  (  0.4%)
Density matrix formation    ....       0.003 sec  (  0.0%)
Population analysis         ....      10.173 sec  ( 77.5%)
Initial guess               ....       0.125 sec  (  1.0%)
Orbital Transformation      ....       0.000 sec  (  0.0%)
Orbital Orthonormalization  ....       0.000 sec  (  0.0%)
DIIS solution               ....       0.248 sec  (  1.9%)


           ************************************************************
           *        Program running with 24 parallel MPI-processes    *
           *              working on a common directory               *
           ************************************************************


------------------------------------------------------------------------------- 
                              ORCA-MATRIX DRIVEN CI                            
------------------------------------------------------------------------------- 

--------------------------------
AUTOMATIC CHOICE OF INCORE LEVEL
--------------------------------

Memory available                           ...   2500.00 MB
Memory needed for S+T                      ...      0.66 MB
Memory needed for J+K                      ...      1.33 MB
Memory needed for DIIS                     ...      9.19 MB
Memory needed for 3-ext                    ...      1.75 MB
Memory needed for 4-ext                    ...      4.12 MB
Memory needed for triples                  ...      1.25 MB
 -> Final InCoreLevel    ... 5
 -> check shows that triples correction can be computed


Wavefunction type
-----------------
Correlation treatment                      ...      CCSD     
Single excitations                         ... ON
Orbital optimization                       ... OFF
Calculation of Z vector                    ... OFF
Calculation of Brueckner orbitals          ... OFF
Perturbative triple excitations            ... ON
Calculation of F12 correction              ... OFF
Frozen core treatment                      ... chemical core (18 el)
Reference Wavefunction                     ... UHF
  Alpha-MOs occ    :     9 ...   15 (  7 MO's/  7 electrons)
  Beta-MOs occ     :     9 ...   14 (  6 MO's/  6 electrons)
  Alpha-MOs virt   :    16 ...   47 ( 32 MO's              )
  Beta-MOs virt    :    15 ...   47 ( 33 MO's              )
Number of AO's                             ...     48
Number of electrons                        ...     31
Number of correlated electrons             ...     13

Algorithmic settings
--------------------
Integral transformation                    ... AO direct full transformation
K(C) Formation                             ... FULL-MO TRAFO
Maximum number of iterations               ...        50
Convergence tolerance (max. residuum)      ... 1.000e-05
Level shift for amplitude update           ... 2.000e-01
Maximum number of DIIS vectors             ...         7
DIIS turned on at iteration                ...         0
Damping before turning on DIIS             ...     0.500
Damping after turning on DIIS              ...     0.000
Pair specific amplitude update             ... OFF
Natural orbital iterations                 ... OFF
Perturbative natural orbital generation    ... OFF
Printlevel                                 ... 2

Memory handling:
----------------
Maximum memory for working arrays          ...   2500 MB
Data storage in matrix containers          ... UNCOMPRESSED
Data type for integral storage             ... DOUBLE
In-Core Storage of quantities:
   Amplitudes+Sigma Vector      ... YES
   J+K operators                ... YES
   DIIS vectors                 ... YES
   3-external integrals         ... YES
   4-external integrals         ... YES


Initializing the integral package          ... done
Warning: reference  - re-canonicalizations have been set to INT 1 VIRT 1

--------------------------
UNRESTRICTED FOCK OPERATOR
--------------------------

<ss|ss>:          231 b            0 skpd (  0.0%)    0.000 s ( 0.002 ms/b)
<ss|sp>:          630 b            0 skpd (  0.0%)    0.001 s ( 0.001 ms/b)
<ss|sd>:          504 b            0 skpd (  0.0%)    0.001 s ( 0.002 ms/b)
<ss|sf>:          126 b            0 skpd (  0.0%)    0.000 s ( 0.001 ms/b)
<ss|pp>:          315 b            0 skpd (  0.0%)    0.001 s ( 0.002 ms/b)
<ss|pd>:          420 b            0 skpd (  0.0%)    0.001 s ( 0.002 ms/b)
<ss|pf>:          105 b            0 skpd (  0.0%)    0.000 s ( 0.002 ms/b)
<ss|dd>:          210 b            0 skpd (  0.0%)    0.001 s ( 0.004 ms/b)
<ss|df>:           84 b            0 skpd (  0.0%)    0.000 s ( 0.004 ms/b)
<ss|ff>:           21 b            0 skpd (  0.0%)    0.000 s ( 0.006 ms/b)
<sp|sp>:          465 b            0 skpd (  0.0%)    0.001 s ( 0.001 ms/b)
<sp|sd>:          720 b            0 skpd (  0.0%)    0.001 s ( 0.001 ms/b)
<sp|sf>:          180 b            0 skpd (  0.0%)    0.000 s ( 0.002 ms/b)
<sp|pp>:          450 b            0 skpd (  0.0%)    0.001 s ( 0.002 ms/b)
<sp|pd>:          600 b            0 skpd (  0.0%)    0.001 s ( 0.002 ms/b)
<sp|pf>:          150 b            0 skpd (  0.0%)    0.001 s ( 0.003 ms/b)
<sp|dd>:          300 b            0 skpd (  0.0%)    0.002 s ( 0.007 ms/b)
<sp|df>:          120 b            0 skpd (  0.0%)    0.001 s ( 0.006 ms/b)
<sp|ff>:           30 b            0 skpd (  0.0%)    0.000 s ( 0.012 ms/b)
<sd|sd>:          300 b            0 skpd (  0.0%)    0.001 s ( 0.002 ms/b)
<sd|sf>:          144 b            0 skpd (  0.0%)    0.000 s ( 0.003 ms/b)
<sd|pp>:          360 b            0 skpd (  0.0%)    0.001 s ( 0.004 ms/b)
<sd|pd>:          480 b            1 skpd (  0.2%)    0.002 s ( 0.004 ms/b)
<sd|pf>:          120 b            3 skpd (  2.5%)    0.001 s ( 0.005 ms/b)
<sd|dd>:          240 b            0 skpd (  0.0%)    0.003 s ( 0.013 ms/b)
<sd|df>:           96 b            0 skpd (  0.0%)    0.001 s ( 0.014 ms/b)
<sd|ff>:           24 b            0 skpd (  0.0%)    0.001 s ( 0.027 ms/b)
<sf|sf>:           21 b            1 skpd (  4.8%)    0.000 s ( 0.003 ms/b)
<sf|pp>:           90 b            0 skpd (  0.0%)    0.000 s ( 0.004 ms/b)
<sf|pd>:          120 b            3 skpd (  2.5%)    0.001 s ( 0.005 ms/b)
<sf|pf>:           30 b            2 skpd (  6.7%)    0.000 s ( 0.005 ms/b)
<sf|dd>:           60 b            0 skpd (  0.0%)    0.001 s ( 0.015 ms/b)
<sf|df>:           24 b            0 skpd (  0.0%)    0.000 s ( 0.018 ms/b)
<sf|ff>:            6 b            1 skpd ( 16.7%)    0.000 s ( 0.031 ms/b)
<pp|pp>:          120 b            0 skpd (  0.0%)    0.001 s ( 0.009 ms/b)
<pp|pd>:          300 b            0 skpd (  0.0%)    0.002 s ( 0.005 ms/b)
<pp|pf>:           75 b            0 skpd (  0.0%)    0.001 s ( 0.008 ms/b)
<pp|dd>:          150 b            0 skpd (  0.0%)    0.002 s ( 0.016 ms/b)
<pp|df>:           60 b            0 skpd (  0.0%)    0.001 s ( 0.017 ms/b)
<pp|ff>:           15 b            0 skpd (  0.0%)    0.001 s ( 0.034 ms/b)
<pd|pd>:          210 b            0 skpd (  0.0%)    0.003 s ( 0.013 ms/b)
<pd|pf>:          100 b            0 skpd (  0.0%)    0.002 s ( 0.019 ms/b)
<pd|dd>:          200 b            0 skpd (  0.0%)    0.005 s ( 0.027 ms/b)
<pd|df>:           80 b            0 skpd (  0.0%)    0.002 s ( 0.031 ms/b)
<pd|ff>:           20 b            0 skpd (  0.0%)    0.001 s ( 0.066 ms/b)
<pf|pf>:           15 b            0 skpd (  0.0%)    0.000 s ( 0.018 ms/b)
<pf|dd>:           50 b            0 skpd (  0.0%)    0.001 s ( 0.027 ms/b)
<pf|df>:           20 b            0 skpd (  0.0%)    0.001 s ( 0.038 ms/b)
<pf|ff>:            5 b            0 skpd (  0.0%)    0.000 s ( 0.086 ms/b)
<dd|dd>:           55 b            0 skpd (  0.0%)    0.005 s ( 0.094 ms/b)
<dd|df>:           40 b            0 skpd (  0.0%)    0.002 s ( 0.060 ms/b)
<dd|ff>:           10 b            0 skpd (  0.0%)    0.001 s ( 0.127 ms/b)
<df|df>:           10 b            0 skpd (  0.0%)    0.001 s ( 0.054 ms/b)
<df|ff>:            4 b            0 skpd (  0.0%)    0.001 s ( 0.159 ms/b)
<ff|ff>:            1 b            0 skpd (  0.0%)    0.000 s ( 0.260 ms/b)
Recanonicalizing the internal orbitals
Recanonicalizing the virtual orbitals
Time needed for Fock operator              ...            0.200 sec
Reference energy                           ...  -1923.223491206
Warning: for UHF the TrafoType has to be JK
Warning: for UHF the K(C)-option cannot be MO but must be AOX

-------------------------------
PARTIAL EXCHANGE TRANSFORMATION
-------------------------------

Transformation type                        ... two-operators
Generation of integrals (i,mue|j,nue)      ... ON
Generation of integrals (mue,kappa|nue,tau)... ON
Generation of integrals (i,mue|a,nue)      ... ON
Dimension of the basis                     ...   48
Number of internal alpha-MOs               ...    7 (   9-  15)
Number of internal beta-MOs                ...    6 (   9-  14)
Number of external alpha-MOs               ...   32 (  16-  47)
Number of external beta-MOs                ...   33 (  15-  47)
Pair cutoff                                ... 0.000e+00 Eh
Number of AO pairs in the trafo            ... 1176
Total Number of distinct AO pairs          ... 1176
Memory devoted for trafo                   ... 2500.0 MB 
Max. Number of MO pairs treated together   ... 142222      
Number Format for Storage                  ... Double (8 Byte)
Integral package used                      ... LIBINT

Starting integral evaluation:
    ... done with AO integral generation
Closing buffer AOK[aa] ( 0.00 GB; CompressionRatio= 0.00)
Closing buffer AOK[bb] ( 0.00 GB; CompressionRatio= 0.00)
Closing buffer AOK[ab] ( 0.00 GB; CompressionRatio= 0.00)
Closing buffer AOK[ba] ( 0.00 GB; CompressionRatio= 0.00)
Collecting buffer AOK 
Closing buffer IAAO1[aa] ( 0.00 GB; CompressionRatio= 0.00)
Closing buffer IAAO1[bb] ( 0.00 GB; CompressionRatio= 0.00)
Closing buffer IAAO1[ab] ( 0.00 GB; CompressionRatio= 0.00)
Closing buffer IAAO1[ba] ( 0.00 GB; CompressionRatio= 0.00)
Closing buffer IAAO2[aa] ( 0.00 GB; CompressionRatio= 0.00)
Closing buffer IAAO2[bb] ( 0.00 GB; CompressionRatio= 0.00)
Closing buffer IAAO2[ab] ( 0.00 GB; CompressionRatio= 0.00)
Closing buffer IAAO2[ba] ( 0.00 GB; CompressionRatio= 0.00)
Collecting buffer IAAO 
Closing buffer PRQS    ( 0.00 GB; CompressionRatio= 0.00)
Collecting buffer PRQS 
Number of alpha/alpha MO pairs in trafo    ...   28
Number of beta /beta  MO pairs in trafo    ...   21
Number of alpha/ beta MO pairs in trafo    ...   42
------------------------
SORTING OF (i,mue|j,nue)
------------------------

SORTING OF ALPHA/ALPHA PAIRS
IBATCH = 1 of  1
Closing buffer KAO[aa] ( 0.00 GB; CompressionRatio= 1.00)
Collecting buffer KAO 
SORTING OF BETA /BETA  PAIRS
IBATCH = 1 of  1
Closing buffer KAO[bb] ( 0.00 GB; CompressionRatio= 1.00)
Collecting buffer KAO 
SORTING OF ALPHA/BETA  PAIRS
IBATCH = 1 of  1
Closing buffer KAO[ab] ( 0.00 GB; CompressionRatio= 0.999349381913)
Collecting buffer KAO[ab] 
------------------------
SORTING OF (i,mue|a,nue)
------------------------

Number of alpha/alpha (i,a) pairs in trafo  ...  224
Number of beta /beta  (i,a) pairs in trafo  ...  198
Number of alpha/ beta (i,a) pairs in trafo  ...  231
Number of beta /alpha (i,a) pairs in trafo  ...  192
Setting up the alpha/alpha list             ... done
Setting up the beta /beta  list             ... done
Setting up the alpha/beta  list             ... done
Setting up the beta /alpha list             ... done
    ... Now sorting (i,mue|a,nue)integrals
    ... Integrals (i,b|a,c) will be made on the fly
SORTING OF ALPHA/ALPHA PAIRS
IBATCH = 1 of  1
Closing buffer IPAQ[aa]  0.00 GB; CompressionRatio= 1.00)
SORTING OF BETA /BETA  PAIRS
IBATCH = 1 of  1
Closing buffer IPAQ[bb]( 0.00 GB; CompressionRatio= 1.00)
SORTING OF ALPHA/BETA  PAIRS (NMatSort_ab=10)
IBATCH = 1 of  1
Closing buffer IPAQ[ab]( 0.00 GB; CompressionRatio= 1.00)
SORTING OF BETA/ALPHA  PAIRS
IBATCH = 1 of  1
Closing buffer IPAQ[ba]( 0.00 GB; CompressionRatio= 1.00)
N(AO-Batches) Done                         ...         0 
N(AO-Batches) Skipped                      ...         0 
N(IJ)-pairs Skipped                        ...         0 
TOTAL TIME for half transformation         ...     2.446 sec
AO-integral generation                     ...     0.000 sec
Half transformation                        ...     0.000 sec
K-integral sorting                         ...     0.717 sec
<ss|**>: 
------------------------------
PARTIAL COULOMB TRANSFORMATION
------------------------------

Transformation type                        ... two-operators
Dimension of the basis                     ...   48
Number of internal alpha-MOs               ...    7 (9-15)
Number of internal beta-MOs                ...    6 (9-14)
Pair cutoff                                ... 0.000e+00 Eh
Number of AO pairs included in the trafo   ... 1176
Total Number of distinct AO pairs          ... 1176
Memory devoted for trafo                   ... 2500.0 MB 
Max. Number of MO pairs treated together   ... 278639      
Max. Number of MOs treated per batch       ... 5804      
Number Format for Storage                  ... Double (8 Byte)
AO-integral source                         ... DIRECT
Integral package used                      ... LIBINT

Starting integral evaluation:
        2856 b        0 skpd     0.004 s (  0.001 ms/b)
<sp|**>:         4080 b        0 skpd     0.018 s (  0.004 ms/b)
<sd|**>:         3264 b        0 skpd     0.018 s (  0.006 ms/b)
<sf|**>:          816 b        0 skpd     0.012 s (  0.015 ms/b)
<pp|**>:         2040 b        0 skpd     0.019 s (  0.009 ms/b)
<pd|**>:         2720 b        0 skpd     0.052 s (  0.019 ms/b)
<pf|**>:          680 b        0 skpd     0.032 s (  0.047 ms/b)
<dd|**>:         1360 b        0 skpd     0.037 s (  0.028 ms/b)
<df|**>:          544 b        0 skpd     0.039 s (  0.072 ms/b)
<ff|**>:          136 b        0 skpd     0.020 s (  0.144 ms/b)
Closing buffer AOJ[aa] ( 0.00 GB; CompressionRatio= 0.95)
Closing buffer AOJ[bb] ( 0.00 GB; CompressionRatio= 0.00)
Collecting buffer AOJ 
    ... done with AO integral generation
Number of Alpha-MO pairs included          ...   28
Number of Beta-MO pairs included           ...   21
    ... Now sorting integrals
SORTING ALPHA/ALPHA PAIRS
IBATCH = 1 of  1
Closing buffer JAO[aa] ( 0.00 GB; CompressionRatio= 1.00)
SORTING BETA/BETA PAIRS
IBATCH = 1 of  1
Closing buffer JAO[bb] ( 0.00 GB; CompressionRatio= 1.00)
Collecting buffer JAO 
TOTAL TIME for half transformation         ...     0.416 sec
AO-integral generation                     ...     0.153 sec
Half transformation                        ...     0.100 sec
J-integral sorting                         ...     0.087 sec

-------------------------- SECOND HALF TRANSFORMATION -------------------------
Formation of (ij|kl),(ij|ka), (ij|ab)      ... ok (     0.219 sec)
Formation of (ik|jl),(ik|ja), (ia|jb)      ... ok (     0.565 sec)


-----------------------
SPIN UNRESTRICTED GUESS
-----------------------

Entering MDCI_UHF_Guess, Tailored=0
Spin-components of the MP2 energy:
EMP2(aa)=     -0.029934252
EMP2(bb)=     -0.024766931
EMP2(ab)=     -0.122361367

Initial guess performed in     0.004 sec
E(0)                                       ...  -1923.223491206
E(MP2)                                     ...     -0.177062550
Initial E(tot)                             ...  -1923.400553756
<T|T>                                      ...      0.052342630
Number of pairs included                   ... 78

------------------------------------------------
                  UHF COUPLED CLUSTER ITERATIONS
------------------------------------------------

Number of amplitudes to be optimized       ...        63475

Iter       E(tot)           E(Corr)          Delta-E          Residual     Time      <S|S>**1/2
  0  -1923.400553756     -0.177062550     -0.000000000      0.025564223    0.14      0.000000503
                           *** Turning on DIIS ***
  1  -1923.392949005     -0.169457799      0.007604751      0.007504348    0.10      0.035845498
  2  -1923.400627421     -0.177136215     -0.007678416      0.004627053    0.11      0.038013601
  3  -1923.403685057     -0.180193851     -0.003057636      0.001640320    0.10      0.045850503
  4  -1923.404356724     -0.180865519     -0.000671668      0.000443471    0.10      0.047774276
  5  -1923.404430687     -0.180939481     -0.000073963      0.000161717    0.10      0.048180057
  6  -1923.404449734     -0.180958528     -0.000019047      0.000038866    0.10      0.048224343
  7  -1923.404450846     -0.180959640     -0.000001112      0.000012984    0.10      0.048207012
  8  -1923.404450716     -0.180959510      0.000000130      0.000004343    0.10      0.048200489
               --- The Coupled-Cluster iterations have converged ---

----------------------
COUPLED CLUSTER ENERGY
----------------------

E(0)                                       ...  -1923.223491206
E(CORR)                                    ...     -0.180959510
E(TOT)                                     ...  -1923.404450716
Singles norm <S|S>**1/2                    ...      0.048200489 ( 0.029985648, 0.018214841)  
T1 diagnostic                              ...      0.013368410                              

------------------
LARGEST AMPLITUDES
------------------
  14a-> 16a  14b-> 15b       0.076491
  14a-> 17a  14b-> 16b       0.076491
  15a-> 18a  14b-> 17b       0.060158
  14a-> 16a  14b-> 25b       0.048928
  14a-> 17a  14b-> 24b       0.048928
  14a-> 16a  14b-> 16b       0.043859
  14a-> 17a  14b-> 15b       0.043859
  14a-> 25a  14b-> 15b       0.043478
  14a-> 26a  14b-> 16b       0.043478
  15a-> 19a  14b-> 16b       0.042031
  15a-> 20a  14b-> 15b       0.042031
  14a-> 25a  14b-> 25b       0.032873
  14a-> 26a  14b-> 24b       0.032873
  15a-> 19a  14b-> 15b       0.032196
  15a-> 20a  14b-> 16b       0.032196
  15a-> 24a  14b-> 20b       0.031754

----------------------
UHF TRIPLES CORRECTION (Algorithm 1)
----------------------

Multiplier for the singles contribution    ...      1.000000000

SPIN-CASE Alpha-Alpha-Alpha:
10% done
20% done
30% done
40% done
50% done
60% done
70% done
80% done
90% done


SPIN-CASE Beta-Beta-Beta:
10% done
20% done
30% done
40% done
50% done
60% done
70% done
80% done
90% done


SPIN-CASE Alpha-Alpha-Beta:
10% done
20% done
30% done
40% done
50% done
60% done
70% done
80% done
90% done


SPIN-CASE Beta-Beta-Alpha:
10% done
20% done
30% done
40% done
50% done
60% done
70% done
80% done
90% done


Triples Correction (T)                     ...     -0.007414481
    alpha-alpha-alpha ... -0.000341628 (  4.6%)
    alpha-alpha-beta  ... -0.003926493 ( 53.0%)
    alpha-beta -beta  ... -0.002899677 ( 39.1%)
    beta -beta -beta  ... -0.000246683 (  3.3%)
Scaling of triples based on CCSD energies (Peterson et al. Molecular Physics 113, 1551 (2015))
E(T*) = f*E(T) where f = E(F12-CCSD)/E(CCSD) 
f = CCSD (with F12)/ CCSD (without F12)    ...      1.000000000
Scaled triples correction (T)              ...     -0.007414481

Final correlation energy                   ...     -0.188373991
E(CCSD)                                    ...  -1923.404450716
E(CCSD(T))                                 ...  -1923.411865197



        !!!!!!!!!!!!!!!!!!!!!!!!!!!!!!!!!!!!!!!!!!!!!!!!!!!!!!!!!!!!!!!!!!!!!!!!!! 
        !  Warning: Densities are linearized densities                           !
        !!!!!!!!!!!!!!!!!!!!!!!!!!!!!!!!!!!!!!!!!!!!!!!!!!!!!!!!!!!!!!!!!!!!!!!!!! 

NORM  =      1.083071424 sqrt=     1.040707175
W(HF) =      0.923300143
------------------------------------------------------------------------------
                           ORCA POPULATION ANALYSIS
------------------------------------------------------------------------------
Input electron density              ... 31_Ga.mdcip
Input spin density                  ... 31_Ga.mdcir
BaseName (.gbw .S,...)              ... 31_Ga

                    ********************************
                    * MULLIKEN POPULATION ANALYSIS *
                    ********************************

------------------------------------------
MULLIKEN ATOMIC CHARGES AND SPIN DENSITIES
------------------------------------------
   0 Ga:   -0.000000    1.000000
Sum of atomic charges       :   -0.0000000
Sum of atomic spin densities:    1.0000000

---------------------------------------------------
MULLIKEN REDUCED ORBITAL CHARGES AND SPIN DENSITIES
---------------------------------------------------
CHARGE
  0 Gas       :     7.912786  s :     7.912786
      pz      :     4.038301  p :    13.068832
      px      :     4.038301
      py      :     4.992229
      dz2     :     2.000383  d :    10.014020
      dxz     :     1.998010
      dyz     :     2.005249
      dx2y2   :     2.005128
      dxy     :     2.005249
      f0      :     0.000581  f :     0.004362
      f+1     :     0.000524
      f-1     :     0.000654
      f+2     :     0.000626
      f-2     :     0.000612
      f+3     :     0.000683
      f-3     :     0.000682

SPIN
  0 Gas       :     0.017028  s :     0.017028
      pz      :    -0.001764  p :     0.969861
      px      :    -0.001764
      py      :     0.973389
      dz2     :     0.001244  d :     0.012505
      dxz     :    -0.000035
      dyz     :     0.003747
      dx2y2   :     0.003803
      dxy     :     0.003747
      f0      :     0.000053  f :     0.000606
      f+1     :     0.000008
      f-1     :     0.000112
      f+2     :     0.000088
      f-2     :     0.000079
      f+3     :     0.000133
      f-3     :     0.000133


                     *******************************
                     * LOEWDIN POPULATION ANALYSIS *
                     *******************************

-----------------------------------------
LOEWDIN ATOMIC CHARGES AND SPIN DENSITIES
-----------------------------------------
   0 Ga:   -0.000000    1.000000

--------------------------------------------------
LOEWDIN REDUCED ORBITAL CHARGES AND SPIN DENSITIES
--------------------------------------------------
CHARGE
  0 Gas       :     7.912786  s :     7.912786
      pz      :     4.038301  p :    13.068832
      px      :     4.038301
      py      :     4.992229
      dz2     :     2.000383  d :    10.014020
      dxz     :     1.998010
      dyz     :     2.005249
      dx2y2   :     2.005128
      dxy     :     2.005249
      f0      :     0.000581  f :     0.004362
      f+1     :     0.000524
      f-1     :     0.000654
      f+2     :     0.000626
      f-2     :     0.000612
      f+3     :     0.000683
      f-3     :     0.000682

SPIN
  0 Gas       :     0.017028  s :     0.017028
      pz      :    -0.001764  p :     0.969861
      px      :    -0.001764
      py      :     0.973389
      dz2     :     0.001244  d :     0.012505
      dxz     :    -0.000035
      dyz     :     0.003747
      dx2y2   :     0.003803
      dxy     :     0.003747
      f0      :     0.000053  f :     0.000606
      f+1     :     0.000008
      f-1     :     0.000112
      f+2     :     0.000088
      f-2     :     0.000079
      f+3     :     0.000133
      f-3     :     0.000133


                      *****************************
                      * MAYER POPULATION ANALYSIS *
                      *****************************

  NA   - Mulliken gross atomic population
  ZA   - Total nuclear charge
  QA   - Mulliken gross atomic charge
  VA   - Mayer's total valence
  BVA  - Mayer's bonded valence
  FA   - Mayer's free valence

  ATOM       NA         ZA         QA         VA         BVA        FA
  0 Ga    31.0000    31.0000    -0.0000     1.5669     0.0000     1.5669





------------------------------------------------------------------------------- 
                                     TIMINGS                                   
------------------------------------------------------------------------------- 


Total execution time                   ...        5.843 sec

Fock Matrix Formation                  ...        0.200 sec (  3.4%)
Initial Guess                          ...        0.004 sec (  0.1%)
DIIS Solver                            ...        0.050 sec (  0.9%)
State Vector Update                    ...        0.003 sec (  0.1%)
Sigma-vector construction              ...        0.898 sec ( 15.4%)
  <D|H|D>(0-ext)                       ...        0.001 sec (  0.2% of sigma)
  <D|H|D>(2-ext Fock)                  ...        0.002 sec (  0.2% of sigma)
  <D|H|D>(2-ext)                       ...        0.007 sec (  0.8% of sigma)
  <D|H|D>(4-ext)                       ...        0.304 sec ( 33.9% of sigma)
  <S|H|0>                              ...        0.014 sec (  1.5% of sigma)
  <D|H|S>(1-ext)                       ...        0.005 sec (  0.6% of sigma)
  Fock-dressing                        ...        0.372 sec ( 41.5% of sigma)
  (ik|jl)-dressing                     ...        0.002 sec (  0.2% of sigma)
  (ij|ab),(ia|jb)-dressing             ...        0.133 sec ( 14.8% of sigma)
Total Time for computing (T)           ...        0.024 sec (  0.4% of ALL)
  I/O of integral and amplitudes       ...        0.008 sec ( 32.1% of (T))
  External N**7 contributions          ...        0.004 sec ( 17.6% of (T))
  Internal N**7 contributions          ...        0.001 sec (  5.7% of (T))
  N**6 triples energy contributions    ...        0.009 sec ( 38.7% of (T))


-------------------------   --------------------
FINAL SINGLE POINT ENERGY     -1923.411865197006
-------------------------   --------------------


                            ***************************************
                            *     ORCA property calculations      *
                            ***************************************

                                    ---------------------
                                    Active property flags
                                    ---------------------
   (+) Dipole Moment


------------------------------------------------------------------------------
                       ORCA ELECTRIC PROPERTIES CALCULATION
------------------------------------------------------------------------------

Dipole Moment Calculation                       ... on
Quadrupole Moment Calculation                   ... off
Polarizability Calculation                      ... off
GBWName                                         ... 31_Ga.gbw
Electron density file                           ... 31_Ga.scfp
The origin for moment calculation is the CENTER OF MASS  = ( 0.000000,  0.000000  0.000000)

-------------
DIPOLE MOMENT
-------------
                                X             Y             Z
Electronic contribution:     -0.00000       0.00000      -0.00000
Nuclear contribution   :      0.00000       0.00000       0.00000
                        -----------------------------------------
Total Dipole Moment    :     -0.00000       0.00000      -0.00000
                        -----------------------------------------
Magnitude (a.u.)       :      0.00000
Magnitude (Debye)      :      0.00000



--------------------
Rotational spectrum 
--------------------
 
Rotational constants in cm-1:     0.000000     0.000000     0.000000 
Rotational constants in MHz :     0.000000     0.000000     0.000000 

 Dipole components along the rotational axes: 
x,y,z [a.u.] :    -0.000000     0.000000    -0.000000 
x,y,z [Debye]:    -0.000000     0.000000    -0.000000 

 

                           *** MDCI DENSITY ***

------------------------------------------------------------------------------
                       ORCA ELECTRIC PROPERTIES CALCULATION
------------------------------------------------------------------------------

Dipole Moment Calculation                       ... on
Quadrupole Moment Calculation                   ... off
Polarizability Calculation                      ... off
GBWName                                         ... 31_Ga.gbw
Electron density file                           ... 31_Ga.mdcip
The origin for moment calculation is the CENTER OF MASS  = ( 0.000000,  0.000000  0.000000)

-------------
DIPOLE MOMENT
-------------
                                X             Y             Z
Electronic contribution:     -0.00000      -0.00000       0.00000
Nuclear contribution   :      0.00000       0.00000       0.00000
                        -----------------------------------------
Total Dipole Moment    :     -0.00000      -0.00000       0.00000
                        -----------------------------------------
Magnitude (a.u.)       :      0.00000
Magnitude (Debye)      :      0.00000



--------------------
Rotational spectrum 
--------------------
 
Rotational constants in cm-1:     0.000000     0.000000     0.000000 
Rotational constants in MHz :     0.000000     0.000000     0.000000 

 Dipole components along the rotational axes: 
x,y,z [a.u.] :    -0.000000    -0.000000     0.000000 
x,y,z [Debye]:    -0.000000    -0.000000     0.000000 

 

Timings for individual modules:

Sum of individual times         ...       20.999 sec (=   0.350 min)
GTO integral calculation        ...        0.941 sec (=   0.016 min)   4.5 %
SCF iterations                  ...       13.507 sec (=   0.225 min)  64.3 %
MDCI module                     ...        6.550 sec (=   0.109 min)  31.2 %
                             ****ORCA TERMINATED NORMALLY****
TOTAL RUN TIME: 0 days 0 hours 0 minutes 21 seconds 761 msec
