
                                 *****************
                                 * O   R   C   A *
                                 *****************

           --- An Ab Initio, DFT and Semiempirical electronic structure package ---

                  #######################################################
                  #                        -***-                        #
                  #          Department of theory and spectroscopy      #
                  #               Directorship: Frank Neese             #
                  #        Max Planck Institute fuer Kohlenforschung    #
                  #                Kaiser Wilhelm Platz 1               #
                  #                 D-45470 Muelheim/Ruhr               #
                  #                      Germany                        #
                  #                                                     #
                  #                  All rights reserved                #
                  #                        -***-                        #
                  #######################################################


                         Program Version 4.2.0 -  RELEASE  -


 With contributions from (in alphabetic order):
   Daniel Aravena         : Magnetic Suceptibility
   Michael Atanasov       : Ab Initio Ligand Field Theory (pilot matlab implementation)
   Alexander A. Auer      : GIAO ZORA, VPT2
   Ute Becker             : Parallelization
   Giovanni Bistoni       : ED, misc. LED, open-shell LED, HFLED
   Martin Brehm           : Molecular dynamics
   Dmytro Bykov           : SCF Hessian
   Vijay G. Chilkuri      : MRCI spin determinant printing, contributions to CSF-ICE
   Dipayan Datta          : RHF DLPNO-CCSD density
   Achintya Kumar Dutta   : EOM-CC, STEOM-CC
   Dmitry Ganyushin       : Spin-Orbit,Spin-Spin,Magnetic field MRCI
   Miquel Garcia          : C-PCM Hessian, Gaussian charge scheme
   Yang Guo               : DLPNO-NEVPT2, CIM, IAO-localization
   Andreas Hansen         : Spin unrestricted coupled pair/coupled cluster methods
   Benjamin Helmich-Paris : CASSCF linear response (MC-RPA)
   Lee Huntington         : MR-EOM, pCC
   Robert Izsak           : Overlap fitted RIJCOSX, COSX-SCS-MP3, EOM
   Christian Kollmar      : KDIIS, OOCD, Brueckner-CCSD(T), CCSD density
   Simone Kossmann        : Meta GGA functionals, TD-DFT gradient, OOMP2, MP2 Hessian
   Martin Krupicka        : AUTO-CI
   Lucas Lang             : DCDCAS
   Dagmar Lenk            : GEPOL surface, SMD
   Dimitrios Liakos       : Extrapolation schemes; Compound Job, initial MDCI parallelization
   Dimitrios Manganas     : Further ROCIS development; embedding schemes
   Dimitrios Pantazis     : SARC Basis sets
   Taras Petrenko         : DFT Hessian,TD-DFT gradient, ASA, ECA, R-Raman, ABS, FL, XAS/XES, NRVS
   Peter Pinski           : DLPNO-MP2, DLPNO-MP2 Gradient
   Christoph Reimann      : Effective Core Potentials
   Marius Retegan         : Local ZFS, SOC
   Christoph Riplinger    : Optimizer, TS searches, QM/MM, DLPNO-CCSD(T), (RO)-DLPNO pert. Triples
   Tobias Risthaus        : Range-separated hybrids, TD-DFT gradient, RPA, STAB
   Michael Roemelt        : Original ROCIS implementation
   Masaaki Saitow         : Open-shell DLPNO-CCSD energy and density
   Barbara Sandhoefer     : DKH picture change effects
   Avijit Sen             : IP-ROCIS
   Kantharuban Sivalingam : CASSCF convergence, NEVPT2, FIC-MRCI
   Bernardo de Souza      : ESD, SOC TD-DFT
   Georgi Stoychev        : AutoAux, RI-MP2 NMR
   Willem Van den Heuvel  : Paramagnetic NMR
   Boris Wezisla          : Elementary symmetry handling
   Frank Wennmohs         : Technical directorship


 We gratefully acknowledge several colleagues who have allowed us to
 interface, adapt or use parts of their codes:
   Stefan Grimme, W. Hujo, H. Kruse,             : VdW corrections, initial TS optimization,
                  C. Bannwarth                     DFT functionals, gCP, sTDA/sTD-DF
   Ed Valeev, F. Pavosevic, A. Kumar             : LibInt (2-el integral package), F12 methods
   Garnet Chan, S. Sharma, J. Yang, R. Olivares  : DMRG
   Ulf Ekstrom                                   : XCFun DFT Library
   Mihaly Kallay                                 : mrcc  (arbitrary order and MRCC methods)
   Andreas Klamt, Michael Diedenhofen            : otool_cosmo (COSMO solvation model)
   Jiri Pittner, Ondrej Demel                    : Mk-CCSD
   Frank Weinhold                                : gennbo (NPA and NBO analysis)
   Christopher J. Cramer and Donald G. Truhlar   : smd solvation model
   Lars Goerigk                                  : TD-DFT with DH, B97 family of functionals
   V. Asgeirsson, H. Jonsson                     : NEB implementation
   FAccTs GmbH                                   : IRC, NEB, NEB-TS, Multilevel, MM, QM/MM, CI optimization
   S Lehtola, MJT Oliveira, MAL Marques          : LibXC Library


 Your calculation uses the libint2 library for the computation of 2-el integrals
 For citations please refer to: http://libint.valeyev.net

 Your ORCA version has been built with support for libXC version: 4.2.3
 For citations please refer to: https://tddft.org/programs/libxc/

 This ORCA versions uses:
   CBLAS   interface :  Fast vector & matrix operations
   LAPACKE interface :  Fast linear algebra routines
   SCALAPACK package :  Parallel linear algebra routines


----- Orbital basis set information -----
Your calculation utilizes the basis: def2-TZVP
   F. Weigend and R. Ahlrichs, Phys. Chem. Chem. Phys. 7, 3297 (2005).

================================================================================
                                        WARNINGS
                       Please study these warnings very carefully!
================================================================================


WARNING: your system is open-shell and RHF/RKS was chosen
  ===> : WILL SWITCH to UHF/UKS


WARNING: MDCI localization with Augmented Hessian Foster-Boys
  ===> : Switching off randomization!

WARNING: Post HF methods need fully converged wavefunctions
  ===> : Setting SCFConvForced true
         You can overwrite this default with %scf ConvForced false 


INFO   : the flag for use of LIBINT has been found!

================================================================================
                                       INPUT FILE
================================================================================
NAME = 34_Se.in
|  1> #
|  2> # 34_Se CCSD(T)/Def2-TZVP
|  3> #
|  4> ! CCSD(T) Def2-TZVP tightscf
|  5> 
|  6> *xyz 0 3
|  7>  Se 0.0 0.0 0.0
|  8> *
|  9> 
| 10> %maxcore 5000 
| 11> 
| 12> %pal
| 13> nprocs 24
| 14> end
| 15> 
| 16> 
| 17>                          ****END OF INPUT****
================================================================================

                       ****************************
                       * Single Point Calculation *
                       ****************************

---------------------------------
CARTESIAN COORDINATES (ANGSTROEM)
---------------------------------
  Se     0.000000    0.000000    0.000000

----------------------------
CARTESIAN COORDINATES (A.U.)
----------------------------
  NO LB      ZA    FRAG     MASS         X           Y           Z
   0 Se   34.0000    0    78.960    0.000000    0.000000    0.000000

--------------------------------
INTERNAL COORDINATES (ANGSTROEM)
--------------------------------
 Se     0   0   0     0.000000000000     0.00000000     0.00000000

---------------------------
INTERNAL COORDINATES (A.U.)
---------------------------
 Se     0   0   0     0.000000000000     0.00000000     0.00000000

---------------------
BASIS SET INFORMATION
---------------------
There are 1 groups of distinct atoms

 Group   1 Type Se  : 17s13p8d1f contracted to 6s5p4d1f pattern {842111/64111/5111/1}

Atom   0Se   basis set group =>   1


           ************************************************************
           *        Program running with 24 parallel MPI-processes    *
           *              working on a common directory               *
           ************************************************************
------------------------------------------------------------------------------
                           ORCA GTO INTEGRAL CALCULATION
------------------------------------------------------------------------------

                         BASIS SET STATISTICS AND STARTUP INFO

 # of primitive gaussian shells          ...   39
 # of primitive gaussian functions       ...  103
 # of contracted shells                  ...   16
 # of contracted basis functions         ...   48
 Highest angular momentum                ...    3
 Maximum contraction depth               ...    8
 Integral package used                   ... LIBINT
 Integral threshhold            Thresh   ...  2.500e-11
 Primitive cut-off              TCut     ...  2.500e-12


------------------------------ INTEGRAL EVALUATION ----------------------------


 * One electron integrals 
 Pre-screening matrix                    ... done
 Shell pair data                         ... done (   0.000 sec)



           ************************************************************
           *        Program running with 24 parallel MPI-processes    *
           *              working on a common directory               *
           ************************************************************
-------------------------------------------------------------------------------
                                 ORCA SCF
-------------------------------------------------------------------------------

------------
SCF SETTINGS
------------
Hamiltonian:
 Ab initio Hamiltonian  Method          .... Hartree-Fock(GTOs)


General Settings:
 Integral files         IntName         .... 34_Se
 Hartree-Fock type      HFTyp           .... UHF
 Total Charge           Charge          ....    0
 Multiplicity           Mult            ....    3
 Number of Electrons    NEL             ....   34
 Basis Dimension        Dim             ....   48
 Nuclear Repulsion      ENuc            ....      0.0000000000 Eh

Convergence Acceleration:
 DIIS                   CNVDIIS         .... on
   Start iteration      DIISMaxIt       ....    12
   Startup error        DIISStart       ....  0.200000
   # of expansion vecs  DIISMaxEq       ....     5
   Bias factor          DIISBfac        ....   1.050
   Max. coefficient     DIISMaxC        ....  10.000
 Newton-Raphson         CNVNR           .... off
 SOSCF                  CNVSOSCF        .... off
 Level Shifting         CNVShift        .... on
   Level shift para.    LevelShift      ....    0.2500
   Turn off err/grad.   ShiftErr        ....    0.0010
 Zerner damping         CNVZerner       .... off
 Static damping         CNVDamp         .... on
   Fraction old density DampFac         ....    0.7000
   Max. Damping (<1)    DampMax         ....    0.9800
   Min. Damping (>=0)   DampMin         ....    0.0000
   Turn off err/grad.   DampErr         ....    0.1000
 Fernandez-Rico         CNVRico         .... off

SCF Procedure:
 Maximum # iterations   MaxIter         ....   125
 SCF integral mode      SCFMode         .... Direct
   Integral package                     .... LIBINT
 Reset frequency        DirectResetFreq ....    20
 Integral Threshold     Thresh          ....  2.500e-11 Eh
 Primitive CutOff       TCut            ....  2.500e-12 Eh

Convergence Tolerance:
 Convergence Check Mode ConvCheckMode   .... Total+1el-Energy
 Convergence forced     ConvForced      .... 1
 Energy Change          TolE            ....  1.000e-08 Eh
 1-El. energy change                    ....  1.000e-05 Eh
 DIIS Error             TolErr          ....  5.000e-07


Diagonalization of the overlap matrix:
Smallest eigenvalue                        ... 2.946e-02
Time for diagonalization                   ...    0.002 sec
Threshold for overlap eigenvalues          ... 1.000e-08
Number of eigenvalues below threshold      ... 0
Time for construction of square roots      ...    0.011 sec
Total time needed                          ...    0.013 sec

-------------------
DFT GRID GENERATION
-------------------

General Integration Accuracy     IntAcc      ...  4.340
Radial Grid Type                 RadialGrid  ... Gauss-Chebyshev
Angular Grid (max. acc.)         AngularGrid ... Lebedev-110
Angular grid pruning method      GridPruning ... 3 (G Style)
Weight generation scheme         WeightScheme... Becke
Basis function cutoff            BFCut       ...    1.0000e-11
Integration weight cutoff        WCut        ...    1.0000e-14
Grids for H and He will be reduced by one unit

# of grid points (after initial pruning)     ...   2950 (   0.0 sec)
# of grid points (after weights+screening)   ...   2950 (   0.0 sec)
Grid point division into batches done        ...    0.0 sec
Reduced shell lists constructed in    0.0 sec

Total number of grid points                  ...     2950
Total number of batches                      ...       47
Average number of points per batch           ...       62
Average number of grid points per atom       ...     2950
Average number of shells per batch           ...     6.00 (37.50%)
Average number of basis functions per batch  ...    22.00 (45.83%)
Average number of large shells per batch     ...     5.33 (88.89%)
Average number of large basis fcns per batch ...    18.67 (84.85%)
Maximum spatial batch extension              ...  14.66, 21.55, 21.55 au
Average spatial batch extension              ...   0.62,  0.92,  0.92 au

Time for grid setup =    0.093 sec

------------------------------
INITIAL GUESS: MODEL POTENTIAL
------------------------------
Loading Hartree-Fock densities                     ... done
Calculating cut-offs                               ... done
Setting up the integral package                    ... done
Initializing the effective Hamiltonian             ... done
Starting the Coulomb interaction                   ... done (   0.0 sec)
Reading the grid                                   ... done
Mapping shells                                     ... done
Starting the XC term evaluation                    ... done (   0.0 sec)
Transforming the Hamiltonian                       ... done (   0.0 sec)
Diagonalizing the Hamiltonian                      ... done (   0.0 sec)
Back transforming the eigenvectors                 ... done (   0.0 sec)
Now organizing SCF variables                       ... done
                      ------------------
                      INITIAL GUESS DONE (   0.2 sec)
                      ------------------
--------------
SCF ITERATIONS
--------------
ITER       Energy         Delta-E        Max-DP      RMS-DP      [F,P]     Damp
               ***  Starting incremental Fock matrix formation  ***
  0  -2399.7894596665   0.000000000000 0.01398741  0.00076650  0.1850346 0.7000
  1  -2399.8009372943  -0.011477627788 0.01452406  0.00062365  0.1118904 0.7000
                               ***Turning on DIIS***
  2  -2399.8085222741  -0.007584979889 0.04255856  0.00164950  0.0663238 0.0000
  3  -2399.9501992869  -0.141677012763 0.01287854  0.00055983  0.0212522 0.0000
  4  -2399.7636483823   0.186550904627 0.00540120  0.00021024  0.0058882 0.0000
  5  -2399.8257684877  -0.062120105400 0.00305006  0.00011161  0.0013058 0.0000
  6  -2399.8284955943  -0.002727106674 0.00185507  0.00007037  0.0006020 0.0000
  7  -2399.8276828606   0.000812733793 0.00034223  0.00001315  0.0001264 0.0000
  8  -2399.8272576790   0.000425181537 0.00007723  0.00000240  0.0000269 0.0000
  9  -2399.8272133692   0.000044309799 0.00002276  0.00000076  0.0000053 0.0000
                            ***DIIS convergence achieved***

               *****************************************************
               *                     SUCCESS                       *
               *           SCF CONVERGED AFTER  10 CYCLES          *
               *****************************************************


----------------
TOTAL SCF ENERGY
----------------

Total Energy       :        -2399.82718799 Eh          -65302.61771 eV

Components:
Nuclear Repulsion  :            0.00000000 Eh               0.00000 eV
Electronic Energy  :        -2399.82718799 Eh          -65302.61771 eV
One Electron Energy:        -3343.40814550 Eh          -90978.76091 eV
Two Electron Energy:          943.58095751 Eh           25676.14320 eV

Virial components:
Potential Energy   :        -4799.63977267 Eh         -130604.83804 eV
Kinetic Energy     :         2399.81258467 Eh           65302.22033 eV
Virial Ratio       :            2.00000609


---------------
SCF CONVERGENCE
---------------

  Last Energy change         ...    2.5376e-05  Tolerance :   1.0000e-08
  Last MAX-Density change    ...    4.5846e-06  Tolerance :   1.0000e-07
  Last RMS-Density change    ...    1.8167e-07  Tolerance :   5.0000e-09
  Last DIIS Error            ...    4.6807e-07  Tolerance :   5.0000e-07

             **** THE GBW FILE WAS UPDATED (34_Se.gbw) ****
             **** DENSITY FILE WAS UPDATED (34_Se.scfp) ****
             **** ENERGY FILE WAS UPDATED (34_Se.en.tmp) ****
----------------------
UHF SPIN CONTAMINATION
----------------------

Expectation value of <S**2>     :     2.010209
Ideal value S*(S+1) for S=1.0   :     2.000000
Deviation                       :     0.010209

             **** THE GBW FILE WAS UPDATED (34_Se.gbw) ****
             **** DENSITY FILE WAS UPDATED (34_Se.scfp) ****
----------------
ORBITAL ENERGIES
----------------
                 SPIN UP ORBITALS
  NO   OCC          E(Eh)            E(eV) 
   0   1.0000    -460.865582    -12540.7900 
   1   1.0000     -60.667586     -1650.8490 
   2   1.0000     -54.271515     -1476.8030 
   3   1.0000     -54.271515     -1476.8030 
   4   1.0000     -54.265284     -1476.6335 
   5   1.0000      -8.936696      -243.1799 
   6   1.0000      -6.675697      -181.6550 
   7   1.0000      -6.675697      -181.6550 
   8   1.0000      -6.655496      -181.1053 
   9   1.0000      -2.661187       -72.4146 
  10   1.0000      -2.661187       -72.4146 
  11   1.0000      -2.646973       -72.0278 
  12   1.0000      -2.646973       -72.0278 
  13   1.0000      -2.642329       -71.9014 
  14   1.0000      -0.934977       -25.4420 
  15   1.0000      -0.446974       -12.1628 
  16   1.0000      -0.446974       -12.1628 
  17   1.0000      -0.383393       -10.4327 
  18   0.0000       0.307300         8.3621 
  19   0.0000       0.307300         8.3621 
  20   0.0000       0.334279         9.0962 
  21   0.0000       0.346523         9.4294 
  22   0.0000       0.346523         9.4294 
  23   0.0000       0.376060        10.2331 
  24   0.0000       0.376060        10.2331 
  25   0.0000       0.386192        10.5088 
  26   0.0000       0.541901        14.7459 
  27   0.0000       1.314844        35.7787 
  28   0.0000       1.314844        35.7787 
  29   0.0000       1.350324        36.7442 
  30   0.0000       1.350324        36.7442 
  31   0.0000       1.363470        37.1019 
  32   0.0000       1.517523        41.2939 
  33   0.0000       1.517523        41.2939 
  34   0.0000       1.549267        42.1577 
  35   0.0000       1.549267        42.1577 
  36   0.0000       1.569171        42.6993 
  37   0.0000       1.569171        42.6993 
  38   0.0000       1.576033        42.8860 
  39   0.0000       1.629921        44.3524 
  40   0.0000       1.629921        44.3524 
  41   0.0000       1.672624        45.5144 
  42   0.0000       3.799281       103.3837 
  43   0.0000       3.799281       103.3837 
  44   0.0000       3.828398       104.1760 
  45   0.0000       3.828398       104.1760 
  46   0.0000       3.838345       104.4467 
  47   0.0000       6.633164       180.4976 

                 SPIN DOWN ORBITALS
  NO   OCC          E(Eh)            E(eV) 
   0   1.0000    -460.858775    -12540.6048 
   1   1.0000     -60.664442     -1650.7634 
   2   1.0000     -54.263497     -1476.5848 
   3   1.0000     -54.261500     -1476.5305 
   4   1.0000     -54.261500     -1476.5305 
   5   1.0000      -8.923643      -242.8247 
   6   1.0000      -6.652783      -181.0314 
   7   1.0000      -6.650306      -180.9640 
   8   1.0000      -6.650306      -180.9640 
   9   1.0000      -2.648002       -72.0558 
  10   1.0000      -2.648002       -72.0558 
  11   1.0000      -2.640261       -71.8452 
  12   1.0000      -2.640261       -71.8452 
  13   1.0000      -2.637818       -71.7787 
  14   1.0000      -0.741175       -20.1684 
  15   1.0000      -0.347935        -9.4678 
  16   0.0000       0.001777         0.0483 
  17   0.0000       0.001777         0.0483 
  18   0.0000       0.343509         9.3474 
  19   0.0000       0.370187        10.0733 
  20   0.0000       0.370187        10.0733 
  21   0.0000       0.424038        11.5387 
  22   0.0000       0.428479        11.6595 
  23   0.0000       0.428479        11.6595 
  24   0.0000       0.445986        12.1359 
  25   0.0000       0.445986        12.1359 
  26   0.0000       0.586557        15.9610 
  27   0.0000       1.396173        37.9918 
  28   0.0000       1.397647        38.0319 
  29   0.0000       1.397647        38.0319 
  30   0.0000       1.402510        38.1642 
  31   0.0000       1.402510        38.1642 
  32   0.0000       1.606359        43.7112 
  33   0.0000       1.606359        43.7112 
  34   0.0000       1.609397        43.7939 
  35   0.0000       1.609397        43.7939 
  36   0.0000       1.610799        43.8321 
  37   0.0000       1.610799        43.8321 
  38   0.0000       1.611196        43.8429 
  39   0.0000       1.685981        45.8779 
  40   0.0000       1.693634        46.0861 
  41   0.0000       1.693634        46.0861 
  42   0.0000       3.835005       104.3558 
  43   0.0000       3.835005       104.3558 
  44   0.0000       3.848335       104.7185 
  45   0.0000       3.848335       104.7185 
  46   0.0000       3.852732       104.8382 
  47   0.0000       6.656388       181.1295 

                    ********************************
                    * MULLIKEN POPULATION ANALYSIS *
                    ********************************

--------------------------------------------
MULLIKEN ATOMIC CHARGES AND SPIN POPULATIONS
--------------------------------------------
   0 Se:   -0.000000    2.000000
Sum of atomic charges         :   -0.0000000
Sum of atomic spin populations:    2.0000000

-----------------------------------------------------
MULLIKEN REDUCED ORBITAL CHARGES AND SPIN POPULATIONS
-----------------------------------------------------
CHARGE
  0 Ses       :     7.995534  s :     7.995534
      pz      :     5.103502  p :    15.998747
      px      :     5.895586
      py      :     4.999659
      dz2     :     2.000529  d :    10.004466
      dxz     :     2.001247
      dyz     :     2.000000
      dx2y2   :     2.002690
      dxy     :     2.000000
      f0      :     0.000118  f :     0.001253
      f+1     :     0.000242
      f-1     :     0.000005
      f+2     :     0.000269
      f-2     :     0.000079
      f+3     :     0.000283
      f-3     :     0.000257

SPIN
  0 Ses       :     0.001614  s :     0.001614
      pz      :     0.895775  p :     1.998811
      px      :     0.103377
      py      :     0.999659
      dz2     :    -0.000191  d :    -0.001614
      dxz     :    -0.000451
      dyz     :     0.000000
      dx2y2   :    -0.000972
      dxy     :     0.000000
      f0      :     0.000108  f :     0.001189
      f+1     :     0.000237
      f-1     :     0.000005
      f+2     :     0.000249
      f-2     :     0.000079
      f+3     :     0.000255
      f-3     :     0.000257


                     *******************************
                     * LOEWDIN POPULATION ANALYSIS *
                     *******************************

-------------------------------------------
LOEWDIN ATOMIC CHARGES AND SPIN POPULATIONS
-------------------------------------------
   0 Se:   -0.000000    2.000000

----------------------------------------------------
LOEWDIN REDUCED ORBITAL CHARGES AND SPIN POPULATIONS
----------------------------------------------------
CHARGE
  0 Ses       :     7.995534  s :     7.995534
      pz      :     5.103502  p :    15.998747
      px      :     5.895586
      py      :     4.999659
      dz2     :     2.000529  d :    10.004466
      dxz     :     2.001247
      dyz     :     2.000000
      dx2y2   :     2.002690
      dxy     :     2.000000
      f0      :     0.000118  f :     0.001253
      f+1     :     0.000242
      f-1     :     0.000005
      f+2     :     0.000269
      f-2     :     0.000079
      f+3     :     0.000283
      f-3     :     0.000257

SPIN
  0 Ses       :     0.001614  s :     0.001614
      pz      :     0.895775  p :     1.998811
      px      :     0.103377
      py      :     0.999659
      dz2     :    -0.000191  d :    -0.001614
      dxz     :    -0.000451
      dyz     :     0.000000
      dx2y2   :    -0.000972
      dxy     :     0.000000
      f0      :     0.000108  f :     0.001189
      f+1     :     0.000237
      f-1     :     0.000005
      f+2     :     0.000249
      f-2     :     0.000079
      f+3     :     0.000255
      f-3     :     0.000257


                      *****************************
                      * MAYER POPULATION ANALYSIS *
                      *****************************

  NA   - Mulliken gross atomic population
  ZA   - Total nuclear charge
  QA   - Mulliken gross atomic charge
  VA   - Mayer's total valence
  BVA  - Mayer's bonded valence
  FA   - Mayer's free valence

  ATOM       NA         ZA         QA         VA         BVA        FA
  0 Se    34.0000    34.0000    -0.0000     2.0204     0.0000     2.0204

  Mayer bond orders larger than 0.100000


-------
TIMINGS
-------

Total SCF time: 0 days 0 hours 0 min 2 sec 

Total time                  ....       2.764 sec
Sum of individual times     ....       2.386 sec  ( 86.3%)

Fock matrix formation       ....       1.808 sec  ( 65.4%)
Diagonalization             ....       0.064 sec  (  2.3%)
Density matrix formation    ....       0.003 sec  (  0.1%)
Population analysis         ....       0.072 sec  (  2.6%)
Initial guess               ....       0.122 sec  (  4.4%)
Orbital Transformation      ....       0.000 sec  (  0.0%)
Orbital Orthonormalization  ....       0.000 sec  (  0.0%)
DIIS solution               ....       0.224 sec  (  8.1%)


           ************************************************************
           *        Program running with 24 parallel MPI-processes    *
           *              working on a common directory               *
           ************************************************************


------------------------------------------------------------------------------- 
                              ORCA-MATRIX DRIVEN CI                            
------------------------------------------------------------------------------- 

--------------------------------
AUTOMATIC CHOICE OF INCORE LEVEL
--------------------------------

Memory available                           ...   2500.00 MB
Memory needed for S+T                      ...      0.93 MB
Memory needed for J+K                      ...      1.87 MB
Memory needed for DIIS                     ...     12.98 MB
Memory needed for 3-ext                    ...      1.85 MB
Memory needed for 4-ext                    ...      3.19 MB
Memory needed for triples                  ...      1.03 MB
 -> Final InCoreLevel    ... 5
 -> check shows that triples correction can be computed


Wavefunction type
-----------------
Correlation treatment                      ...      CCSD     
Single excitations                         ... ON
Orbital optimization                       ... OFF
Calculation of Z vector                    ... OFF
Calculation of Brueckner orbitals          ... OFF
Perturbative triple excitations            ... ON
Calculation of F12 correction              ... OFF
Frozen core treatment                      ... chemical core (18 el)
Reference Wavefunction                     ... UHF
  Alpha-MOs occ    :     9 ...   17 (  9 MO's/  9 electrons)
  Beta-MOs occ     :     9 ...   15 (  7 MO's/  7 electrons)
  Alpha-MOs virt   :    18 ...   47 ( 30 MO's              )
  Beta-MOs virt    :    16 ...   47 ( 32 MO's              )
Number of AO's                             ...     48
Number of electrons                        ...     34
Number of correlated electrons             ...     16

Algorithmic settings
--------------------
Integral transformation                    ... AO direct full transformation
K(C) Formation                             ... FULL-MO TRAFO
Maximum number of iterations               ...        50
Convergence tolerance (max. residuum)      ... 1.000e-05
Level shift for amplitude update           ... 2.000e-01
Maximum number of DIIS vectors             ...         7
DIIS turned on at iteration                ...         0
Damping before turning on DIIS             ...     0.500
Damping after turning on DIIS              ...     0.000
Pair specific amplitude update             ... OFF
Natural orbital iterations                 ... OFF
Perturbative natural orbital generation    ... OFF
Printlevel                                 ... 2

Memory handling:
----------------
Maximum memory for working arrays          ...   2500 MB
Data storage in matrix containers          ... UNCOMPRESSED
Data type for integral storage             ... DOUBLE
In-Core Storage of quantities:
   Amplitudes+Sigma Vector      ... YES
   J+K operators                ... YES
   DIIS vectors                 ... YES
   3-external integrals         ... YES
   4-external integrals         ... YES


Initializing the integral package          ... done
Warning: reference  - re-canonicalizations have been set to INT 1 VIRT 1

--------------------------
UNRESTRICTED FOCK OPERATOR
--------------------------

<ss|ss>:          231 b            0 skpd (  0.0%)    0.000 s ( 0.002 ms/b)
<ss|sp>:          630 b            0 skpd (  0.0%)    0.001 s ( 0.001 ms/b)
<ss|sd>:          504 b            0 skpd (  0.0%)    0.001 s ( 0.002 ms/b)
<ss|sf>:          126 b            0 skpd (  0.0%)    0.000 s ( 0.001 ms/b)
<ss|pp>:          315 b            0 skpd (  0.0%)    0.001 s ( 0.002 ms/b)
<ss|pd>:          420 b            0 skpd (  0.0%)    0.001 s ( 0.002 ms/b)
<ss|pf>:          105 b            0 skpd (  0.0%)    0.000 s ( 0.002 ms/b)
<ss|dd>:          210 b            0 skpd (  0.0%)    0.001 s ( 0.004 ms/b)
<ss|df>:           84 b            0 skpd (  0.0%)    0.000 s ( 0.004 ms/b)
<ss|ff>:           21 b            0 skpd (  0.0%)    0.000 s ( 0.006 ms/b)
<sp|sp>:          465 b            0 skpd (  0.0%)    0.001 s ( 0.002 ms/b)
<sp|sd>:          720 b            0 skpd (  0.0%)    0.001 s ( 0.001 ms/b)
<sp|sf>:          180 b            0 skpd (  0.0%)    0.000 s ( 0.002 ms/b)
<sp|pp>:          450 b            0 skpd (  0.0%)    0.001 s ( 0.002 ms/b)
<sp|pd>:          600 b            0 skpd (  0.0%)    0.001 s ( 0.002 ms/b)
<sp|pf>:          150 b            0 skpd (  0.0%)    0.001 s ( 0.004 ms/b)
<sp|dd>:          300 b            0 skpd (  0.0%)    0.002 s ( 0.007 ms/b)
<sp|df>:          120 b            0 skpd (  0.0%)    0.001 s ( 0.007 ms/b)
<sp|ff>:           30 b            0 skpd (  0.0%)    0.000 s ( 0.013 ms/b)
<sd|sd>:          300 b            0 skpd (  0.0%)    0.001 s ( 0.002 ms/b)
<sd|sf>:          144 b            0 skpd (  0.0%)    0.000 s ( 0.003 ms/b)
<sd|pp>:          360 b            0 skpd (  0.0%)    0.001 s ( 0.004 ms/b)
<sd|pd>:          480 b            0 skpd (  0.0%)    0.002 s ( 0.004 ms/b)
<sd|pf>:          120 b            0 skpd (  0.0%)    0.001 s ( 0.006 ms/b)
<sd|dd>:          240 b            0 skpd (  0.0%)    0.003 s ( 0.013 ms/b)
<sd|df>:           96 b            0 skpd (  0.0%)    0.001 s ( 0.014 ms/b)
<sd|ff>:           24 b            0 skpd (  0.0%)    0.001 s ( 0.027 ms/b)
<sf|sf>:           21 b            0 skpd (  0.0%)    0.000 s ( 0.002 ms/b)
<sf|pp>:           90 b            0 skpd (  0.0%)    0.000 s ( 0.004 ms/b)
<sf|pd>:          120 b            1 skpd (  0.8%)    0.001 s ( 0.005 ms/b)
<sf|pf>:           30 b            1 skpd (  3.3%)    0.000 s ( 0.007 ms/b)
<sf|dd>:           60 b            0 skpd (  0.0%)    0.001 s ( 0.015 ms/b)
<sf|df>:           24 b            0 skpd (  0.0%)    0.000 s ( 0.018 ms/b)
<sf|ff>:            6 b            0 skpd (  0.0%)    0.000 s ( 0.038 ms/b)
<pp|pp>:          120 b            0 skpd (  0.0%)    0.001 s ( 0.010 ms/b)
<pp|pd>:          300 b            0 skpd (  0.0%)    0.002 s ( 0.006 ms/b)
<pp|pf>:           75 b            0 skpd (  0.0%)    0.001 s ( 0.009 ms/b)
<pp|dd>:          150 b            0 skpd (  0.0%)    0.003 s ( 0.018 ms/b)
<pp|df>:           60 b            0 skpd (  0.0%)    0.001 s ( 0.020 ms/b)
<pp|ff>:           15 b            0 skpd (  0.0%)    0.001 s ( 0.037 ms/b)
<pd|pd>:          210 b            0 skpd (  0.0%)    0.003 s ( 0.014 ms/b)
<pd|pf>:          100 b            0 skpd (  0.0%)    0.001 s ( 0.014 ms/b)
<pd|dd>:          200 b            0 skpd (  0.0%)    0.006 s ( 0.029 ms/b)
<pd|df>:           80 b            0 skpd (  0.0%)    0.003 s ( 0.033 ms/b)
<pd|ff>:           20 b            0 skpd (  0.0%)    0.001 s ( 0.070 ms/b)
<pf|pf>:           15 b            0 skpd (  0.0%)    0.000 s ( 0.015 ms/b)
<pf|dd>:           50 b            0 skpd (  0.0%)    0.001 s ( 0.029 ms/b)
<pf|df>:           20 b            0 skpd (  0.0%)    0.001 s ( 0.039 ms/b)
<pf|ff>:            5 b            0 skpd (  0.0%)    0.000 s ( 0.091 ms/b)
<dd|dd>:           55 b            0 skpd (  0.0%)    0.005 s ( 0.094 ms/b)
<dd|df>:           40 b            0 skpd (  0.0%)    0.002 s ( 0.061 ms/b)
<dd|ff>:           10 b            0 skpd (  0.0%)    0.001 s ( 0.127 ms/b)
<df|df>:           10 b            0 skpd (  0.0%)    0.001 s ( 0.050 ms/b)
<df|ff>:            4 b            0 skpd (  0.0%)    0.001 s ( 0.161 ms/b)
<ff|ff>:            1 b            0 skpd (  0.0%)    0.000 s ( 0.261 ms/b)
Recanonicalizing the internal orbitals
Recanonicalizing the virtual orbitals
Time needed for Fock operator              ...            0.105 sec
Reference energy                           ...  -2399.827191073
Warning: for UHF the TrafoType has to be JK
Warning: for UHF the K(C)-option cannot be MO but must be AOX

-------------------------------
PARTIAL EXCHANGE TRANSFORMATION
-------------------------------

Transformation type                        ... two-operators
Generation of integrals (i,mue|j,nue)      ... ON
Generation of integrals (mue,kappa|nue,tau)... ON
Generation of integrals (i,mue|a,nue)      ... ON
Dimension of the basis                     ...   48
Number of internal alpha-MOs               ...    9 (   9-  17)
Number of internal beta-MOs                ...    7 (   9-  15)
Number of external alpha-MOs               ...   30 (  18-  47)
Number of external beta-MOs                ...   32 (  16-  47)
Pair cutoff                                ... 0.000e+00 Eh
Number of AO pairs in the trafo            ... 1176
Total Number of distinct AO pairs          ... 1176
Memory devoted for trafo                   ... 2500.0 MB 
Max. Number of MO pairs treated together   ... 142222      
Number Format for Storage                  ... Double (8 Byte)
Integral package used                      ... LIBINT

Starting integral evaluation:
    ... done with AO integral generation
Closing buffer AOK[aa] ( 0.00 GB; CompressionRatio= 0.00)
Closing buffer AOK[bb] ( 0.00 GB; CompressionRatio= 0.00)
Closing buffer AOK[ab] ( 0.00 GB; CompressionRatio= 0.00)
Closing buffer AOK[ba] ( 0.00 GB; CompressionRatio= 0.00)
Collecting buffer AOK 
Closing buffer IAAO1[aa] ( 0.00 GB; CompressionRatio= 0.00)
Closing buffer IAAO1[bb] ( 0.00 GB; CompressionRatio= 0.00)
Closing buffer IAAO1[ab] ( 0.00 GB; CompressionRatio= 0.00)
Closing buffer IAAO1[ba] ( 0.00 GB; CompressionRatio= 0.00)
Closing buffer IAAO2[aa] ( 0.00 GB; CompressionRatio= 0.00)
Closing buffer IAAO2[bb] ( 0.00 GB; CompressionRatio= 0.00)
Closing buffer IAAO2[ab] ( 0.00 GB; CompressionRatio= 0.00)
Closing buffer IAAO2[ba] ( 0.00 GB; CompressionRatio= 0.00)
Collecting buffer IAAO 
Closing buffer PRQS    ( 0.00 GB; CompressionRatio= 0.00)
Collecting buffer PRQS 
Number of alpha/alpha MO pairs in trafo    ...   45
Number of beta /beta  MO pairs in trafo    ...   28
Number of alpha/ beta MO pairs in trafo    ...   63
------------------------
SORTING OF (i,mue|j,nue)
------------------------

SORTING OF ALPHA/ALPHA PAIRS
IBATCH = 1 of  1
Closing buffer KAO[aa] ( 0.00 GB; CompressionRatio= 1.00)
Collecting buffer KAO 
SORTING OF BETA /BETA  PAIRS
IBATCH = 1 of  1
Closing buffer KAO[bb] ( 0.00 GB; CompressionRatio= 1.00)
Collecting buffer KAO 
SORTING OF ALPHA/BETA  PAIRS
IBATCH = 1 of  1
Closing buffer KAO[ab] ( 0.00 GB; CompressionRatio= 0.999349381913)
Collecting buffer KAO[ab] 
------------------------
SORTING OF (i,mue|a,nue)
------------------------

Number of alpha/alpha (i,a) pairs in trafo  ...  270
Number of beta /beta  (i,a) pairs in trafo  ...  224
Number of alpha/ beta (i,a) pairs in trafo  ...  288
Number of beta /alpha (i,a) pairs in trafo  ...  210
Setting up the alpha/alpha list             ... done
Setting up the beta /beta  list             ... done
Setting up the alpha/beta  list             ... done
Setting up the beta /alpha list             ... done
    ... Now sorting (i,mue|a,nue)integrals
    ... Integrals (i,b|a,c) will be made on the fly
SORTING OF ALPHA/ALPHA PAIRS
IBATCH = 1 of  1
Closing buffer IPAQ[aa]  0.00 GB; CompressionRatio= 1.00)
SORTING OF BETA /BETA  PAIRS
IBATCH = 1 of  1
Closing buffer IPAQ[bb]( 0.00 GB; CompressionRatio= 1.00)
SORTING OF ALPHA/BETA  PAIRS (NMatSort_ab=12)
IBATCH = 1 of  1
Closing buffer IPAQ[ab]( 0.00 GB; CompressionRatio= 1.00)
SORTING OF BETA/ALPHA  PAIRS
IBATCH = 1 of  1
Closing buffer IPAQ[ba]( 0.00 GB; CompressionRatio= 1.00)
N(AO-Batches) Done                         ...         0 
N(AO-Batches) Skipped                      ...         0 
N(IJ)-pairs Skipped                        ...         0 
TOTAL TIME for half transformation         ...     2.509 sec
AO-integral generation                     ...     0.000 sec
Half transformation                        ...     0.000 sec
K-integral sorting                         ...     0.761 sec
<ss|**>: 
------------------------------
PARTIAL COULOMB TRANSFORMATION
------------------------------

Transformation type                        ... two-operators
Dimension of the basis                     ...   48
Number of internal alpha-MOs               ...    9 (9-17)
Number of internal beta-MOs                ...    7 (9-15)
Pair cutoff                                ... 0.000e+00 Eh
Number of AO pairs included in the trafo   ... 1176
Total Number of distinct AO pairs          ... 1176
Memory devoted for trafo                   ... 2500.0 MB 
Max. Number of MO pairs treated together   ... 278639      
Max. Number of MOs treated per batch       ... 5804      
Number Format for Storage                  ... Double (8 Byte)
AO-integral source                         ... DIRECT
Integral package used                      ... LIBINT

Starting integral evaluation:
<sp|**>:         2856 b        0 skpd     0.004 s (  0.002 ms/b)
        4080 b        0 skpd     0.016 s (  0.004 ms/b)
<sd|**>:         3264 b        0 skpd     0.023 s (  0.007 ms/b)
<sf|**>:          816 b        0 skpd     0.020 s (  0.025 ms/b)
<pp|**>:         2040 b        0 skpd     0.021 s (  0.010 ms/b)
<pd|**>: <pf|**>:         2720 b        0 skpd     0.054 s (  0.020 ms/b)
         680 b        0 skpd     0.028 s (  0.042 ms/b)
<dd|**>:         1360 b        0 skpd     0.037 s (  0.027 ms/b)
<df|**>:          544 b        0 skpd     0.041 s (  0.075 ms/b)
<ff|**>:          136 b        0 skpd     0.019 s (  0.137 ms/b)
Closing buffer AOJ[aa] ( 0.00 GB; CompressionRatio= 0.97)
Closing buffer AOJ[bb] ( 0.00 GB; CompressionRatio= 0.00)
Collecting buffer AOJ 
    ... done with AO integral generation
Number of Alpha-MO pairs included          ...   45
Number of Beta-MO pairs included           ...   28
    ... Now sorting integrals
SORTING ALPHA/ALPHA PAIRS
IBATCH = 1 of  1
Closing buffer JAO[aa] ( 0.00 GB; CompressionRatio= 1.00)
SORTING BETA/BETA PAIRS
IBATCH = 1 of  1
Closing buffer JAO[bb] ( 0.00 GB; CompressionRatio= 1.00)
Collecting buffer JAO 
TOTAL TIME for half transformation         ...     0.506 sec
AO-integral generation                     ...     0.142 sec
Half transformation                        ...     0.122 sec
J-integral sorting                         ...     0.106 sec

-------------------------- SECOND HALF TRANSFORMATION -------------------------
Formation of (ij|kl),(ij|ka), (ij|ab)      ... ok (     0.161 sec)
Formation of (ik|jl),(ik|ja), (ia|jb)      ... ok (     0.228 sec)


-----------------------
SPIN UNRESTRICTED GUESS
-----------------------

Entering MDCI_UHF_Guess, Tailored=0
Spin-components of the MP2 energy:
EMP2(aa)=     -0.043785295
EMP2(bb)=     -0.022740773
EMP2(ab)=     -0.146893272

Initial guess performed in     0.006 sec
E(0)                                       ...  -2399.827191073
E(MP2)                                     ...     -0.213419341
Initial E(tot)                             ...  -2400.040610413
<T|T>                                      ...      0.056549620
Number of pairs included                   ... 120

------------------------------------------------
                  UHF COUPLED CLUSTER ITERATIONS
------------------------------------------------

Number of amplitudes to be optimized       ...        87679

Iter       E(tot)           E(Corr)          Delta-E          Residual     Time      <S|S>**1/2
  0  -2400.040610413     -0.213419341     -0.000000000      0.021182171    0.15      0.000002236
                           *** Turning on DIIS ***
  1  -2400.044295493     -0.217104421     -0.003685080      0.008230284    0.11      0.018637120
  2  -2400.049833439     -0.222642366     -0.005537945      0.004141027    0.12      0.021784500
  3  -2400.051565959     -0.224374886     -0.001732520      0.001144688    0.11      0.024787689
  4  -2400.051754348     -0.224563275     -0.000188389      0.000211214    0.11      0.025522156
  5  -2400.051766456     -0.224575383     -0.000012108      0.000099920    0.12      0.025633277
  6  -2400.051770404     -0.224579331     -0.000003948      0.000042731    0.12      0.025642023
  7  -2400.051770351     -0.224579279      0.000000052      0.000012726    0.12      0.025636304
  8  -2400.051770296     -0.224579223      0.000000055      0.000003209    0.12      0.025633265
               --- The Coupled-Cluster iterations have converged ---

----------------------
COUPLED CLUSTER ENERGY
----------------------

E(0)                                       ...  -2399.827191073
E(CORR)                                    ...     -0.224579223
E(TOT)                                     ...  -2400.051770296
Singles norm <S|S>**1/2                    ...      0.025633265 ( 0.011433465, 0.014199800)  
T1 diagnostic                              ...      0.006408316                              

------------------
LARGEST AMPLITUDES
------------------
  17a-> 25a  15b-> 21b       0.048272
  15a-> 21a  14b-> 17b       0.042259
  15a-> 22a  14b-> 16b       0.042259
  16a-> 22a  14b-> 17b       0.042259
  16a-> 21a  14b-> 16b       0.042259
  17a-> 24a  14b-> 16b       0.040253
  17a-> 23a  14b-> 17b       0.040253
  17a-> 23a  15b-> 23b       0.038585
  17a-> 24a  15b-> 22b       0.038585
  16a-> 22a  15a-> 21a       0.034629
  16a-> 21a  15a-> 22a       0.034629
  17a-> 20a  15b-> 18b       0.033047
  17a-> 24a  16a-> 25a       0.031764
  17a-> 25a  16a-> 24a       0.031764
  17a-> 23a  15a-> 25a       0.031764
  17a-> 25a  15a-> 23a       0.031764

----------------------
UHF TRIPLES CORRECTION (Algorithm 1)
----------------------

Multiplier for the singles contribution    ...      1.000000000

SPIN-CASE Alpha-Alpha-Alpha:
10% done
20% done
30% done
40% done
50% done
60% done
70% done
80% done
90% done


SPIN-CASE Beta-Beta-Beta:
10% done
20% done
30% done
40% done
50% done
60% done
70% done
80% done
90% done


SPIN-CASE Alpha-Alpha-Beta:
10% done
20% done
30% done
40% done
50% done
60% done
70% done
80% done
90% done


SPIN-CASE Beta-Beta-Alpha:
10% done
20% done
30% done
40% done
50% done
60% done
70% done
80% done
90% done


Triples Correction (T)                     ...     -0.006370478
    alpha-alpha-alpha ... -0.000389020 (  6.1%)
    alpha-alpha-beta  ... -0.003872666 ( 60.8%)
    alpha-beta -beta  ... -0.001989115 ( 31.2%)
    beta -beta -beta  ... -0.000119678 (  1.9%)
Scaling of triples based on CCSD energies (Peterson et al. Molecular Physics 113, 1551 (2015))
E(T*) = f*E(T) where f = E(F12-CCSD)/E(CCSD) 
f = CCSD (with F12)/ CCSD (without F12)    ...      1.000000000
Scaled triples correction (T)              ...     -0.006370478

Final correlation energy                   ...     -0.230949701
E(CCSD)                                    ...  -2400.051770296
E(CCSD(T))                                 ...  -2400.058140774



        !!!!!!!!!!!!!!!!!!!!!!!!!!!!!!!!!!!!!!!!!!!!!!!!!!!!!!!!!!!!!!!!!!!!!!!!!! 
        !  Warning: Densities are linearized densities                           !
        !!!!!!!!!!!!!!!!!!!!!!!!!!!!!!!!!!!!!!!!!!!!!!!!!!!!!!!!!!!!!!!!!!!!!!!!!! 

NORM  =      1.075441212 sqrt=     1.037034817
W(HF) =      0.929850920
------------------------------------------------------------------------------
                           ORCA POPULATION ANALYSIS
------------------------------------------------------------------------------
Input electron density              ... 34_Se.mdcip
Input spin density                  ... 34_Se.mdcir
BaseName (.gbw .S,...)              ... 34_Se

                    ********************************
                    * MULLIKEN POPULATION ANALYSIS *
                    ********************************

------------------------------------------
MULLIKEN ATOMIC CHARGES AND SPIN DENSITIES
------------------------------------------
   0 Se:   -0.000000    2.000000
Sum of atomic charges       :   -0.0000000
Sum of atomic spin densities:    2.0000000

---------------------------------------------------
MULLIKEN REDUCED ORBITAL CHARGES AND SPIN DENSITIES
---------------------------------------------------
CHARGE
  0 Ses       :     7.965290  s :     7.965290
      pz      :     5.096635  p :    15.952384
      px      :     5.859070
      py      :     4.996679
      dz2     :     2.013149  d :    10.070514
      dxz     :     2.015487
      dyz     :     2.011764
      dx2y2   :     2.015063
      dxy     :     2.015050
      f0      :     0.001470  f :     0.011812
      f+1     :     0.001949
      f-1     :     0.001104
      f+2     :     0.001687
      f-2     :     0.001687
      f+3     :     0.001954
      f-3     :     0.001961

SPIN
  0 Ses       :     0.019708  s :     0.019708
      pz      :     0.870935  p :     1.943853
      px      :     0.101051
      py      :     0.971868
      dz2     :     0.007654  d :     0.032246
      dxz     :     0.004690
      dyz     :     0.009403
      dx2y2   :     0.005323
      dxy     :     0.005176
      f0      :     0.000520  f :     0.004193
      f+1     :     0.000694
      f-1     :     0.000386
      f+2     :     0.000595
      f-2     :     0.000603
      f+3     :     0.000696
      f-3     :     0.000697


                     *******************************
                     * LOEWDIN POPULATION ANALYSIS *
                     *******************************

-----------------------------------------
LOEWDIN ATOMIC CHARGES AND SPIN DENSITIES
-----------------------------------------
   0 Se:   -0.000000    2.000000

--------------------------------------------------
LOEWDIN REDUCED ORBITAL CHARGES AND SPIN DENSITIES
--------------------------------------------------
CHARGE
  0 Ses       :     7.965290  s :     7.965290
      pz      :     5.096635  p :    15.952384
      px      :     5.859070
      py      :     4.996679
      dz2     :     2.013149  d :    10.070514
      dxz     :     2.015487
      dyz     :     2.011764
      dx2y2   :     2.015063
      dxy     :     2.015050
      f0      :     0.001470  f :     0.011812
      f+1     :     0.001949
      f-1     :     0.001104
      f+2     :     0.001687
      f-2     :     0.001687
      f+3     :     0.001954
      f-3     :     0.001961

SPIN
  0 Ses       :     0.019708  s :     0.019708
      pz      :     0.870935  p :     1.943853
      px      :     0.101051
      py      :     0.971868
      dz2     :     0.007654  d :     0.032246
      dxz     :     0.004690
      dyz     :     0.009403
      dx2y2   :     0.005323
      dxy     :     0.005176
      f0      :     0.000520  f :     0.004193
      f+1     :     0.000694
      f-1     :     0.000386
      f+2     :     0.000595
      f-2     :     0.000603
      f+3     :     0.000696
      f-3     :     0.000697


                      *****************************
                      * MAYER POPULATION ANALYSIS *
                      *****************************

  NA   - Mulliken gross atomic population
  ZA   - Total nuclear charge
  QA   - Mulliken gross atomic charge
  VA   - Mayer's total valence
  BVA  - Mayer's bonded valence
  FA   - Mayer's free valence

  ATOM       NA         ZA         QA         VA         BVA        FA
  0 Se    34.0000    34.0000    -0.0000     2.4727     0.0000     2.4727





------------------------------------------------------------------------------- 
                                     TIMINGS                                   
------------------------------------------------------------------------------- 


Total execution time                   ...        5.205 sec

Fock Matrix Formation                  ...        0.105 sec (  2.0%)
Initial Guess                          ...        0.006 sec (  0.1%)
DIIS Solver                            ...        0.074 sec (  1.4%)
State Vector Update                    ...        0.004 sec (  0.1%)
Sigma-vector construction              ...        1.006 sec ( 19.3%)
  <D|H|D>(0-ext Fock)                  ...        0.001 sec (  0.1% of sigma)
  <D|H|D>(0-ext)                       ...        0.002 sec (  0.2% of sigma)
  <D|H|D>(2-ext)                       ...        0.015 sec (  1.5% of sigma)
  <D|H|D>(4-ext)                       ...        0.319 sec ( 31.7% of sigma)
  <S|H|0>                              ...        0.017 sec (  1.7% of sigma)
  <D|H|S>(1-ext)                       ...        0.007 sec (  0.7% of sigma)
  Fock-dressing                        ...        0.406 sec ( 40.3% of sigma)
  (ik|jl)-dressing                     ...        0.004 sec (  0.4% of sigma)
  (ij|ab),(ia|jb)-dressing             ...        0.174 sec ( 17.3% of sigma)
Total Time for computing (T)           ...        0.033 sec (  0.6% of ALL)
  I/O of integral and amplitudes       ...        0.010 sec ( 30.0% of (T))
  External N**7 contributions          ...        0.006 sec ( 18.3% of (T))
  Internal N**7 contributions          ...        0.002 sec (  6.6% of (T))
  N**6 triples energy contributions    ...        0.013 sec ( 39.3% of (T))


-------------------------   --------------------
FINAL SINGLE POINT ENERGY     -2400.058140773782
-------------------------   --------------------


                            ***************************************
                            *     ORCA property calculations      *
                            ***************************************

                                    ---------------------
                                    Active property flags
                                    ---------------------
   (+) Dipole Moment


------------------------------------------------------------------------------
                       ORCA ELECTRIC PROPERTIES CALCULATION
------------------------------------------------------------------------------

Dipole Moment Calculation                       ... on
Quadrupole Moment Calculation                   ... off
Polarizability Calculation                      ... off
GBWName                                         ... 34_Se.gbw
Electron density file                           ... 34_Se.scfp
The origin for moment calculation is the CENTER OF MASS  = ( 0.000000,  0.000000  0.000000)

-------------
DIPOLE MOMENT
-------------
                                X             Y             Z
Electronic contribution:      0.00000      -0.00000      -0.00000
Nuclear contribution   :      0.00000       0.00000       0.00000
                        -----------------------------------------
Total Dipole Moment    :      0.00000      -0.00000      -0.00000
                        -----------------------------------------
Magnitude (a.u.)       :      0.00000
Magnitude (Debye)      :      0.00000



--------------------
Rotational spectrum 
--------------------
 
Rotational constants in cm-1:     0.000000     0.000000     0.000000 
Rotational constants in MHz :     0.000000     0.000000     0.000000 

 Dipole components along the rotational axes: 
x,y,z [a.u.] :     0.000000    -0.000000    -0.000000 
x,y,z [Debye]:     0.000000    -0.000000    -0.000000 

 

                           *** MDCI DENSITY ***

------------------------------------------------------------------------------
                       ORCA ELECTRIC PROPERTIES CALCULATION
------------------------------------------------------------------------------

Dipole Moment Calculation                       ... on
Quadrupole Moment Calculation                   ... off
Polarizability Calculation                      ... off
GBWName                                         ... 34_Se.gbw
Electron density file                           ... 34_Se.mdcip
The origin for moment calculation is the CENTER OF MASS  = ( 0.000000,  0.000000  0.000000)

-------------
DIPOLE MOMENT
-------------
                                X             Y             Z
Electronic contribution:      0.00000      -0.00000       0.00000
Nuclear contribution   :      0.00000       0.00000       0.00000
                        -----------------------------------------
Total Dipole Moment    :      0.00000      -0.00000       0.00000
                        -----------------------------------------
Magnitude (a.u.)       :      0.00000
Magnitude (Debye)      :      0.00000



--------------------
Rotational spectrum 
--------------------
 
Rotational constants in cm-1:     0.000000     0.000000     0.000000 
Rotational constants in MHz :     0.000000     0.000000     0.000000 

 Dipole components along the rotational axes: 
x,y,z [a.u.] :     0.000000    -0.000000     0.000000 
x,y,z [Debye]:     0.000000    -0.000000     0.000000 

 

Timings for individual modules:

Sum of individual times         ...        9.636 sec (=   0.161 min)
GTO integral calculation        ...        0.825 sec (=   0.014 min)   8.6 %
SCF iterations                  ...        3.145 sec (=   0.052 min)  32.6 %
MDCI module                     ...        5.666 sec (=   0.094 min)  58.8 %
                             ****ORCA TERMINATED NORMALLY****
TOTAL RUN TIME: 0 days 0 hours 0 minutes 10 seconds 402 msec
