
                                 *****************
                                 * O   R   C   A *
                                 *****************

           --- An Ab Initio, DFT and Semiempirical electronic structure package ---

                  #######################################################
                  #                        -***-                        #
                  #          Department of theory and spectroscopy      #
                  #               Directorship: Frank Neese             #
                  #        Max Planck Institute fuer Kohlenforschung    #
                  #                Kaiser Wilhelm Platz 1               #
                  #                 D-45470 Muelheim/Ruhr               #
                  #                      Germany                        #
                  #                                                     #
                  #                  All rights reserved                #
                  #                        -***-                        #
                  #######################################################


                         Program Version 4.2.0 -  RELEASE  -


 With contributions from (in alphabetic order):
   Daniel Aravena         : Magnetic Suceptibility
   Michael Atanasov       : Ab Initio Ligand Field Theory (pilot matlab implementation)
   Alexander A. Auer      : GIAO ZORA, VPT2
   Ute Becker             : Parallelization
   Giovanni Bistoni       : ED, misc. LED, open-shell LED, HFLED
   Martin Brehm           : Molecular dynamics
   Dmytro Bykov           : SCF Hessian
   Vijay G. Chilkuri      : MRCI spin determinant printing, contributions to CSF-ICE
   Dipayan Datta          : RHF DLPNO-CCSD density
   Achintya Kumar Dutta   : EOM-CC, STEOM-CC
   Dmitry Ganyushin       : Spin-Orbit,Spin-Spin,Magnetic field MRCI
   Miquel Garcia          : C-PCM Hessian, Gaussian charge scheme
   Yang Guo               : DLPNO-NEVPT2, CIM, IAO-localization
   Andreas Hansen         : Spin unrestricted coupled pair/coupled cluster methods
   Benjamin Helmich-Paris : CASSCF linear response (MC-RPA)
   Lee Huntington         : MR-EOM, pCC
   Robert Izsak           : Overlap fitted RIJCOSX, COSX-SCS-MP3, EOM
   Christian Kollmar      : KDIIS, OOCD, Brueckner-CCSD(T), CCSD density
   Simone Kossmann        : Meta GGA functionals, TD-DFT gradient, OOMP2, MP2 Hessian
   Martin Krupicka        : AUTO-CI
   Lucas Lang             : DCDCAS
   Dagmar Lenk            : GEPOL surface, SMD
   Dimitrios Liakos       : Extrapolation schemes; Compound Job, initial MDCI parallelization
   Dimitrios Manganas     : Further ROCIS development; embedding schemes
   Dimitrios Pantazis     : SARC Basis sets
   Taras Petrenko         : DFT Hessian,TD-DFT gradient, ASA, ECA, R-Raman, ABS, FL, XAS/XES, NRVS
   Peter Pinski           : DLPNO-MP2, DLPNO-MP2 Gradient
   Christoph Reimann      : Effective Core Potentials
   Marius Retegan         : Local ZFS, SOC
   Christoph Riplinger    : Optimizer, TS searches, QM/MM, DLPNO-CCSD(T), (RO)-DLPNO pert. Triples
   Tobias Risthaus        : Range-separated hybrids, TD-DFT gradient, RPA, STAB
   Michael Roemelt        : Original ROCIS implementation
   Masaaki Saitow         : Open-shell DLPNO-CCSD energy and density
   Barbara Sandhoefer     : DKH picture change effects
   Avijit Sen             : IP-ROCIS
   Kantharuban Sivalingam : CASSCF convergence, NEVPT2, FIC-MRCI
   Bernardo de Souza      : ESD, SOC TD-DFT
   Georgi Stoychev        : AutoAux, RI-MP2 NMR
   Willem Van den Heuvel  : Paramagnetic NMR
   Boris Wezisla          : Elementary symmetry handling
   Frank Wennmohs         : Technical directorship


 We gratefully acknowledge several colleagues who have allowed us to
 interface, adapt or use parts of their codes:
   Stefan Grimme, W. Hujo, H. Kruse,             : VdW corrections, initial TS optimization,
                  C. Bannwarth                     DFT functionals, gCP, sTDA/sTD-DF
   Ed Valeev, F. Pavosevic, A. Kumar             : LibInt (2-el integral package), F12 methods
   Garnet Chan, S. Sharma, J. Yang, R. Olivares  : DMRG
   Ulf Ekstrom                                   : XCFun DFT Library
   Mihaly Kallay                                 : mrcc  (arbitrary order and MRCC methods)
   Andreas Klamt, Michael Diedenhofen            : otool_cosmo (COSMO solvation model)
   Jiri Pittner, Ondrej Demel                    : Mk-CCSD
   Frank Weinhold                                : gennbo (NPA and NBO analysis)
   Christopher J. Cramer and Donald G. Truhlar   : smd solvation model
   Lars Goerigk                                  : TD-DFT with DH, B97 family of functionals
   V. Asgeirsson, H. Jonsson                     : NEB implementation
   FAccTs GmbH                                   : IRC, NEB, NEB-TS, Multilevel, MM, QM/MM, CI optimization
   S Lehtola, MJT Oliveira, MAL Marques          : LibXC Library


 Your calculation uses the libint2 library for the computation of 2-el integrals
 For citations please refer to: http://libint.valeyev.net

 Your ORCA version has been built with support for libXC version: 4.2.3
 For citations please refer to: https://tddft.org/programs/libxc/

 This ORCA versions uses:
   CBLAS   interface :  Fast vector & matrix operations
   LAPACKE interface :  Fast linear algebra routines
   SCALAPACK package :  Parallel linear algebra routines


Setting NCore(Rb) from 18 to 28
----- Orbital basis set information -----
Your calculation utilizes the basis: def2-TZVP
   F. Weigend and R. Ahlrichs, Phys. Chem. Chem. Phys. 7, 3297 (2005).

cite the ECPs for Rb [Def2-ECP] as follows:
Ce-Yb(ecp-28): M. Dolg, H. Stoll, H.Preuss, J. Chem. Phys., 1989, 90, 1730-1734.
Y-Cd(ecp-28), Hf-Hg(ecp-46): D. Andrae,U. Haeussermann, M. Dolg, H. Stoll, H. Preuss, Theor. Chim. Acta, 1990, 77, 123-141.
In-Sb(ecp-28), Tl-Bi(ecp-46): B. Metz, H. Stoll, M. Dolg, J. Chem. Phys., 2000, 113, 2563-2569.
Te-Xe(ecp-28), Po-Rn(ecp-46): K. A. Peterson, D. Figgen, E. Goll, H. Stoll, M. Dolg, J. Chem. Phys., 2003, 119, 11113-11123.
Rb(ecp-28), Cs(ecp-46): T. Leininger, A. Nicklass, W. Kuechle, H. Stoll, M. Dolg, A. Bergner, Chem. Phys. Lett., 1996, 255, 274-280.
Sr(ecp-28), Ba(ecp-46): M. Kaupp, P. V. Schleyer, H. Stoll and H. Preuss, J. Chem. Phys., 1991, 94, 1360-1366.
La(ecp-46): M. Dolg, H. Stoll, A. Savin, H. Preuss, Theor. Chim. Acta, 1989, 75, 173-194.
Lu(ecp-28): X. Cao, M. Dolg, J. Chem. Phys., 2001, 115, 7348-7355.

ECP parameters for Rb [Def2-ECP] have been obtained from:
TURBOMOLE (7.0.2)

================================================================================
                                        WARNINGS
                       Please study these warnings very carefully!
================================================================================


WARNING: your system is open-shell and RHF/RKS was chosen
  ===> : WILL SWITCH to UHF/UKS


WARNING: MDCI localization with Augmented Hessian Foster-Boys
  ===> : Switching off randomization!

WARNING: Post HF methods need fully converged wavefunctions
  ===> : Setting SCFConvForced true
         You can overwrite this default with %scf ConvForced false 


INFO   : the flag for use of LIBINT has been found!

================================================================================
                                       INPUT FILE
================================================================================
NAME = 37_Rb.in
|  1> #
|  2> # 37_Rb CCSD(T)/Def2-TZVP
|  3> #
|  4> ! CCSD(T) Def2-TZVP tightscf
|  5> 
|  6> *xyz 0 2
|  7>  Rb 0.0 0.0 0.0
|  8> *
|  9> 
| 10> %maxcore 5000 
| 11> 
| 12> %pal
| 13> nprocs 24
| 14> end
| 15> 
| 16> %method
| 17> NewNCore Rb 28 end
| 18> end
| 19> 
| 20> 
| 21>                          ****END OF INPUT****
================================================================================

                       ****************************
                       * Single Point Calculation *
                       ****************************

---------------------------------
CARTESIAN COORDINATES (ANGSTROEM)
---------------------------------
  Rb     0.000000    0.000000    0.000000

----------------------------
CARTESIAN COORDINATES (A.U.)
----------------------------
  NO LB      ZA    FRAG     MASS         X           Y           Z
   0 Rb    9.0000*   0    85.479    0.000000    0.000000    0.000000
* core charge reduced due to ECP

--------------------------------
INTERNAL COORDINATES (ANGSTROEM)
--------------------------------
 Rb     0   0   0     0.000000000000     0.00000000     0.00000000

---------------------------
INTERNAL COORDINATES (A.U.)
---------------------------
 Rb     0   0   0     0.000000000000     0.00000000     0.00000000

---------------------
BASIS SET INFORMATION
---------------------
There are 1 groups of distinct atoms

 Group   1 Type Rb  : 7s7p3d contracted to 6s4p3d pattern {211111/4111/111}

Atom   0Rb   basis set group =>   1
-------------------------
ECP PARAMETER INFORMATION
-------------------------

 Group 1, Type Rb ECP Def2-ECP (replacing 28 core electrons, lmax=3)

Atom   0Rb   ECP group =>   1



           ************************************************************
           *        Program running with 24 parallel MPI-processes    *
           *              working on a common directory               *
           ************************************************************
------------------------------------------------------------------------------
                           ORCA GTO INTEGRAL CALCULATION
------------------------------------------------------------------------------

                         BASIS SET STATISTICS AND STARTUP INFO

 # of primitive gaussian shells          ...   17
 # of primitive gaussian functions       ...   43
 # of contracted shells                  ...   13
 # of contracted basis functions         ...   33
 Highest angular momentum                ...    2
 Maximum contraction depth               ...    4
 Integral package used                   ... LIBINT
 Integral threshhold            Thresh   ...  2.500e-11
 Primitive cut-off              TCut     ...  2.500e-12


------------------------------ INTEGRAL EVALUATION ----------------------------


 * One electron integrals 

   ECP integrals                         ... done
 Pre-screening matrix                    ... done
 Shell pair data                         ... done (   0.000 sec)



           ************************************************************
           *        Program running with 24 parallel MPI-processes    *
           *              working on a common directory               *
           ************************************************************
-------------------------------------------------------------------------------
                                 ORCA SCF
-------------------------------------------------------------------------------

------------
SCF SETTINGS
------------
Hamiltonian:
 Ab initio Hamiltonian  Method          .... Hartree-Fock(GTOs)


General Settings:
 Integral files         IntName         .... 37_Rb
 Hartree-Fock type      HFTyp           .... UHF
 Total Charge           Charge          ....    0
 Multiplicity           Mult            ....    2
 Number of Electrons    NEL             ....    9
 Basis Dimension        Dim             ....   33
 Nuclear Repulsion      ENuc            ....      0.0000000000 Eh

Convergence Acceleration:
 DIIS                   CNVDIIS         .... on
   Start iteration      DIISMaxIt       ....    12
   Startup error        DIISStart       ....  0.200000
   # of expansion vecs  DIISMaxEq       ....     5
   Bias factor          DIISBfac        ....   1.050
   Max. coefficient     DIISMaxC        ....  10.000
 Newton-Raphson         CNVNR           .... off
 SOSCF                  CNVSOSCF        .... off
 Level Shifting         CNVShift        .... on
   Level shift para.    LevelShift      ....    0.2500
   Turn off err/grad.   ShiftErr        ....    0.0010
 Zerner damping         CNVZerner       .... off
 Static damping         CNVDamp         .... on
   Fraction old density DampFac         ....    0.7000
   Max. Damping (<1)    DampMax         ....    0.9800
   Min. Damping (>=0)   DampMin         ....    0.0000
   Turn off err/grad.   DampErr         ....    0.1000
 Fernandez-Rico         CNVRico         .... off

SCF Procedure:
 Maximum # iterations   MaxIter         ....   125
 SCF integral mode      SCFMode         .... Direct
   Integral package                     .... LIBINT
 Reset frequency        DirectResetFreq ....    20
 Integral Threshold     Thresh          ....  2.500e-11 Eh
 Primitive CutOff       TCut            ....  2.500e-12 Eh

Convergence Tolerance:
 Convergence Check Mode ConvCheckMode   .... Total+1el-Energy
 Convergence forced     ConvForced      .... 1
 Energy Change          TolE            ....  1.000e-08 Eh
 1-El. energy change                    ....  1.000e-05 Eh
 DIIS Error             TolErr          ....  5.000e-07


Diagonalization of the overlap matrix:
Smallest eigenvalue                        ... 2.760e-02
Time for diagonalization                   ...    0.001 sec
Threshold for overlap eigenvalues          ... 1.000e-08
Number of eigenvalues below threshold      ... 0
Time for construction of square roots      ...    0.011 sec
Total time needed                          ...    0.012 sec

-------------------
DFT GRID GENERATION
-------------------

General Integration Accuracy     IntAcc      ...  4.340
Radial Grid Type                 RadialGrid  ... Gauss-Chebyshev
Angular Grid (max. acc.)         AngularGrid ... Lebedev-110
Angular grid pruning method      GridPruning ... 3 (G Style)
Weight generation scheme         WeightScheme... Becke
Basis function cutoff            BFCut       ...    1.0000e-11
Integration weight cutoff        WCut        ...    1.0000e-14
Grids for H and He will be reduced by one unit

# of grid points (after initial pruning)     ...   3220 (   0.0 sec)
# of grid points (after weights+screening)   ...   3220 (   0.0 sec)
Grid point division into batches done        ...    0.0 sec
Reduced shell lists constructed in    0.0 sec

Total number of grid points                  ...     3220
Total number of batches                      ...       51
Average number of points per batch           ...       63
Average number of grid points per atom       ...     3220
Average number of shells per batch           ...     4.50 (34.62%)
Average number of basis functions per batch  ...    13.50 (40.91%)
Average number of large shells per batch     ...     4.50 (100.00%)
Average number of large basis fcns per batch ...    13.50 (100.00%)
Maximum spatial batch extension              ...  33.14, 49.99, 49.99 au
Average spatial batch extension              ...   1.84,  2.61,  2.94 au

Time for grid setup =    0.068 sec

------------------------------
INITIAL GUESS: MODEL POTENTIAL
------------------------------
Loading Hartree-Fock densities                     ... done
  calling /sw/apps/orca/orca_4_2_0_linux_x86-64_openmpi314/orca 37_Rb_atom37.inp > 37_Rb_atom37.out in order to generate an atomic fitting density for atom 0 (Rb with ECP) on-the-fly... 
    atom 0 (Rb), assumed electronic state with S=2: 1s2 2s2 2p6 3s2 3p6 4s2 3d10 4p6 5s1           ... done
Calculating cut-offs                               ... done
Setting up the integral package                    ... done
Initializing the effective Hamiltonian             ... done
Starting the Coulomb interaction                   ... done (   0.0 sec)
Reading the grid                                   ... done
Mapping shells                                     ... done
Starting the XC term evaluation                    ... done (   0.0 sec)
Transforming the Hamiltonian                       ... done (   0.0 sec)
Diagonalizing the Hamiltonian                      ... done (   0.0 sec)
Back transforming the eigenvectors                 ... done (   0.0 sec)
Now organizing SCF variables                       ... done
                      ------------------
                      INITIAL GUESS DONE (   1.2 sec)
                      ------------------
--------------
SCF ITERATIONS
--------------
ITER       Energy         Delta-E        Max-DP      RMS-DP      [F,P]     Damp
               ***  Starting incremental Fock matrix formation  ***
  0    -23.7662658468   0.000000000000 0.08229750  0.00309747  0.3819583 0.7000
  1    -23.7767679680  -0.010502121223 0.06937443  0.00264691  0.2743026 0.7000
                               ***Turning on DIIS***
  2    -23.7842797135  -0.007511745558 0.05130496  0.00201047  0.1948365 0.7000
  3    -23.8481399533  -0.063860239735 0.03863665  0.00160331  0.1384132 0.7000
  4    -23.8490995651  -0.000959611840 0.11274175  0.00441107  0.0977410 0.0000
  5    -23.8028660055   0.046233559624 0.03850950  0.00095473  0.0017651 0.0000
  6    -23.8043746219  -0.001508616382 0.03699296  0.00091111  0.0014238 0.0000
  7    -23.8049172730  -0.000542651172 0.02961620  0.00072901  0.0010836 0.0000
  8    -23.8061518503  -0.001234577258 0.05718860  0.00141505  0.0008043 0.0000
  9    -23.8053309829   0.000820867416 0.02491041  0.00062177  0.0002516 0.0000
 10    -23.8025917485   0.002739234369 0.00031113  0.00000781  0.0000045 0.0000
 11    -23.8025792209   0.000012527602 0.00012654  0.00000318  0.0000014 0.0000
                            ***DIIS convergence achieved***

               *****************************************************
               *                     SUCCESS                       *
               *           SCF CONVERGED AFTER  12 CYCLES          *
               *****************************************************


----------------
TOTAL SCF ENERGY
----------------

Total Energy       :          -23.80256527 Eh            -647.70073 eV

Components:
Nuclear Repulsion  :            0.00000000 Eh               0.00000 eV
Electronic Energy  :          -23.80256527 Eh            -647.70073 eV
One Electron Energy:          -39.45569742 Eh           -1073.64411 eV
Two Electron Energy:           15.65313216 Eh             425.94338 eV

Virial components:
Potential Energy   :          -31.39574033 Eh            -854.32153 eV
Kinetic Energy     :            7.59317507 Eh             206.62080 eV
Virial Ratio       :            4.13473153


---------------
SCF CONVERGENCE
---------------

  Last Energy change         ...    1.3956e-05  Tolerance :   1.0000e-08
  Last MAX-Density change    ...    4.4958e-06  Tolerance :   1.0000e-07
  Last RMS-Density change    ...    2.4766e-07  Tolerance :   5.0000e-09
  Last DIIS Error            ...    4.5666e-07  Tolerance :   5.0000e-07

             **** THE GBW FILE WAS UPDATED (37_Rb.gbw) ****
             **** DENSITY FILE WAS UPDATED (37_Rb.scfp) ****
             **** ENERGY FILE WAS UPDATED (37_Rb.en.tmp) ****
----------------------
UHF SPIN CONTAMINATION
----------------------

Expectation value of <S**2>     :     0.750356
Ideal value S*(S+1) for S=0.5   :     0.750000
Deviation                       :     0.000356

             **** THE GBW FILE WAS UPDATED (37_Rb.gbw) ****
             **** DENSITY FILE WAS UPDATED (37_Rb.scfp) ****
----------------
ORBITAL ENERGIES
----------------
                 SPIN UP ORBITALS
  NO   OCC          E(Eh)            E(eV) 
   0   1.0000      -1.579144       -42.9707 
   1   1.0000      -0.809900       -22.0385 
   2   1.0000      -0.809900       -22.0385 
   3   1.0000      -0.809900       -22.0385 
   4   1.0000      -0.140320        -3.8183 
   5   0.0000       0.014805         0.4029 
   6   0.0000       0.014805         0.4029 
   7   0.0000       0.014805         0.4029 
   8   0.0000       0.036636         0.9969 
   9   0.0000       0.036636         0.9969 
  10   0.0000       0.036636         0.9969 
  11   0.0000       0.036636         0.9969 
  12   0.0000       0.036636         0.9969 
  13   0.0000       0.058982         1.6050 
  14   0.0000       0.109054         2.9675 
  15   0.0000       0.109054         2.9675 
  16   0.0000       0.109054         2.9675 
  17   0.0000       0.121651         3.3103 
  18   0.0000       0.121651         3.3103 
  19   0.0000       0.121651         3.3103 
  20   0.0000       0.121651         3.3103 
  21   0.0000       0.121651         3.3103 
  22   0.0000       0.478893        13.0313 
  23   0.0000       0.478893        13.0313 
  24   0.0000       0.478893        13.0313 
  25   0.0000       0.478893        13.0313 
  26   0.0000       0.478893        13.0313 
  27   0.0000       0.707116        19.2416 
  28   0.0000       0.707116        19.2416 
  29   0.0000       0.707116        19.2416 
  30   0.0000       0.860649        23.4194 
  31   0.0000      13.124872       357.1459 
  32   0.0000      39.429129      1072.9211 

                 SPIN DOWN ORBITALS
  NO   OCC          E(Eh)            E(eV) 
   0   1.0000      -1.575530       -42.8724 
   1   1.0000      -0.808247       -21.9935 
   2   1.0000      -0.808247       -21.9935 
   3   1.0000      -0.808247       -21.9935 
   4   0.0000       0.010269         0.2794 
   5   0.0000       0.032609         0.8873 
   6   0.0000       0.032609         0.8873 
   7   0.0000       0.032609         0.8873 
   8   0.0000       0.039301         1.0694 
   9   0.0000       0.039301         1.0694 
  10   0.0000       0.039301         1.0694 
  11   0.0000       0.039301         1.0694 
  12   0.0000       0.039301         1.0694 
  13   0.0000       0.085961         2.3391 
  14   0.0000       0.131792         3.5862 
  15   0.0000       0.131792         3.5862 
  16   0.0000       0.131792         3.5862 
  17   0.0000       0.136924         3.7259 
  18   0.0000       0.136924         3.7259 
  19   0.0000       0.136924         3.7259 
  20   0.0000       0.136924         3.7259 
  21   0.0000       0.136924         3.7259 
  22   0.0000       0.482535        13.1304 
  23   0.0000       0.482535        13.1304 
  24   0.0000       0.482535        13.1304 
  25   0.0000       0.482535        13.1304 
  26   0.0000       0.482535        13.1304 
  27   0.0000       0.717048        19.5119 
  28   0.0000       0.717048        19.5119 
  29   0.0000       0.717048        19.5119 
  30   0.0000       0.873106        23.7584 
  31   0.0000      13.126376       357.1869 
  32   0.0000      39.429251      1072.9245 

                    ********************************
                    * MULLIKEN POPULATION ANALYSIS *
                    ********************************

--------------------------------------------
MULLIKEN ATOMIC CHARGES AND SPIN POPULATIONS
--------------------------------------------
   0 Rb:   -0.000000    1.000000
Sum of atomic charges         :   -0.0000000
Sum of atomic spin populations:    1.0000000

-----------------------------------------------------
MULLIKEN REDUCED ORBITAL CHARGES AND SPIN POPULATIONS
-----------------------------------------------------
CHARGE
  0 Rbs       :     3.000000  s :     3.000000
      pz      :     2.000000  p :     6.000000
      px      :     2.000000
      py      :     2.000000
      dz2     :     0.000000  d :     0.000000
      dxz     :     0.000000
      dyz     :     0.000000
      dx2y2   :     0.000000
      dxy     :     0.000000

SPIN
  0 Rbs       :     1.000000  s :     1.000000
      pz      :    -0.000000  p :     0.000000
      px      :     0.000000
      py      :     0.000000
      dz2     :     0.000000  d :     0.000000
      dxz     :    -0.000000
      dyz     :     0.000000
      dx2y2   :     0.000000
      dxy     :     0.000000


                     *******************************
                     * LOEWDIN POPULATION ANALYSIS *
                     *******************************

-------------------------------------------
LOEWDIN ATOMIC CHARGES AND SPIN POPULATIONS
-------------------------------------------
   0 Rb:   -0.000000    1.000000

----------------------------------------------------
LOEWDIN REDUCED ORBITAL CHARGES AND SPIN POPULATIONS
----------------------------------------------------
CHARGE
  0 Rbs       :     3.000000  s :     3.000000
      pz      :     2.000000  p :     6.000000
      px      :     2.000000
      py      :     2.000000
      dz2     :     0.000000  d :     0.000000
      dxz     :     0.000000
      dyz     :     0.000000
      dx2y2   :     0.000000
      dxy     :     0.000000

SPIN
  0 Rbs       :     1.000000  s :     1.000000
      pz      :    -0.000000  p :     0.000000
      px      :     0.000000
      py      :     0.000000
      dz2     :     0.000000  d :     0.000000
      dxz     :    -0.000000
      dyz     :     0.000000
      dx2y2   :     0.000000
      dxy     :     0.000000


                      *****************************
                      * MAYER POPULATION ANALYSIS *
                      *****************************

  NA   - Mulliken gross atomic population
  ZA   - Total nuclear charge
  QA   - Mulliken gross atomic charge
  VA   - Mayer's total valence
  BVA  - Mayer's bonded valence
  FA   - Mayer's free valence

  ATOM       NA         ZA         QA         VA         BVA        FA
  0 Rb     9.0000     9.0000    -0.0000     1.0007     0.0000     1.0007

  Mayer bond orders larger than 0.100000


-------
TIMINGS
-------

Total SCF time: 0 days 0 hours 0 min 4 sec 

Total time                  ....       4.249 sec
Sum of individual times     ....       3.754 sec  ( 88.4%)

Fock matrix formation       ....       2.125 sec  ( 50.0%)
Diagonalization             ....       0.065 sec  (  1.5%)
Density matrix formation    ....       0.003 sec  (  0.1%)
Population analysis         ....       0.071 sec  (  1.7%)
Initial guess               ....       1.128 sec  ( 26.5%)
Orbital Transformation      ....       0.000 sec  (  0.0%)
Orbital Orthonormalization  ....       0.000 sec  (  0.0%)
DIIS solution               ....       0.294 sec  (  6.9%)


           ************************************************************
           *        Program running with 24 parallel MPI-processes    *
           *              working on a common directory               *
           ************************************************************


------------------------------------------------------------------------------- 
                              ORCA-MATRIX DRIVEN CI                            
------------------------------------------------------------------------------- 

--------------------------------
AUTOMATIC CHOICE OF INCORE LEVEL
--------------------------------

Memory available                           ...   2500.00 MB
Memory needed for S+T                      ...      0.27 MB
Memory needed for J+K                      ...      0.54 MB
Memory needed for DIIS                     ...      3.77 MB
Memory needed for 3-ext                    ...      0.84 MB
Memory needed for 4-ext                    ...      2.43 MB
Memory needed for triples                  ...      0.84 MB
 -> Final InCoreLevel    ... 5
 -> check shows that triples correction can be computed


Wavefunction type
-----------------
Correlation treatment                      ...      CCSD     
Single excitations                         ... ON
Orbital optimization                       ... OFF
Calculation of Z vector                    ... OFF
Calculation of Brueckner orbitals          ... OFF
Perturbative triple excitations            ... ON
Calculation of F12 correction              ... OFF
Frozen core treatment                      ... chemical core (0 el)
Reference Wavefunction                     ... UHF
  Alpha-MOs occ    :     0 ...    4 (  5 MO's/  5 electrons)
  Beta-MOs occ     :     0 ...    3 (  4 MO's/  4 electrons)
  Alpha-MOs virt   :     5 ...   32 ( 28 MO's              )
  Beta-MOs virt    :     4 ...   32 ( 29 MO's              )
Number of AO's                             ...     33
Number of electrons                        ...      9
Number of correlated electrons             ...      9

Algorithmic settings
--------------------
Integral transformation                    ... AO direct full transformation
K(C) Formation                             ... FULL-MO TRAFO
Maximum number of iterations               ...        50
Convergence tolerance (max. residuum)      ... 1.000e-05
Level shift for amplitude update           ... 2.000e-01
Maximum number of DIIS vectors             ...         7
DIIS turned on at iteration                ...         0
Damping before turning on DIIS             ...     0.500
Damping after turning on DIIS              ...     0.000
Pair specific amplitude update             ... OFF
Natural orbital iterations                 ... OFF
Perturbative natural orbital generation    ... OFF
Printlevel                                 ... 2

Memory handling:
----------------
Maximum memory for working arrays          ...   2500 MB
Data storage in matrix containers          ... UNCOMPRESSED
Data type for integral storage             ... DOUBLE
In-Core Storage of quantities:
   Amplitudes+Sigma Vector      ... YES
   J+K operators                ... YES
   DIIS vectors                 ... YES
   3-external integrals         ... YES
   4-external integrals         ... YES


Initializing the integral package          ... done
Warning: reference  - re-canonicalizations have been set to INT 1 VIRT 1

--------------------------
UNRESTRICTED FOCK OPERATOR
--------------------------

<ss|ss>:          231 b            0 skpd (  0.0%)    0.000 s ( 0.000 ms/b)
<ss|sp>:          504 b            0 skpd (  0.0%)    0.000 s ( 0.000 ms/b)
<ss|sd>:          378 b            0 skpd (  0.0%)    0.000 s ( 0.000 ms/b)
<ss|pp>:          210 b            0 skpd (  0.0%)    0.000 s ( 0.000 ms/b)
<ss|pd>:          252 b            0 skpd (  0.0%)    0.000 s ( 0.000 ms/b)
<ss|dd>:          126 b            0 skpd (  0.0%)    0.000 s ( 0.000 ms/b)
<sp|sp>:          300 b            0 skpd (  0.0%)    0.000 s ( 0.000 ms/b)
<sp|sd>:          432 b            0 skpd (  0.0%)    0.000 s ( 0.000 ms/b)
<sp|pp>:          240 b            0 skpd (  0.0%)    0.000 s ( 0.001 ms/b)
<sp|pd>:          288 b            0 skpd (  0.0%)    0.000 s ( 0.000 ms/b)
<sp|dd>: done
<sd|sd>:          171 b            0 skpd (  0.0%)    0.000 s ( 0.000 ms/b)
<sd|pp>:          180 b            0 skpd (  0.0%)    0.000 s ( 0.001 ms/b)
<sd|pd>: done
<sd|dd>: done
<pp|pp>:           55 b            0 skpd (  0.0%)    0.000 s ( 0.003 ms/b)
<pp|pd>:          120 b            0 skpd (  0.0%)    0.000 s ( 0.001 ms/b)
<pp|dd>:           60 b            0 skpd (  0.0%)    0.000 s ( 0.003 ms/b)
<pd|pd>:           78 b            0 skpd (  0.0%)    0.000 s ( 0.003 ms/b)
<pd|dd>: done
<dd|dd>: done
Recanonicalizing the internal orbitals
Recanonicalizing the virtual orbitals
Time needed for Fock operator              ...            0.138 sec
Reference energy                           ...    -23.802564670
Warning: for UHF the TrafoType has to be JK
Warning: for UHF the K(C)-option cannot be MO but must be AOX

-------------------------------
PARTIAL EXCHANGE TRANSFORMATION
-------------------------------

Transformation type                        ... two-operators
Generation of integrals (i,mue|j,nue)      ... ON
Generation of integrals (mue,kappa|nue,tau)... ON
Generation of integrals (i,mue|a,nue)      ... ON
Dimension of the basis                     ...   33
Number of internal alpha-MOs               ...    5 (   0-   4)
Number of internal beta-MOs                ...    4 (   0-   3)
Number of external alpha-MOs               ...   28 (   5-  32)
Number of external beta-MOs                ...   29 (   4-  32)
Pair cutoff                                ... 0.000e+00 Eh
Number of AO pairs in the trafo            ...  561
Total Number of distinct AO pairs          ...  561
Memory devoted for trafo                   ... 2500.0 MB 
Max. Number of MO pairs treated together   ... 300899      
Number Format for Storage                  ... Double (8 Byte)
Integral package used                      ... LIBINT

Starting integral evaluation:
    ... done with AO integral generation
Closing buffer AOK[aa] ( 0.00 GB; CompressionRatio= 0.00)
Closing buffer AOK[bb] ( 0.00 GB; CompressionRatio= 0.00)
Closing buffer AOK[ab] ( 0.00 GB; CompressionRatio= 0.00)
Closing buffer AOK[ba] ( 0.00 GB; CompressionRatio= 0.00)
Collecting buffer AOK 
Closing buffer IAAO1[aa] ( 0.00 GB; CompressionRatio= 0.00)
Closing buffer IAAO1[bb] ( 0.00 GB; CompressionRatio= 0.00)
Closing buffer IAAO1[ab] ( 0.00 GB; CompressionRatio= 0.00)
Closing buffer IAAO1[ba] ( 0.00 GB; CompressionRatio= 0.00)
Closing buffer IAAO2[aa] ( 0.00 GB; CompressionRatio= 0.00)
Closing buffer IAAO2[bb] ( 0.00 GB; CompressionRatio= 0.00)
Closing buffer IAAO2[ab] ( 0.00 GB; CompressionRatio= 0.00)
Closing buffer IAAO2[ba] ( 0.00 GB; CompressionRatio= 0.00)
Collecting buffer IAAO 
Closing buffer PRQS    ( 0.00 GB; CompressionRatio= 0.00)
Collecting buffer PRQS 
Number of alpha/alpha MO pairs in trafo    ...   15
Number of beta /beta  MO pairs in trafo    ...   10
Number of alpha/ beta MO pairs in trafo    ...   20
------------------------
SORTING OF (i,mue|j,nue)
------------------------

SORTING OF ALPHA/ALPHA PAIRS
IBATCH = 1 of  1
Closing buffer KAO[aa] ( 0.00 GB; CompressionRatio= 1.00)
Collecting buffer KAO 
SORTING OF BETA /BETA  PAIRS
IBATCH = 1 of  1
Closing buffer KAO[bb] ( 0.00 GB; CompressionRatio= 1.00)
Collecting buffer KAO 
SORTING OF ALPHA/BETA  PAIRS
IBATCH = 1 of  1
Closing buffer KAO[ab] ( 0.00 GB; CompressionRatio= 0.998624484182)
Collecting buffer KAO[ab] 
------------------------
SORTING OF (i,mue|a,nue)
------------------------

Number of alpha/alpha (i,a) pairs in trafo  ...  140
Number of beta /beta  (i,a) pairs in trafo  ...  116
Number of alpha/ beta (i,a) pairs in trafo  ...  145
Number of beta /alpha (i,a) pairs in trafo  ...  112
Setting up the alpha/alpha list             ... done
Setting up the beta /beta  list             ... done
Setting up the alpha/beta  list             ... done
Setting up the beta /alpha list             ... done
    ... Now sorting (i,mue|a,nue)integrals
    ... Integrals (i,b|a,c) will be made on the fly
SORTING OF ALPHA/ALPHA PAIRS
IBATCH = 1 of  1
Closing buffer IPAQ[aa]  0.00 GB; CompressionRatio= 1.00)
SORTING OF BETA /BETA  PAIRS
IBATCH = 1 of  1
Closing buffer IPAQ[bb]( 0.00 GB; CompressionRatio= 1.00)
SORTING OF ALPHA/BETA  PAIRS (NMatSort_ab=7)
IBATCH = 1 of  1
Closing buffer IPAQ[ab]( 0.00 GB; CompressionRatio= 1.00)
SORTING OF BETA/ALPHA  PAIRS
IBATCH = 1 of  1
Closing buffer IPAQ[ba]( 0.00 GB; CompressionRatio= 1.00)
N(AO-Batches) Done                         ...         0 
N(AO-Batches) Skipped                      ...         0 
N(IJ)-pairs Skipped                        ...         0 
TOTAL TIME for half transformation         ...     1.788 sec
AO-integral generation                     ...     0.000 sec
Half transformation                        ...     0.000 sec
K-integral sorting                         ...     0.658 sec
<ss|**>: 
------------------------------
PARTIAL COULOMB TRANSFORMATION
------------------------------

Transformation type                        ... two-operators
Dimension of the basis                     ...   33
Number of internal alpha-MOs               ...    5 (0-4)
Number of internal beta-MOs                ...    4 (0-3)
Pair cutoff                                ... 0.000e+00 Eh
Number of AO pairs included in the trafo   ...  561
Total Number of distinct AO pairs          ...  561
Memory devoted for trafo                   ... 2500.0 MB 
Max. Number of MO pairs treated together   ... 584099      
Max. Number of MOs treated per batch       ... 17699      
Number Format for Storage                  ... Double (8 Byte)
AO-integral source                         ... DIRECT
Integral package used                      ... LIBINT

Starting integral evaluation:
<sp|**>:         1911 b        0 skpd     0.001 s (  0.001 ms/b)
<sd|**>:         2184 b        0 skpd     0.011 s (  0.005 ms/b)
<pp|**>:         1638 b        0 skpd     0.014 s (  0.008 ms/b)
<pd|**>:          910 b        0 skpd     0.016 s (  0.017 ms/b)
        1092 b        0 skpd     0.028 s (  0.025 ms/b)
<dd|**>:          546 b        0 skpd     0.024 s (  0.045 ms/b)
Closing buffer AOJ[aa] ( 0.00 GB; CompressionRatio= 0.91)
Closing buffer AOJ[bb] ( 0.00 GB; CompressionRatio= 0.00)
Collecting buffer AOJ 
    ... done with AO integral generation
Number of Alpha-MO pairs included          ...   15
Number of Beta-MO pairs included           ...   10
    ... Now sorting integrals
SORTING ALPHA/ALPHA PAIRS
IBATCH = 1 of  1
Closing buffer JAO[aa] ( 0.00 GB; CompressionRatio= 1.00)
SORTING BETA/BETA PAIRS
IBATCH = 1 of  1
Closing buffer JAO[bb] ( 0.00 GB; CompressionRatio= 1.00)
Collecting buffer JAO 
TOTAL TIME for half transformation         ...     0.319 sec
AO-integral generation                     ...     0.034 sec
Half transformation                        ...     0.060 sec
J-integral sorting                         ...     0.087 sec

-------------------------- SECOND HALF TRANSFORMATION -------------------------
Formation of (ij|kl),(ij|ka), (ij|ab)      ... ok (     0.129 sec)
Formation of (ik|jl),(ik|ja), (ia|jb)      ... ok (     0.213 sec)


-----------------------
SPIN UNRESTRICTED GUESS
-----------------------

Entering MDCI_UHF_Guess, Tailored=0
Spin-components of the MP2 energy:
EMP2(aa)=     -0.012484447
EMP2(bb)=     -0.008185583
EMP2(ab)=     -0.048254101

Initial guess performed in     0.002 sec
E(0)                                       ...    -23.802564670
E(MP2)                                     ...     -0.068924131
Initial E(tot)                             ...    -23.871488801
<T|T>                                      ...      0.027597522
Number of pairs included                   ... 36

------------------------------------------------
                  UHF COUPLED CLUSTER ITERATIONS
------------------------------------------------

Number of amplitudes to be optimized       ...        22808

Iter       E(tot)           E(Corr)          Delta-E          Residual     Time      <S|S>**1/2
  0    -23.871488801     -0.068924131     -0.000000000      0.012895020    0.05      0.000000259
                           *** Turning on DIIS ***
  1    -23.876005109     -0.073440440     -0.004516308      0.004327045    0.03      0.018231615
  2    -23.878065574     -0.075500904     -0.002060464      0.003204653    0.03      0.030007388
  3    -23.878306918     -0.075742248     -0.000241345      0.002196212    0.03      0.035981773
  4    -23.878428336     -0.075863666     -0.000121417      0.000995224    0.03      0.042473950
  5    -23.878498635     -0.075933965     -0.000070299      0.000157867    0.03      0.046872110
  6    -23.878507314     -0.075942644     -0.000008679      0.000011935    0.03      0.047615880
  7    -23.878507620     -0.075942951     -0.000000306      0.000001485    0.03      0.047672669
               --- The Coupled-Cluster iterations have converged ---

----------------------
COUPLED CLUSTER ENERGY
----------------------

E(0)                                       ...    -23.802564670
E(CORR)                                    ...     -0.075942951
E(TOT)                                     ...    -23.878507620
Singles norm <S|S>**1/2                    ...      0.047672669 ( 0.036975170, 0.010697499)  
T1 diagnostic                              ...      0.015890890                              

------------------
LARGEST AMPLITUDES
------------------
   4a-> 13a  -1a-> -1a       0.061015
   2a-> 23a   2b-> 26b       0.019592
   2a-> 26a   2b-> 25b       0.017954
   2a-> 22a   1a-> 23a       0.017236
   2a-> 23a   1a-> 22a       0.017236
   3a-> 25a   3b-> 23b       0.017110
   3a-> 24a   1a-> 25a       0.016940
   3a-> 25a   1a-> 24a       0.016940
   3b-> 22b   1b-> 23b       0.016707
   3b-> 23b   1b-> 22b       0.016707
   2b-> 26b   1b-> 25b       0.016471
   2b-> 25b   1b-> 26b       0.016471
   3a-> 26a   1b-> 25b       0.016332
   1a-> 25a   3b-> 22b       0.015280
   3a-> 24a   1b-> 24b       0.014608
   2a-> 22a   2b-> 24b       0.014445

----------------------
UHF TRIPLES CORRECTION (Algorithm 1)
----------------------

Multiplier for the singles contribution    ...      1.000000000

SPIN-CASE Alpha-Alpha-Alpha:
10% done
20% done
30% done
40% done
50% done
60% done
70% done
80% done
90% done


SPIN-CASE Beta-Beta-Beta:
10% done
20% done
30% done
40% done
50% done
60% done
70% done
80% done
90% done


SPIN-CASE Alpha-Alpha-Beta:
10% done
20% done
30% done
40% done
50% done
60% done
70% done
80% done
90% done


SPIN-CASE Beta-Beta-Alpha:
10% done
20% done
30% done
40% done
50% done
60% done
70% done
80% done
90% done


Triples Correction (T)                     ...     -0.001238094
    alpha-alpha-alpha ... -0.000052123 (  4.2%)
    alpha-alpha-beta  ... -0.000679663 ( 54.9%)
    alpha-beta -beta  ... -0.000487328 ( 39.4%)
    beta -beta -beta  ... -0.000018980 (  1.5%)
Scaling of triples based on CCSD energies (Peterson et al. Molecular Physics 113, 1551 (2015))
E(T*) = f*E(T) where f = E(F12-CCSD)/E(CCSD) 
f = CCSD (with F12)/ CCSD (without F12)    ...      1.000000000
Scaled triples correction (T)              ...     -0.001238094

Final correlation energy                   ...     -0.077181045
E(CCSD)                                    ...    -23.878507620
E(CCSD(T))                                 ...    -23.879745714



        !!!!!!!!!!!!!!!!!!!!!!!!!!!!!!!!!!!!!!!!!!!!!!!!!!!!!!!!!!!!!!!!!!!!!!!!!! 
        !  Warning: Densities are linearized densities                           !
        !!!!!!!!!!!!!!!!!!!!!!!!!!!!!!!!!!!!!!!!!!!!!!!!!!!!!!!!!!!!!!!!!!!!!!!!!! 

NORM  =      1.039269736 sqrt=     1.019445799
W(HF) =      0.962214106
------------------------------------------------------------------------------
                           ORCA POPULATION ANALYSIS
------------------------------------------------------------------------------
Input electron density              ... 37_Rb.mdcip
Input spin density                  ... 37_Rb.mdcir
BaseName (.gbw .S,...)              ... 37_Rb

                    ********************************
                    * MULLIKEN POPULATION ANALYSIS *
                    ********************************

------------------------------------------
MULLIKEN ATOMIC CHARGES AND SPIN DENSITIES
------------------------------------------
   0 Rb:   -0.000000    1.000000
Sum of atomic charges       :   -0.0000000
Sum of atomic spin densities:    1.0000000

---------------------------------------------------
MULLIKEN REDUCED ORBITAL CHARGES AND SPIN DENSITIES
---------------------------------------------------
CHARGE
  0 Rbs       :     2.993045  s :     2.993045
      pz      :     1.987545  p :     5.962636
      px      :     1.987545
      py      :     1.987545
      dz2     :     0.008864  d :     0.044319
      dxz     :     0.008864
      dyz     :     0.008864
      dx2y2   :     0.008864
      dxy     :     0.008864

SPIN
  0 Rbs       :     0.992409  s :     0.992409
      pz      :     0.002683  p :     0.008049
      px      :     0.002683
      py      :     0.002683
      dz2     :    -0.000091  d :    -0.000457
      dxz     :    -0.000091
      dyz     :    -0.000091
      dx2y2   :    -0.000091
      dxy     :    -0.000091


                     *******************************
                     * LOEWDIN POPULATION ANALYSIS *
                     *******************************

-----------------------------------------
LOEWDIN ATOMIC CHARGES AND SPIN DENSITIES
-----------------------------------------
   0 Rb:   -0.000000    1.000000

--------------------------------------------------
LOEWDIN REDUCED ORBITAL CHARGES AND SPIN DENSITIES
--------------------------------------------------
CHARGE
  0 Rbs       :     2.993045  s :     2.993045
      pz      :     1.987545  p :     5.962636
      px      :     1.987545
      py      :     1.987545
      dz2     :     0.008864  d :     0.044319
      dxz     :     0.008864
      dyz     :     0.008864
      dx2y2   :     0.008864
      dxy     :     0.008864

SPIN
  0 Rbs       :     0.992409  s :     0.992409
      pz      :     0.002683  p :     0.008049
      px      :     0.002683
      py      :     0.002683
      dz2     :    -0.000091  d :    -0.000457
      dxz     :    -0.000091
      dyz     :    -0.000091
      dx2y2   :    -0.000091
      dxy     :    -0.000091


                      *****************************
                      * MAYER POPULATION ANALYSIS *
                      *****************************

  NA   - Mulliken gross atomic population
  ZA   - Total nuclear charge
  QA   - Mulliken gross atomic charge
  VA   - Mayer's total valence
  BVA  - Mayer's bonded valence
  FA   - Mayer's free valence

  ATOM       NA         ZA         QA         VA         BVA        FA
  0 Rb     9.0000     9.0000    -0.0000     1.2560     0.0000     1.2560





------------------------------------------------------------------------------- 
                                     TIMINGS                                   
------------------------------------------------------------------------------- 


Total execution time                   ...        3.468 sec

Fock Matrix Formation                  ...        0.138 sec (  4.0%)
Initial Guess                          ...        0.002 sec (  0.1%)
DIIS Solver                            ...        0.016 sec (  0.5%)
State Vector Update                    ...        0.002 sec (  0.0%)
Sigma-vector construction              ...        0.232 sec (  6.7%)
  <D|H|D>(2-ext)                       ...        0.002 sec (  1.0% of sigma)
  <D|H|D>(4-ext)                       ...        0.123 sec ( 53.1% of sigma)
  <S|H|0>                              ...        0.005 sec (  2.0% of sigma)
  <D|H|S>(1-ext)                       ...        0.003 sec (  1.3% of sigma)
  Fock-dressing                        ...        0.018 sec (  7.7% of sigma)
  (ij|ab),(ia|jb)-dressing             ...        0.056 sec ( 24.1% of sigma)
Total Time for computing (T)           ...        0.016 sec (  0.5% of ALL)
  I/O of integral and amplitudes       ...        0.003 sec ( 16.8% of (T))
  External N**7 contributions          ...        0.001 sec (  8.9% of (T))
  N**6 triples energy contributions    ...        0.004 sec ( 24.1% of (T))


-------------------------   --------------------
FINAL SINGLE POINT ENERGY       -23.879745714201
-------------------------   --------------------


                            ***************************************
                            *     ORCA property calculations      *
                            ***************************************

                                    ---------------------
                                    Active property flags
                                    ---------------------
   (+) Dipole Moment


------------------------------------------------------------------------------
                       ORCA ELECTRIC PROPERTIES CALCULATION
------------------------------------------------------------------------------

Dipole Moment Calculation                       ... on
Quadrupole Moment Calculation                   ... off
Polarizability Calculation                      ... off
GBWName                                         ... 37_Rb.gbw
Electron density file                           ... 37_Rb.scfp
The origin for moment calculation is the CENTER OF MASS  = ( 0.000000,  0.000000  0.000000)

-------------
DIPOLE MOMENT
-------------
                                X             Y             Z
Electronic contribution:      0.00000       0.00000      -0.00000
Nuclear contribution   :      0.00000       0.00000       0.00000
                        -----------------------------------------
Total Dipole Moment    :      0.00000       0.00000      -0.00000
                        -----------------------------------------
Magnitude (a.u.)       :      0.00000
Magnitude (Debye)      :      0.00000



--------------------
Rotational spectrum 
--------------------
 
Rotational constants in cm-1:     0.000000     0.000000     0.000000 
Rotational constants in MHz :     0.000000     0.000000     0.000000 

 Dipole components along the rotational axes: 
x,y,z [a.u.] :     0.000000     0.000000    -0.000000 
x,y,z [Debye]:     0.000000     0.000000    -0.000000 

 

                           *** MDCI DENSITY ***

------------------------------------------------------------------------------
                       ORCA ELECTRIC PROPERTIES CALCULATION
------------------------------------------------------------------------------

Dipole Moment Calculation                       ... on
Quadrupole Moment Calculation                   ... off
Polarizability Calculation                      ... off
GBWName                                         ... 37_Rb.gbw
Electron density file                           ... 37_Rb.mdcip
The origin for moment calculation is the CENTER OF MASS  = ( 0.000000,  0.000000  0.000000)

-------------
DIPOLE MOMENT
-------------
                                X             Y             Z
Electronic contribution:      0.00000       0.00000      -0.00000
Nuclear contribution   :      0.00000       0.00000       0.00000
                        -----------------------------------------
Total Dipole Moment    :      0.00000       0.00000      -0.00000
                        -----------------------------------------
Magnitude (a.u.)       :      0.00000
Magnitude (Debye)      :      0.00000



--------------------
Rotational spectrum 
--------------------
 
Rotational constants in cm-1:     0.000000     0.000000     0.000000 
Rotational constants in MHz :     0.000000     0.000000     0.000000 

 Dipole components along the rotational axes: 
x,y,z [a.u.] :     0.000000     0.000000    -0.000000 
x,y,z [Debye]:     0.000000     0.000000    -0.000000 

 

Timings for individual modules:

Sum of individual times         ...        9.436 sec (=   0.157 min)
GTO integral calculation        ...        0.918 sec (=   0.015 min)   9.7 %
SCF iterations                  ...        4.635 sec (=   0.077 min)  49.1 %
MDCI module                     ...        3.883 sec (=   0.065 min)  41.2 %
                             ****ORCA TERMINATED NORMALLY****
TOTAL RUN TIME: 0 days 0 hours 0 minutes 10 seconds 179 msec
