
                                 *****************
                                 * O   R   C   A *
                                 *****************

           --- An Ab Initio, DFT and Semiempirical electronic structure package ---

                  #######################################################
                  #                        -***-                        #
                  #          Department of theory and spectroscopy      #
                  #               Directorship: Frank Neese             #
                  #        Max Planck Institute fuer Kohlenforschung    #
                  #                Kaiser Wilhelm Platz 1               #
                  #                 D-45470 Muelheim/Ruhr               #
                  #                      Germany                        #
                  #                                                     #
                  #                  All rights reserved                #
                  #                        -***-                        #
                  #######################################################


                         Program Version 4.2.0 -  RELEASE  -


 With contributions from (in alphabetic order):
   Daniel Aravena         : Magnetic Suceptibility
   Michael Atanasov       : Ab Initio Ligand Field Theory (pilot matlab implementation)
   Alexander A. Auer      : GIAO ZORA, VPT2
   Ute Becker             : Parallelization
   Giovanni Bistoni       : ED, misc. LED, open-shell LED, HFLED
   Martin Brehm           : Molecular dynamics
   Dmytro Bykov           : SCF Hessian
   Vijay G. Chilkuri      : MRCI spin determinant printing, contributions to CSF-ICE
   Dipayan Datta          : RHF DLPNO-CCSD density
   Achintya Kumar Dutta   : EOM-CC, STEOM-CC
   Dmitry Ganyushin       : Spin-Orbit,Spin-Spin,Magnetic field MRCI
   Miquel Garcia          : C-PCM Hessian, Gaussian charge scheme
   Yang Guo               : DLPNO-NEVPT2, CIM, IAO-localization
   Andreas Hansen         : Spin unrestricted coupled pair/coupled cluster methods
   Benjamin Helmich-Paris : CASSCF linear response (MC-RPA)
   Lee Huntington         : MR-EOM, pCC
   Robert Izsak           : Overlap fitted RIJCOSX, COSX-SCS-MP3, EOM
   Christian Kollmar      : KDIIS, OOCD, Brueckner-CCSD(T), CCSD density
   Simone Kossmann        : Meta GGA functionals, TD-DFT gradient, OOMP2, MP2 Hessian
   Martin Krupicka        : AUTO-CI
   Lucas Lang             : DCDCAS
   Dagmar Lenk            : GEPOL surface, SMD
   Dimitrios Liakos       : Extrapolation schemes; Compound Job, initial MDCI parallelization
   Dimitrios Manganas     : Further ROCIS development; embedding schemes
   Dimitrios Pantazis     : SARC Basis sets
   Taras Petrenko         : DFT Hessian,TD-DFT gradient, ASA, ECA, R-Raman, ABS, FL, XAS/XES, NRVS
   Peter Pinski           : DLPNO-MP2, DLPNO-MP2 Gradient
   Christoph Reimann      : Effective Core Potentials
   Marius Retegan         : Local ZFS, SOC
   Christoph Riplinger    : Optimizer, TS searches, QM/MM, DLPNO-CCSD(T), (RO)-DLPNO pert. Triples
   Tobias Risthaus        : Range-separated hybrids, TD-DFT gradient, RPA, STAB
   Michael Roemelt        : Original ROCIS implementation
   Masaaki Saitow         : Open-shell DLPNO-CCSD energy and density
   Barbara Sandhoefer     : DKH picture change effects
   Avijit Sen             : IP-ROCIS
   Kantharuban Sivalingam : CASSCF convergence, NEVPT2, FIC-MRCI
   Bernardo de Souza      : ESD, SOC TD-DFT
   Georgi Stoychev        : AutoAux, RI-MP2 NMR
   Willem Van den Heuvel  : Paramagnetic NMR
   Boris Wezisla          : Elementary symmetry handling
   Frank Wennmohs         : Technical directorship


 We gratefully acknowledge several colleagues who have allowed us to
 interface, adapt or use parts of their codes:
   Stefan Grimme, W. Hujo, H. Kruse,             : VdW corrections, initial TS optimization,
                  C. Bannwarth                     DFT functionals, gCP, sTDA/sTD-DF
   Ed Valeev, F. Pavosevic, A. Kumar             : LibInt (2-el integral package), F12 methods
   Garnet Chan, S. Sharma, J. Yang, R. Olivares  : DMRG
   Ulf Ekstrom                                   : XCFun DFT Library
   Mihaly Kallay                                 : mrcc  (arbitrary order and MRCC methods)
   Andreas Klamt, Michael Diedenhofen            : otool_cosmo (COSMO solvation model)
   Jiri Pittner, Ondrej Demel                    : Mk-CCSD
   Frank Weinhold                                : gennbo (NPA and NBO analysis)
   Christopher J. Cramer and Donald G. Truhlar   : smd solvation model
   Lars Goerigk                                  : TD-DFT with DH, B97 family of functionals
   V. Asgeirsson, H. Jonsson                     : NEB implementation
   FAccTs GmbH                                   : IRC, NEB, NEB-TS, Multilevel, MM, QM/MM, CI optimization
   S Lehtola, MJT Oliveira, MAL Marques          : LibXC Library


 Your calculation uses the libint2 library for the computation of 2-el integrals
 For citations please refer to: http://libint.valeyev.net

 Your ORCA version has been built with support for libXC version: 4.2.3
 For citations please refer to: https://tddft.org/programs/libxc/

 This ORCA versions uses:
   CBLAS   interface :  Fast vector & matrix operations
   LAPACKE interface :  Fast linear algebra routines
   SCALAPACK package :  Parallel linear algebra routines


----- Orbital basis set information -----
Your calculation utilizes the basis: def2-SVP
   F. Weigend and R. Ahlrichs, Phys. Chem. Chem. Phys. 7, 3297 (2005).

----- AuxJ basis set information -----
Your calculation utilizes the auxiliary basis: def2/J
   F. Weigend, Phys. Chem. Chem. Phys. 8, 1057 (2006).

================================================================================
                                        WARNINGS
                       Please study these warnings very carefully!
================================================================================


INFO   : the flag for use of LIBINT has been found!

================================================================================
                                       INPUT FILE
================================================================================
NAME = 37_Rb_atom37.inp
|  1> # input to generate an atomic fitting density for Rb
|  2> # this file is use internally by ORCA
|  3> #
|  4> # atomic ground state (S=2): 1s2 2s2 2p6 3s2 3p6 4s2 3d10 4p6 5s1 
|  5> #
|  6> ! RHF AllowRHF def2-SVP def2/J  NoMulliken NoLoewdin NoMayer NoPrintMOs 
|  7> 
|  8> %output print[p_atomdensfit] 2 end
|  9> 
| 10> %scf
| 11>   guess hcore
| 12>   maxiter 1000
| 13>   maxdisk 500000
| 14>   SCFMode Conventional
| 15>   lshift 1.000000
| 16>   hftyp rohf
| 17>   rohf_case sahf
| 18>   rohf_numop   2
| 19>   rohf_norb[1] 1
| 20>   rohf_nel[1]  1
| 21> end
| 22> 
| 23> %basis
| 24>   NewECP 37
| 25>     N_core 28
| 26>     lmax f
| 27>     s 3
| 28>       1       5.0365510000     89.5001980000  2
| 29>       2       1.9708490000      0.4937610000  2
| 30>       3       3.8431140000     12.3169000000  2
| 31>     p 3
| 32>       1       4.2583410000     58.5689740000  2
| 33>       2       1.4707090000      0.4317910000  2
| 34>       3       3.8431140000     12.3169000000  2
| 35>     d 3
| 36>       1       3.0231270000     26.2248980000  2
| 37>       2       0.6503830000      0.9628390000  2
| 38>       3       3.8431140000     12.3169000000  2
| 39>     f 1
| 40>       1       3.8431140000    -12.3169000000  2
| 41>   end
| 42>   NewGTO 37
| 43>     s 2 
| 44>      1       7.4744618040      1.7106146109
| 45>      2       6.7296180594     -2.7010364459
| 46>     s 1 
| 47>      1       2.7816640004      1.0000000000
| 48>     s 1 
| 49>      1       0.5345217515      1.0000000000
| 50>     s 1 
| 51>      1       0.2236879303      1.0000000000
| 52>     s 1 
| 53>      1       0.0324104071      1.0000000000
| 54>     s 1 
| 55>      1       0.0141710474      1.0000000000
| 56>     p 4 
| 57>      1       5.6720643194      0.0525368698
| 58>      2       3.3320183956     -0.2018427941
| 59>      3       0.8015005491      0.4674711930
| 60>      4       0.3630222023      0.6406638595
| 61>     p 1 
| 62>      1       0.1573392439      1.0000000000
| 63>     p 1 
| 64>      1       0.0400000000      1.0000000000
| 65>     p 1 
| 66>      1       0.0160000000      1.0000000000
| 67>   end
| 68>   NewAuxGTO 37
| 69>     S 1
| 70>      1 1310.72 1.0
| 71>     S 1
| 72>      1  655.36 1.0
| 73>     S 1
| 74>      1  327.68 1.0
| 75>     S 1
| 76>      1  163.84 1.0
| 77>     S 1
| 78>      1   81.82 1.0
| 79>     S 1
| 80>      1   40.96 1.0
| 81>     S 1
| 82>      1   20.48 1.0
| 83>     S 1
| 84>      1   10.24 1.0
| 85>     S 1
| 86>      1    5.12 1.0
| 87>     S 1
| 88>      1    2.56 1.0
| 89>     S 1
| 90>      1    1.28 1.0
| 91>     S 1
| 92>      1    0.64 1.0
| 93>     S 1
| 94>      1    0.32 1.0
| 95>     S 1
| 96>      1    0.16 1.0
| 97>     S 1
| 98>      1    0.08 1.0
| 99>     S 1
|100>      1    0.04 1.0
|101>     S 1
|102>      1    0.02 1.0
|103>     S 1
|104>      1    0.01 1.0
|105>   end
|106> end
|107> 
|108> * xyz 0 2
|109> 37  0.0 0.0 0.0
|110> *
|111> 
|112> 
|113>                          ****END OF INPUT****
================================================================================

                       ****************************
                       * Single Point Calculation *
                       ****************************

---------------------------------
CARTESIAN COORDINATES (ANGSTROEM)
---------------------------------
  Rb     0.000000    0.000000    0.000000

----------------------------
CARTESIAN COORDINATES (A.U.)
----------------------------
  NO LB      ZA    FRAG     MASS         X           Y           Z
   0 Rb    9.0000*   0    85.479    0.000000    0.000000    0.000000
* core charge reduced due to ECP

--------------------------------
INTERNAL COORDINATES (ANGSTROEM)
--------------------------------
 Rb     0   0   0     0.000000000000     0.00000000     0.00000000

---------------------------
INTERNAL COORDINATES (A.U.)
---------------------------
 Rb     0   0   0     0.000000000000     0.00000000     0.00000000

---------------------
BASIS SET INFORMATION
---------------------
There are 1 groups of distinct atoms

 Group   1 Type Rb  : 7s7p contracted to 6s4p pattern {211111/4111}

Atom   0Rb   basis set group =>   1
---------------------------------
AUXILIARY/J BASIS SET INFORMATION
---------------------------------
There are 1 groups of distinct atoms

 Group   1 Type Rb  : 18s contracted to 18s pattern {111111111111111111}

Atom   0Rb   basis set group =>   1
-------------------------
ECP PARAMETER INFORMATION
-------------------------

 Group 1, Type Rb ECP (replacing 28 core electrons, lmax=3)

Atom   0Rb   ECP group =>   1

------------------------------------------------------------------------------
                           ORCA GTO INTEGRAL CALCULATION
------------------------------------------------------------------------------

                         BASIS SET STATISTICS AND STARTUP INFO

 # of primitive gaussian shells          ...   14
 # of primitive gaussian functions       ...   28
 # of contracted shells                  ...   10
 # of contracted basis functions         ...   18
 Highest angular momentum                ...    1
 Maximum contraction depth               ...    4
 Integral package used                   ... LIBINT
 Integral threshhold            Thresh   ...  1.000e-10
 Primitive cut-off              TCut     ...  1.000e-11
 Storage cut-off                TCutStore... -1.000e+00
 Buffer length                           ... 1048576 integrals/buffer
 Generate file with integrals 4 distinct ...false


------------------------------ INTEGRAL EVALUATION ----------------------------


 * One electron integrals 

   ECP integrals                         ... done
 Pre-screening matrix                    ... done
 Shell pair data                         ... done (   0.000 sec)
 Statistics run                          ... done
 Maximum amount of storage needed        ...     0 MB
 Maximum amount of storage dedicated     ... 500000 MB
 Beginning two electron integral evaluation:
 Starting repulsion integrals
  <ss|ss>  ...          231 b.         0 skpd (  0.0%)     0.000 s. (  0.000 ms/b)
  <ss|sp>  ...          504 b.         0 skpd (  0.0%)     0.000 s. (  0.000 ms/b)
  <ss|pp>  ...          210 b.         0 skpd (  0.0%)     0.000 s. (  0.001 ms/b)
  <sp|sp>  ...          300 b.         0 skpd (  0.0%)     0.000 s. (  0.000 ms/b)
  <sp|pp>  ...          240 b.         0 skpd (  0.0%)     0.000 s. (  0.001 ms/b)
  <pp|pp>  ...           55 b.         0 skpd (  0.0%)     0.000 s. (  0.005 ms/b)


                                      INTEGRAL STATISTICS

Integral type statistics:
 Number of integrals retained            ...      14706 
 One   Center Integrals retained         ...      14706 (100.0%)
 Two   Center Integrals retained         ...          0 (  0.0%)
 Three Center Integrals retained         ...          0 (  0.0%)
 Four  Center Integrals retained         ...          0 (  0.0%)

Storage statistics:
 Number of char integrals                ...          0 (  0.0%)
 Number of short int integrals           ...          0 (  0.0%)
 Number of double/float integrals        ...      14706 (100.0%)
 Amount of memory used                   ...          0 MB
 Amount of memory estimated              ...          0 MB ( 94.7%)

Prescreening statistics:
 Total number of shell quadruples        ...       1540 
 Number of skipped shell quadruples      ...          0 (  0.0%)
 # of negligible batches done            ...          0 (  0.0%)

Timings:
 Total evaluation time               ...     0.148 sec (   0.002 min)
 One electron matrix time            ...     0.010 sec (   0.000 min) =  7.1%
 Schwartz matrix evaluation time     ...     0.069 sec (   0.001 min) = 46.8%
 Statistics run                      ...     0.000 sec (   0.000 min) =  0.1%
 Repulsion integral time             ...     0.001 sec (   0.000 min) =  0.6%

-------------------------------------------------------------------------------
                                 ORCA SCF
-------------------------------------------------------------------------------

------------
SCF SETTINGS
------------
Hamiltonian:
 Ab initio Hamiltonian  Method          .... Hartree-Fock(GTOs)


General Settings:
 Integral files         IntName         .... 37_Rb_atom37
 Hartree-Fock type      HFTyp           .... ROHF
 Total Charge           Charge          ....    0
 Multiplicity           Mult            ....    2
 Number of Electrons    NEL             ....    9
 Basis Dimension        Dim             ....   18
 Nuclear Repulsion      ENuc            ....      0.0000000000 Eh

Convergence Acceleration:
 DIIS                   CNVDIIS         .... on
   Start iteration      DIISMaxIt       ....    12
   Startup error        DIISStart       ....  0.200000
   # of expansion vecs  DIISMaxEq       ....     5
   Bias factor          DIISBfac        ....   1.050
   Max. coefficient     DIISMaxC        ....  10.000
 Newton-Raphson         CNVNR           .... off
 SOSCF                  CNVSOSCF        .... off
 Level Shifting         CNVShift        .... on
   Level shift para.    LevelShift      ....    1.0000
   Turn off err/grad.   ShiftErr        ....    0.0010
 Zerner damping         CNVZerner       .... off
 Static damping         CNVDamp         .... on
   Fraction old density DampFac         ....    0.7000
   Max. Damping (<1)    DampMax         ....    0.9800
   Min. Damping (>=0)   DampMin         ....    0.0000
   Turn off err/grad.   DampErr         ....    0.1000
 Fernandez-Rico         CNVRico         .... off

SCF Procedure:
 Maximum # iterations   MaxIter         ....  1000
 SCF integral mode      SCFMode         .... Conventional
 Integral Threshold     Thresh          ....  1.000e-10 Eh
 Primitive CutOff       TCut            ....  1.000e-11 Eh
 Integral Buffer length BufferLength    .... 1048576
 Integral index format  IndFormat       ....     0
 Integral value format  ValFormat       ....     0
 Integral Storage       Thresh          ....  1.000e-10 Eh

Convergence Tolerance:
 Convergence Check Mode ConvCheckMode   .... Total+1el-Energy
 Convergence forced     ConvForced      .... 0
 Energy Change          TolE            ....  1.000e-06 Eh
 1-El. energy change                    ....  1.000e-03 Eh
 DIIS Error             TolErr          ....  1.000e-06


Diagonalization of the overlap matrix:
Smallest eigenvalue                        ... 2.760e-02
Time for diagonalization                   ...    0.000 sec
Threshold for overlap eigenvalues          ... 1.000e-08
Number of eigenvalues below threshold      ... 0
Time for construction of square roots      ...    0.001 sec
Total time needed                          ...    0.002 sec

--------------------
INITIAL GUESS: HCORE
--------------------
AVERAGE-CONFIGURATION (SAHF) CASE FOUND

-------------------
FINAL ROHF SETTINGS
-------------------
Number of operators             ... 2
  operator   0:   4 orbitals   8 electrons n(mue)= 2.000
  operator   1:   1 orbitals   1 electrons n(mue)= 1.000
Vector coupling coefficients a and b (Zerner convention):
   1.000    1.000           1.000    1.000 
   1.000    0.000           1.000    0.000 

                      -----------------
                      INTIAL GUESS DONE 
                      -----------------

 InCore treatment chosen:
   Memory dedicated               ...    1024 MB
   Memory needed                  ...      0 MB
   Number of tiny    integrals    ...       0
   Number of small   integrals    ...       0
   Number of regular integrals    ...   14706

--------------
SCF ITERATIONS
--------------
ITER       Energy         Delta-E        Max-DP      RMS-DP      [F,P]     Damp
  0    -22.3338655086   0.000000000000 0.71933208  0.04619739  0.3415356 0.7000
  1    -22.8254532640  -0.491587755422 0.92110738  0.06098475  0.2271545 0.7000
                            ****Activating DIIS****
  2    -23.1509939540  -0.325540689978 0.98256174  0.07009346  0.1957374 0.7000
  3    -23.4237646048  -0.272770650765 0.78977033  0.05666831  0.1211972 0.7000
  4    -23.5374725351  -0.113707930374 2.18140262  0.14925374  0.0776349 0.0000
  5    -23.7772153868  -0.239742851665 0.09018061  0.00727870  0.0286417 0.0000
  6    -23.7822537297  -0.005038342839 0.16121284  0.01052036  0.0254807 0.0000
  7    -23.7868127530  -0.004559023380 0.12669353  0.00940194  0.0168769 0.0000
  8    -23.7898101994  -0.002997446408 0.17791752  0.00994069  0.0158157 0.0000
  9    -23.7922228057  -0.002412606233 0.17791906  0.00882617  0.0145765 0.0000
 10    -23.7939802704  -0.001757464702 0.16948743  0.00817333  0.0134331 0.0000
 11    -23.7954792635  -0.001498993160 0.25186237  0.01186028  0.0122988 0.0000
 12    -23.7974719134  -0.001992649880 0.41151367  0.01876838  0.0105122 0.0000
 13    -23.8001536562  -0.002681742734 0.35556032  0.01574340  0.0072370 0.0000
 14    -23.8017744541  -0.001620797995 0.19881832  0.00875190  0.0039283 0.0000
 15    -23.8022994201  -0.000524965936 0.09465413  0.00421529  0.0018045 0.0000
 16    -23.8024215610  -0.000122140943 0.02503654  0.00113349  0.0007964 0.0000
 17    -23.8024382965  -0.000016735489 0.00754631  0.00036452  0.0006077 0.0000
 18    -23.8024427721  -0.000004475634 0.00320769  0.00017162  0.0003293 0.0000
 19    -23.8024443950  -0.000001622859 0.00271066  0.00012825  0.0002171 0.0000
                 **** Energy Check signals convergence ****

               *****************************************************
               *                     SUCCESS                       *
               *           SCF CONVERGED AFTER  20 CYCLES          *
               *****************************************************


----------------
TOTAL SCF ENERGY
----------------

Total Energy       :          -23.80244515 Eh            -647.69746 eV

Components:
Nuclear Repulsion  :            0.00000000 Eh               0.00000 eV
Electronic Energy  :          -23.80244515 Eh            -647.69746 eV
One Electron Energy:          -39.45725080 Eh           -1073.68638 eV
Two Electron Energy:           15.65480565 Eh             425.98892 eV

Virial components:
Potential Energy   :          -31.39595702 Eh            -854.32742 eV
Kinetic Energy     :            7.59351187 Eh             206.62996 eV
Virial Ratio       :            4.13457667


---------------
SCF CONVERGENCE
---------------

  Last Energy change         ...   -7.5592e-07  Tolerance :   1.0000e-06
  Last MAX-Density change    ...    3.4617e-03  Tolerance :   1.0000e-05
  Last RMS-Density change    ...    1.5866e-04  Tolerance :   1.0000e-06
  Last DIIS Error            ...    1.7999e-04  Tolerance :   1.0000e-06

             **** THE GBW FILE WAS UPDATED (37_Rb_atom37.gbw) ****
             **** DENSITY FILE WAS UPDATED (37_Rb_atom37.scfp) ****
             **** ENERGY FILE WAS UPDATED (37_Rb_atom37.en.tmp) ****
             **** THE GBW FILE WAS UPDATED (37_Rb_atom37.gbw) ****
             **** DENSITY FILE WAS UPDATED (37_Rb_atom37.scfp) ****
----------------
ORBITAL ENERGIES
----------------

  NO   OCC          E(Eh)            E(eV) 
   0   2.0000      -1.577033       -42.9133 
   1   2.0000      -0.808771       -22.0078 
   2   2.0000      -0.808771       -22.0078 
   3   2.0000      -0.808771       -22.0078 
   4   1.0000      -0.140071        -3.8115 
   5   0.0000      -0.083913        -2.2834 
   6   0.0000      -0.083913        -2.2834 
   7   0.0000      -0.083913        -2.2834 
   8   0.0000      -0.045843        -1.2475 
   9   0.0000      -0.015043        -0.4093 
  10   0.0000      -0.015043        -0.4093 
  11   0.0000      -0.015043        -0.4093 
  12   0.0000       0.526627        14.3302 
  13   0.0000       0.526627        14.3302 
  14   0.0000       0.526627        14.3302 
  15   0.0000       0.676715        18.4144 
  16   0.0000      12.912716       351.3729 
  17   0.0000      39.213946      1067.0657 
--------------------------
ATOM BASIS FOR ELEMENT Rb
--------------------------
 NewGTO Rb
 S 7
    1          7.474461804000        -0.279043430566
    2          6.729618059400         0.440605657842
    3          2.781664000400        -0.553420615094
    4          0.534521751500         0.793962982137
    5          0.223687930300         0.435363679775
    6          0.032410407100         0.008054943067
    7          0.014171047400        -0.002558935331
 S 7
    1          7.474461804000        -0.063767251697
    2          6.729618059400         0.100687594851
    3          2.781664000400        -0.133309128897
    4          0.534521751500         0.227526586994
    5          0.223687930300         0.283204607744
    6          0.032410407100        -0.780063364970
    7          0.014171047400        -0.356146288119
 S 7
    1          7.474461804000        -0.040996364279
    2          6.729618059400         0.064732683423
    3          2.781664000400        -0.089794820954
    4          0.534521751500         0.096658013688
    5          0.223687930300         0.434286771676
    6          0.032410407100        -2.409530336807
    7          0.014171047400         2.268056493124
 S 7
    1          7.474461804000        -0.410736775241
    2          6.729618059400         0.648547599516
    3          2.781664000400        -0.810441737826
    4          0.534521751500         2.946413798908
    5          0.223687930300        -2.988061215423
    6          0.032410407100         1.352885945233
    7          0.014171047400        -0.710995551407
 S 7
    1          7.474461804000        -3.217449364006
    2          6.729618059400         5.080307358327
    3          2.781664000400        -3.152524909374
    4          0.534521751500         1.661708628119
    5          0.223687930300        -0.965114298187
    6          0.032410407100         0.296884241766
    7          0.014171047400        -0.156597129131
 S 7
    1          7.474461804000        -3.855637013704
    2          6.729618059400         6.087996694181
    3          2.781664000400        -1.734362091604
    4          0.534521751500         0.596506886007
    5          0.223687930300        -0.331343489018
    6          0.032410407100         0.101108162137
    7          0.014171047400        -0.053418102344
 P 7
    1          5.672064319400        -0.042772012456
    2          3.332018395600         0.164326929570
    3          0.801500549100        -0.380583840759
    4          0.363022202300        -0.521585748887
    5          0.157339243900        -0.234596394819
    6          0.040000000000        -0.011955909615
    7          0.016000000000         0.002069637717
 P 7
    1          5.672064319400        -0.005077441722
    2          3.332018395600         0.019507158078
    3          0.801500549100        -0.045178895286
    4          0.363022202300        -0.061917153090
    5          0.157339243900        -0.002202773452
    6          0.040000000000        -0.163534474412
    7          0.016000000000         1.122590476031
 P 7
    1          5.672064319400        -0.009437981056
    2          3.332018395600         0.036260029849
    3          0.801500549100        -0.083978818700
    4          0.363022202300        -0.115091999058
    5          0.157339243900        -0.321760391573
    6          0.040000000000         1.836712816854
    7          0.016000000000        -1.241687623283
 P 7
    1          5.672064319400        -0.069106433017
    2          3.332018395600         0.265501838681
    3          0.801500549100        -0.614906575315
    4          0.363022202300        -0.842722344547
    5          0.157339243900         1.950387820597
    6          0.040000000000        -1.158737071870
    7          0.016000000000         0.510582444119
 end
  // -----------------------------------------------
  // The basis set
  // -----------------------------------------------
  BAS[ATNO] = new BFNGauss[NSH];
  // Basis function   1 L = s
  InitBFNGauss(BAS[ATNO][  0]);
  BAS[ATNO][  0].l  = 0;
  BAS[ATNO][  0].ng = 7;
  BAS[ATNO][  0].a[  0] =         7.474461804000;     BAS[ATNO][  0].d[  0] =        -0.279043430566;
  BAS[ATNO][  0].a[  1] =         6.729618059400;     BAS[ATNO][  0].d[  1] =         0.440605657842;
  BAS[ATNO][  0].a[  2] =         2.781664000400;     BAS[ATNO][  0].d[  2] =        -0.553420615094;
  BAS[ATNO][  0].a[  3] =         0.534521751500;     BAS[ATNO][  0].d[  3] =         0.793962982137;
  BAS[ATNO][  0].a[  4] =         0.223687930300;     BAS[ATNO][  0].d[  4] =         0.435363679775;
  BAS[ATNO][  0].a[  5] =         0.032410407100;     BAS[ATNO][  0].d[  5] =         0.008054943067;
  BAS[ATNO][  0].a[  6] =         0.014171047400;     BAS[ATNO][  0].d[  6] =        -0.002558935331;

  // Basis function   2 L = s
  InitBFNGauss(BAS[ATNO][  1]);
  BAS[ATNO][  1].l  = 0;
  BAS[ATNO][  1].ng = 7;
  BAS[ATNO][  1].a[  0] =         7.474461804000;     BAS[ATNO][  1].d[  0] =         0.063767251697;
  BAS[ATNO][  1].a[  1] =         6.729618059400;     BAS[ATNO][  1].d[  1] =        -0.100687594851;
  BAS[ATNO][  1].a[  2] =         2.781664000400;     BAS[ATNO][  1].d[  2] =         0.133309128897;
  BAS[ATNO][  1].a[  3] =         0.534521751500;     BAS[ATNO][  1].d[  3] =        -0.227526586994;
  BAS[ATNO][  1].a[  4] =         0.223687930300;     BAS[ATNO][  1].d[  4] =        -0.283204607744;
  BAS[ATNO][  1].a[  5] =         0.032410407100;     BAS[ATNO][  1].d[  5] =         0.780063364970;
  BAS[ATNO][  1].a[  6] =         0.014171047400;     BAS[ATNO][  1].d[  6] =         0.356146288119;

  // Basis function   3 L = s
  InitBFNGauss(BAS[ATNO][  2]);
  BAS[ATNO][  2].l  = 0;
  BAS[ATNO][  2].ng = 7;
  BAS[ATNO][  2].a[  0] =         7.474461804000;     BAS[ATNO][  2].d[  0] =         0.040996364279;
  BAS[ATNO][  2].a[  1] =         6.729618059400;     BAS[ATNO][  2].d[  1] =        -0.064732683423;
  BAS[ATNO][  2].a[  2] =         2.781664000400;     BAS[ATNO][  2].d[  2] =         0.089794820954;
  BAS[ATNO][  2].a[  3] =         0.534521751500;     BAS[ATNO][  2].d[  3] =        -0.096658013688;
  BAS[ATNO][  2].a[  4] =         0.223687930300;     BAS[ATNO][  2].d[  4] =        -0.434286771676;
  BAS[ATNO][  2].a[  5] =         0.032410407100;     BAS[ATNO][  2].d[  5] =         2.409530336807;
  BAS[ATNO][  2].a[  6] =         0.014171047400;     BAS[ATNO][  2].d[  6] =        -2.268056493124;

  // Basis function   4 L = s
  InitBFNGauss(BAS[ATNO][  3]);
  BAS[ATNO][  3].l  = 0;
  BAS[ATNO][  3].ng = 7;
  BAS[ATNO][  3].a[  0] =         7.474461804000;     BAS[ATNO][  3].d[  0] =         0.410736775241;
  BAS[ATNO][  3].a[  1] =         6.729618059400;     BAS[ATNO][  3].d[  1] =        -0.648547599516;
  BAS[ATNO][  3].a[  2] =         2.781664000400;     BAS[ATNO][  3].d[  2] =         0.810441737826;
  BAS[ATNO][  3].a[  3] =         0.534521751500;     BAS[ATNO][  3].d[  3] =        -2.946413798908;
  BAS[ATNO][  3].a[  4] =         0.223687930300;     BAS[ATNO][  3].d[  4] =         2.988061215423;
  BAS[ATNO][  3].a[  5] =         0.032410407100;     BAS[ATNO][  3].d[  5] =        -1.352885945233;
  BAS[ATNO][  3].a[  6] =         0.014171047400;     BAS[ATNO][  3].d[  6] =         0.710995551407;

  // Basis function   5 L = s
  InitBFNGauss(BAS[ATNO][  4]);
  BAS[ATNO][  4].l  = 0;
  BAS[ATNO][  4].ng = 7;
  BAS[ATNO][  4].a[  0] =         7.474461804000;     BAS[ATNO][  4].d[  0] =        -3.217449364006;
  BAS[ATNO][  4].a[  1] =         6.729618059400;     BAS[ATNO][  4].d[  1] =         5.080307358327;
  BAS[ATNO][  4].a[  2] =         2.781664000400;     BAS[ATNO][  4].d[  2] =        -3.152524909374;
  BAS[ATNO][  4].a[  3] =         0.534521751500;     BAS[ATNO][  4].d[  3] =         1.661708628119;
  BAS[ATNO][  4].a[  4] =         0.223687930300;     BAS[ATNO][  4].d[  4] =        -0.965114298187;
  BAS[ATNO][  4].a[  5] =         0.032410407100;     BAS[ATNO][  4].d[  5] =         0.296884241766;
  BAS[ATNO][  4].a[  6] =         0.014171047400;     BAS[ATNO][  4].d[  6] =        -0.156597129131;

  // Basis function   6 L = s
  InitBFNGauss(BAS[ATNO][  5]);
  BAS[ATNO][  5].l  = 0;
  BAS[ATNO][  5].ng = 7;
  BAS[ATNO][  5].a[  0] =         7.474461804000;     BAS[ATNO][  5].d[  0] =        -3.855637013704;
  BAS[ATNO][  5].a[  1] =         6.729618059400;     BAS[ATNO][  5].d[  1] =         6.087996694181;
  BAS[ATNO][  5].a[  2] =         2.781664000400;     BAS[ATNO][  5].d[  2] =        -1.734362091604;
  BAS[ATNO][  5].a[  3] =         0.534521751500;     BAS[ATNO][  5].d[  3] =         0.596506886007;
  BAS[ATNO][  5].a[  4] =         0.223687930300;     BAS[ATNO][  5].d[  4] =        -0.331343489018;
  BAS[ATNO][  5].a[  5] =         0.032410407100;     BAS[ATNO][  5].d[  5] =         0.101108162137;
  BAS[ATNO][  5].a[  6] =         0.014171047400;     BAS[ATNO][  5].d[  6] =        -0.053418102344;

  // Basis function   7 L = p
  InitBFNGauss(BAS[ATNO][  6]);
  BAS[ATNO][  6].l  = 1;
  BAS[ATNO][  6].ng = 7;
  BAS[ATNO][  6].a[  0] =         5.672064319400;     BAS[ATNO][  6].d[  0] =         0.042772012456;
  BAS[ATNO][  6].a[  1] =         3.332018395600;     BAS[ATNO][  6].d[  1] =        -0.164326929570;
  BAS[ATNO][  6].a[  2] =         0.801500549100;     BAS[ATNO][  6].d[  2] =         0.380583840759;
  BAS[ATNO][  6].a[  3] =         0.363022202300;     BAS[ATNO][  6].d[  3] =         0.521585748887;
  BAS[ATNO][  6].a[  4] =         0.157339243900;     BAS[ATNO][  6].d[  4] =         0.234596394819;
  BAS[ATNO][  6].a[  5] =         0.040000000000;     BAS[ATNO][  6].d[  5] =         0.011955909615;
  BAS[ATNO][  6].a[  6] =         0.016000000000;     BAS[ATNO][  6].d[  6] =        -0.002069637717;

  // Basis function   8 L = p
  InitBFNGauss(BAS[ATNO][  7]);
  BAS[ATNO][  7].l  = 1;
  BAS[ATNO][  7].ng = 7;
  BAS[ATNO][  7].a[  0] =         5.672064319400;     BAS[ATNO][  7].d[  0] =        -0.005077441722;
  BAS[ATNO][  7].a[  1] =         3.332018395600;     BAS[ATNO][  7].d[  1] =         0.019507158078;
  BAS[ATNO][  7].a[  2] =         0.801500549100;     BAS[ATNO][  7].d[  2] =        -0.045178895286;
  BAS[ATNO][  7].a[  3] =         0.363022202300;     BAS[ATNO][  7].d[  3] =        -0.061917153090;
  BAS[ATNO][  7].a[  4] =         0.157339243900;     BAS[ATNO][  7].d[  4] =        -0.002202773452;
  BAS[ATNO][  7].a[  5] =         0.040000000000;     BAS[ATNO][  7].d[  5] =        -0.163534474412;
  BAS[ATNO][  7].a[  6] =         0.016000000000;     BAS[ATNO][  7].d[  6] =         1.122590476031;

  // Basis function   9 L = p
  InitBFNGauss(BAS[ATNO][  8]);
  BAS[ATNO][  8].l  = 1;
  BAS[ATNO][  8].ng = 7;
  BAS[ATNO][  8].a[  0] =         5.672064319400;     BAS[ATNO][  8].d[  0] =        -0.009437981056;
  BAS[ATNO][  8].a[  1] =         3.332018395600;     BAS[ATNO][  8].d[  1] =         0.036260029849;
  BAS[ATNO][  8].a[  2] =         0.801500549100;     BAS[ATNO][  8].d[  2] =        -0.083978818700;
  BAS[ATNO][  8].a[  3] =         0.363022202300;     BAS[ATNO][  8].d[  3] =        -0.115091999058;
  BAS[ATNO][  8].a[  4] =         0.157339243900;     BAS[ATNO][  8].d[  4] =        -0.321760391573;
  BAS[ATNO][  8].a[  5] =         0.040000000000;     BAS[ATNO][  8].d[  5] =         1.836712816854;
  BAS[ATNO][  8].a[  6] =         0.016000000000;     BAS[ATNO][  8].d[  6] =        -1.241687623283;

  // Basis function  10 L = p
  InitBFNGauss(BAS[ATNO][  9]);
  BAS[ATNO][  9].l  = 1;
  BAS[ATNO][  9].ng = 7;
  BAS[ATNO][  9].a[  0] =         5.672064319400;     BAS[ATNO][  9].d[  0] =        -0.069106433017;
  BAS[ATNO][  9].a[  1] =         3.332018395600;     BAS[ATNO][  9].d[  1] =         0.265501838681;
  BAS[ATNO][  9].a[  2] =         0.801500549100;     BAS[ATNO][  9].d[  2] =        -0.614906575315;
  BAS[ATNO][  9].a[  3] =         0.363022202300;     BAS[ATNO][  9].d[  3] =        -0.842722344547;
  BAS[ATNO][  9].a[  4] =         0.157339243900;     BAS[ATNO][  9].d[  4] =         1.950387820597;
  BAS[ATNO][  9].a[  5] =         0.040000000000;     BAS[ATNO][  9].d[  5] =        -1.158737071870;
  BAS[ATNO][  9].a[  6] =         0.016000000000;     BAS[ATNO][  9].d[  6] =         0.510582444119;

-------------------------------------------
RADIAL EXPECTATION VALUES <R**-3> TO <R**3>
-------------------------------------------
   0 :     0.000000     0.630959     0.749619     1.492164     2.486604     4.620723
   1 :     0.000000     0.063998     0.215723     5.533476    34.943763   248.169354
   2 :     0.000000     0.035955     0.145995     9.039966    93.949031  1055.433503
   3 :     0.000000     0.386422     0.520386     2.897664    13.539694   100.331684
   4 :     0.000000     2.896452     1.535466     0.841581     1.300265     5.638322
   5 :     0.000000    30.280876     4.352649     0.333448     0.228549     0.688040
   6 :     0.422293     0.488522     0.653301     1.746368     3.473052     7.847886
   7 :     0.422293     0.488522     0.653301     1.746368     3.473052     7.847886
   8 :     0.422293     0.488522     0.653301     1.746368     3.473052     7.847886
   9 :     0.005571     0.019829     0.125747     8.916634    86.518273   901.751638
  10 :     0.005571     0.019829     0.125747     8.916634    86.518273   901.751638
  11 :     0.005571     0.019829     0.125747     8.916634    86.518273   901.751638
  12 :     0.024047     0.050284     0.185742     7.067146    62.780887   662.611847
  13 :     0.024047     0.050284     0.185742     7.067146    62.780887   662.611847
  14 :     0.024047     0.050284     0.185742     7.067146    62.780887   662.611847
  15 :     0.206608     0.257362     0.423967     3.471019    17.942340   135.053727
  16 :     0.206608     0.257362     0.423967     3.471019    17.942340   135.053727
  17 :     0.206608     0.257362     0.423967     3.471019    17.942340   135.053727
Making the total density                ... o.k.
o.k.
Initializing the integrals              ... done
Making exponents                        ... done
Making rho(0)                           ... done (         0.000700333)
Integral calculation                    ... Two index integrals                     ... done
Solving the equation system             ... done
atomic density will be written to file 37_Rb_atom37.adf

-------
TIMINGS
-------

Total SCF time: 0 days 0 hours 0 min 0 sec 

Total time                  ....       0.572 sec
Sum of individual times     ....       0.210 sec  ( 36.7%)

Fock matrix formation       ....       0.151 sec  ( 26.4%)
Diagonalization             ....       0.024 sec  (  4.2%)
Density matrix formation    ....       0.000 sec  (  0.0%)
Population analysis         ....       0.000 sec  (  0.0%)
Initial guess               ....       0.000 sec  (  0.0%)
Orbital Transformation      ....       0.000 sec  (  0.0%)
Orbital Orthonormalization  ....       0.000 sec  (  0.0%)
DIIS solution               ....       0.034 sec  (  6.0%)

-------------------------   --------------------
FINAL SINGLE POINT ENERGY       -23.802445150928
-------------------------   --------------------


                            ***************************************
                            *     ORCA property calculations      *
                            ***************************************

                                    ---------------------
                                    Active property flags
                                    ---------------------
   (+) Dipole Moment


------------------------------------------------------------------------------
                       ORCA ELECTRIC PROPERTIES CALCULATION
------------------------------------------------------------------------------

Dipole Moment Calculation                       ... on
Quadrupole Moment Calculation                   ... off
Polarizability Calculation                      ... off
GBWName                                         ... 37_Rb_atom37.gbw
Electron density file                           ... 37_Rb_atom37.scfp
The origin for moment calculation is the CENTER OF MASS  = ( 0.000000,  0.000000  0.000000)

-------------
DIPOLE MOMENT
-------------
                                X             Y             Z
Electronic contribution:     -0.00000      -0.00000      -0.00000
Nuclear contribution   :      0.00000       0.00000       0.00000
                        -----------------------------------------
Total Dipole Moment    :     -0.00000      -0.00000      -0.00000
                        -----------------------------------------
Magnitude (a.u.)       :      0.00000
Magnitude (Debye)      :      0.00000



--------------------
Rotational spectrum 
--------------------
 
Rotational constants in cm-1:     0.000000     0.000000     0.000000 
Rotational constants in MHz :     0.000000     0.000000     0.000000 

 Dipole components along the rotational axes: 
x,y,z [a.u.] :    -0.000000    -0.000000    -0.000000 
x,y,z [Debye]:    -0.000000    -0.000000    -0.000000 

 

Timings for individual modules:

Sum of individual times         ...        0.793 sec (=   0.013 min)
GTO integral calculation        ...        0.201 sec (=   0.003 min)  25.3 %
SCF iterations                  ...        0.592 sec (=   0.010 min)  74.7 %
                             ****ORCA TERMINATED NORMALLY****
TOTAL RUN TIME: 0 days 0 hours 0 minutes 0 seconds 988 msec
