
                                 *****************
                                 * O   R   C   A *
                                 *****************

           --- An Ab Initio, DFT and Semiempirical electronic structure package ---

                  #######################################################
                  #                        -***-                        #
                  #          Department of theory and spectroscopy      #
                  #               Directorship: Frank Neese             #
                  #        Max Planck Institute fuer Kohlenforschung    #
                  #                Kaiser Wilhelm Platz 1               #
                  #                 D-45470 Muelheim/Ruhr               #
                  #                      Germany                        #
                  #                                                     #
                  #                  All rights reserved                #
                  #                        -***-                        #
                  #######################################################


                         Program Version 4.2.0 -  RELEASE  -


 With contributions from (in alphabetic order):
   Daniel Aravena         : Magnetic Suceptibility
   Michael Atanasov       : Ab Initio Ligand Field Theory (pilot matlab implementation)
   Alexander A. Auer      : GIAO ZORA, VPT2
   Ute Becker             : Parallelization
   Giovanni Bistoni       : ED, misc. LED, open-shell LED, HFLED
   Martin Brehm           : Molecular dynamics
   Dmytro Bykov           : SCF Hessian
   Vijay G. Chilkuri      : MRCI spin determinant printing, contributions to CSF-ICE
   Dipayan Datta          : RHF DLPNO-CCSD density
   Achintya Kumar Dutta   : EOM-CC, STEOM-CC
   Dmitry Ganyushin       : Spin-Orbit,Spin-Spin,Magnetic field MRCI
   Miquel Garcia          : C-PCM Hessian, Gaussian charge scheme
   Yang Guo               : DLPNO-NEVPT2, CIM, IAO-localization
   Andreas Hansen         : Spin unrestricted coupled pair/coupled cluster methods
   Benjamin Helmich-Paris : CASSCF linear response (MC-RPA)
   Lee Huntington         : MR-EOM, pCC
   Robert Izsak           : Overlap fitted RIJCOSX, COSX-SCS-MP3, EOM
   Christian Kollmar      : KDIIS, OOCD, Brueckner-CCSD(T), CCSD density
   Simone Kossmann        : Meta GGA functionals, TD-DFT gradient, OOMP2, MP2 Hessian
   Martin Krupicka        : AUTO-CI
   Lucas Lang             : DCDCAS
   Dagmar Lenk            : GEPOL surface, SMD
   Dimitrios Liakos       : Extrapolation schemes; Compound Job, initial MDCI parallelization
   Dimitrios Manganas     : Further ROCIS development; embedding schemes
   Dimitrios Pantazis     : SARC Basis sets
   Taras Petrenko         : DFT Hessian,TD-DFT gradient, ASA, ECA, R-Raman, ABS, FL, XAS/XES, NRVS
   Peter Pinski           : DLPNO-MP2, DLPNO-MP2 Gradient
   Christoph Reimann      : Effective Core Potentials
   Marius Retegan         : Local ZFS, SOC
   Christoph Riplinger    : Optimizer, TS searches, QM/MM, DLPNO-CCSD(T), (RO)-DLPNO pert. Triples
   Tobias Risthaus        : Range-separated hybrids, TD-DFT gradient, RPA, STAB
   Michael Roemelt        : Original ROCIS implementation
   Masaaki Saitow         : Open-shell DLPNO-CCSD energy and density
   Barbara Sandhoefer     : DKH picture change effects
   Avijit Sen             : IP-ROCIS
   Kantharuban Sivalingam : CASSCF convergence, NEVPT2, FIC-MRCI
   Bernardo de Souza      : ESD, SOC TD-DFT
   Georgi Stoychev        : AutoAux, RI-MP2 NMR
   Willem Van den Heuvel  : Paramagnetic NMR
   Boris Wezisla          : Elementary symmetry handling
   Frank Wennmohs         : Technical directorship


 We gratefully acknowledge several colleagues who have allowed us to
 interface, adapt or use parts of their codes:
   Stefan Grimme, W. Hujo, H. Kruse,             : VdW corrections, initial TS optimization,
                  C. Bannwarth                     DFT functionals, gCP, sTDA/sTD-DF
   Ed Valeev, F. Pavosevic, A. Kumar             : LibInt (2-el integral package), F12 methods
   Garnet Chan, S. Sharma, J. Yang, R. Olivares  : DMRG
   Ulf Ekstrom                                   : XCFun DFT Library
   Mihaly Kallay                                 : mrcc  (arbitrary order and MRCC methods)
   Andreas Klamt, Michael Diedenhofen            : otool_cosmo (COSMO solvation model)
   Jiri Pittner, Ondrej Demel                    : Mk-CCSD
   Frank Weinhold                                : gennbo (NPA and NBO analysis)
   Christopher J. Cramer and Donald G. Truhlar   : smd solvation model
   Lars Goerigk                                  : TD-DFT with DH, B97 family of functionals
   V. Asgeirsson, H. Jonsson                     : NEB implementation
   FAccTs GmbH                                   : IRC, NEB, NEB-TS, Multilevel, MM, QM/MM, CI optimization
   S Lehtola, MJT Oliveira, MAL Marques          : LibXC Library


 Your calculation uses the libint2 library for the computation of 2-el integrals
 For citations please refer to: http://libint.valeyev.net

 Your ORCA version has been built with support for libXC version: 4.2.3
 For citations please refer to: https://tddft.org/programs/libxc/

 This ORCA versions uses:
   CBLAS   interface :  Fast vector & matrix operations
   LAPACKE interface :  Fast linear algebra routines
   SCALAPACK package :  Parallel linear algebra routines


----- Orbital basis set information -----
Your calculation utilizes the basis: def2-TZVP
   F. Weigend and R. Ahlrichs, Phys. Chem. Chem. Phys. 7, 3297 (2005).

cite the ECPs for  Y [Def2-ECP] as follows:
Ce-Yb(ecp-28): M. Dolg, H. Stoll, H.Preuss, J. Chem. Phys., 1989, 90, 1730-1734.
Y-Cd(ecp-28), Hf-Hg(ecp-46): D. Andrae,U. Haeussermann, M. Dolg, H. Stoll, H. Preuss, Theor. Chim. Acta, 1990, 77, 123-141.
In-Sb(ecp-28), Tl-Bi(ecp-46): B. Metz, H. Stoll, M. Dolg, J. Chem. Phys., 2000, 113, 2563-2569.
Te-Xe(ecp-28), Po-Rn(ecp-46): K. A. Peterson, D. Figgen, E. Goll, H. Stoll, M. Dolg, J. Chem. Phys., 2003, 119, 11113-11123.
Rb(ecp-28), Cs(ecp-46): T. Leininger, A. Nicklass, W. Kuechle, H. Stoll, M. Dolg, A. Bergner, Chem. Phys. Lett., 1996, 255, 274-280.
Sr(ecp-28), Ba(ecp-46): M. Kaupp, P. V. Schleyer, H. Stoll and H. Preuss, J. Chem. Phys., 1991, 94, 1360-1366.
La(ecp-46): M. Dolg, H. Stoll, A. Savin, H. Preuss, Theor. Chim. Acta, 1989, 75, 173-194.
Lu(ecp-28): X. Cao, M. Dolg, J. Chem. Phys., 2001, 115, 7348-7355.

ECP parameters for  Y [Def2-ECP] have been obtained from:
TURBOMOLE (7.0.2)

================================================================================
                                        WARNINGS
                       Please study these warnings very carefully!
================================================================================


WARNING: your system is open-shell and RHF/RKS was chosen
  ===> : WILL SWITCH to UHF/UKS


WARNING: MDCI localization with Augmented Hessian Foster-Boys
  ===> : Switching off randomization!

WARNING: Post HF methods need fully converged wavefunctions
  ===> : Setting SCFConvForced true
         You can overwrite this default with %scf ConvForced false 


INFO   : the flag for use of LIBINT has been found!

================================================================================
                                       INPUT FILE
================================================================================
NAME = 39_Y.in
|  1> #
|  2> # 39_Y CCSD(T)/Def2-TZVP
|  3> #
|  4> ! CCSD(T) Def2-TZVP tightscf
|  5> 
|  6> *xyz 0 2
|  7>  Y 0.0 0.0 0.0
|  8> *
|  9> 
| 10> %maxcore 5000 
| 11> 
| 12> %pal
| 13> nprocs 24
| 14> end
| 15> 
| 16> 
| 17>                          ****END OF INPUT****
================================================================================

                       ****************************
                       * Single Point Calculation *
                       ****************************

---------------------------------
CARTESIAN COORDINATES (ANGSTROEM)
---------------------------------
   Y     0.000000    0.000000    0.000000

----------------------------
CARTESIAN COORDINATES (A.U.)
----------------------------
  NO LB      ZA    FRAG     MASS         X           Y           Z
   0  Y   11.0000*   0    88.910    0.000000    0.000000    0.000000
* core charge reduced due to ECP

--------------------------------
INTERNAL COORDINATES (ANGSTROEM)
--------------------------------
  Y     0   0   0     0.000000000000     0.00000000     0.00000000

---------------------------
INTERNAL COORDINATES (A.U.)
---------------------------
  Y     0   0   0     0.000000000000     0.00000000     0.00000000

---------------------
BASIS SET INFORMATION
---------------------
There are 1 groups of distinct atoms

 Group   1 Type  Y  : 7s7p5d1f contracted to 6s4p3d1f pattern {211111/4111/311/1}

Atom   0 Y   basis set group =>   1
-------------------------
ECP PARAMETER INFORMATION
-------------------------

 Group 1, Type  Y ECP Def2-ECP (replacing 28 core electrons, lmax=3)

Atom   0 Y   ECP group =>   1



           ************************************************************
           *        Program running with 24 parallel MPI-processes    *
           *              working on a common directory               *
           ************************************************************
------------------------------------------------------------------------------
                           ORCA GTO INTEGRAL CALCULATION
------------------------------------------------------------------------------

                         BASIS SET STATISTICS AND STARTUP INFO

 # of primitive gaussian shells          ...   20
 # of primitive gaussian functions       ...   60
 # of contracted shells                  ...   14
 # of contracted basis functions         ...   40
 Highest angular momentum                ...    3
 Maximum contraction depth               ...    4
 Integral package used                   ... LIBINT
 Integral threshhold            Thresh   ...  2.500e-11
 Primitive cut-off              TCut     ...  2.500e-12


------------------------------ INTEGRAL EVALUATION ----------------------------


 * One electron integrals 

   ECP integrals                         ... done
 Pre-screening matrix                    ... done
 Shell pair data                         ... done (   0.000 sec)



           ************************************************************
           *        Program running with 24 parallel MPI-processes    *
           *              working on a common directory               *
           ************************************************************
-------------------------------------------------------------------------------
                                 ORCA SCF
-------------------------------------------------------------------------------

------------
SCF SETTINGS
------------
Hamiltonian:
 Ab initio Hamiltonian  Method          .... Hartree-Fock(GTOs)


General Settings:
 Integral files         IntName         .... 39_Y
 Hartree-Fock type      HFTyp           .... UHF
 Total Charge           Charge          ....    0
 Multiplicity           Mult            ....    2
 Number of Electrons    NEL             ....   11
 Basis Dimension        Dim             ....   40
 Nuclear Repulsion      ENuc            ....      0.0000000000 Eh

Convergence Acceleration:
 DIIS                   CNVDIIS         .... on
   Start iteration      DIISMaxIt       ....    12
   Startup error        DIISStart       ....  0.200000
   # of expansion vecs  DIISMaxEq       ....     5
   Bias factor          DIISBfac        ....   1.050
   Max. coefficient     DIISMaxC        ....  10.000
 Newton-Raphson         CNVNR           .... off
 SOSCF                  CNVSOSCF        .... off
 Level Shifting         CNVShift        .... on
   Level shift para.    LevelShift      ....    0.2500
   Turn off err/grad.   ShiftErr        ....    0.0010
 Zerner damping         CNVZerner       .... off
 Static damping         CNVDamp         .... on
   Fraction old density DampFac         ....    0.7000
   Max. Damping (<1)    DampMax         ....    0.9800
   Min. Damping (>=0)   DampMin         ....    0.0000
   Turn off err/grad.   DampErr         ....    0.1000
 Fernandez-Rico         CNVRico         .... off

SCF Procedure:
 Maximum # iterations   MaxIter         ....   125
 SCF integral mode      SCFMode         .... Direct
   Integral package                     .... LIBINT
 Reset frequency        DirectResetFreq ....    20
 Integral Threshold     Thresh          ....  2.500e-11 Eh
 Primitive CutOff       TCut            ....  2.500e-12 Eh

Convergence Tolerance:
 Convergence Check Mode ConvCheckMode   .... Total+1el-Energy
 Convergence forced     ConvForced      .... 1
 Energy Change          TolE            ....  1.000e-08 Eh
 1-El. energy change                    ....  1.000e-05 Eh
 DIIS Error             TolErr          ....  5.000e-07


Diagonalization of the overlap matrix:
Smallest eigenvalue                        ... 1.932e-02
Time for diagonalization                   ...    0.001 sec
Threshold for overlap eigenvalues          ... 1.000e-08
Number of eigenvalues below threshold      ... 0
Time for construction of square roots      ...    0.012 sec
Total time needed                          ...    0.013 sec

-------------------
DFT GRID GENERATION
-------------------

General Integration Accuracy     IntAcc      ...  4.340
Radial Grid Type                 RadialGrid  ... Gauss-Chebyshev
Angular Grid (max. acc.)         AngularGrid ... Lebedev-110
Angular grid pruning method      GridPruning ... 3 (G Style)
Weight generation scheme         WeightScheme... Becke
Basis function cutoff            BFCut       ...    1.0000e-11
Integration weight cutoff        WCut        ...    1.0000e-14
Grids for H and He will be reduced by one unit

# of grid points (after initial pruning)     ...   3280 (   0.0 sec)
# of grid points (after weights+screening)   ...   3280 (   0.0 sec)
Grid point division into batches done        ...    0.0 sec
Reduced shell lists constructed in    0.0 sec

Total number of grid points                  ...     3280
Total number of batches                      ...       52
Average number of points per batch           ...       63
Average number of grid points per atom       ...     3280
Average number of shells per batch           ...     5.00 (35.71%)
Average number of basis functions per batch  ...    16.00 (40.00%)
Average number of large shells per batch     ...     3.75 (75.00%)
Average number of large basis fcns per batch ...     9.75 (60.94%)
Maximum spatial batch extension              ...  23.83, 37.49, 37.49 au
Average spatial batch extension              ...   1.37,  1.91,  2.16 au

Time for grid setup =    0.059 sec

------------------------------
INITIAL GUESS: MODEL POTENTIAL
------------------------------
Loading Hartree-Fock densities                     ... done
  calling /sw/apps/orca/orca_4_2_0_linux_x86-64_openmpi314/orca 39_Y_atom39.inp > 39_Y_atom39.out in order to generate an atomic fitting density for atom 0 ( Y with ECP) on-the-fly... 
    atom 0 ( Y), assumed electronic state with S=2: 1s2 2s2 2p6 3s2 3p6 4s2 3d10 4p6 4d1 5s2           ... done
Calculating cut-offs                               ... done
Setting up the integral package                    ... done
Initializing the effective Hamiltonian             ... done
Starting the Coulomb interaction                   ... done (   0.0 sec)
Reading the grid                                   ... done
Mapping shells                                     ... done
Starting the XC term evaluation                    ... done (   0.0 sec)
Transforming the Hamiltonian                       ... done (   0.0 sec)
Diagonalizing the Hamiltonian                      ... done (   0.0 sec)
Back transforming the eigenvectors                 ... done (   0.0 sec)
Now organizing SCF variables                       ... done
                      ------------------
                      INITIAL GUESS DONE (   7.9 sec)
                      ------------------
--------------
SCF ITERATIONS
--------------
ITER       Energy         Delta-E        Max-DP      RMS-DP      [F,P]     Damp
               ***  Starting incremental Fock matrix formation  ***
  0    -37.7908024623   0.000000000000 0.06027982  0.00204723  0.3492261 0.7000
  1    -37.7969583897  -0.006155927446 0.04983994  0.00171092  0.2506373 0.7000
                               ***Turning on DIIS***
  2    -37.8017811853  -0.004822795603 0.03718010  0.00130194  0.1787181 0.7000
  3    -37.8204921817  -0.018710996351 0.02962842  0.00109425  0.1275468 0.7000
  4    -37.8177223139   0.002769867786 0.07640462  0.00307686  0.0902203 0.0000
  5    -37.8171747392   0.000547574691 0.02439135  0.00071531  0.0092681 0.0000
  6    -37.8111678204   0.006006918781 0.02993579  0.00087267  0.0062409 0.0000
  7    -37.8148068445  -0.003639024066 0.01944254  0.00055996  0.0028133 0.0000
  8    -37.8170742946  -0.002267450109 0.01042701  0.00031453  0.0010115 0.0000
  9    -37.8180933775  -0.001019082924 0.00967226  0.00038747  0.0007018 0.0000
 10    -37.8188905263  -0.000797148823 0.00284706  0.00021740  0.0003105 0.0000
 11    -37.8183288434   0.000561682878 0.00416529  0.00027977  0.0002266 0.0000
 12    -37.8182022672   0.000126576232 0.00366912  0.00022388  0.0001670 0.0000
 13    -37.8170217032   0.001180564040 0.00513250  0.00032013  0.0001159 0.0000
 14    -37.8156411345   0.001380568634 0.00652417  0.00040321  0.0000651 0.0000
 15    -37.8178507969  -0.002209662325 0.00183833  0.00013187  0.0000408 0.0000
 16    -37.8218687537  -0.004017956842 0.00496150  0.00027609  0.0000535 0.0000
 17    -37.8195347538   0.002333999861 0.00038107  0.00002923  0.0000315 0.0000
 18    -37.8190276566   0.000507097219 0.00057788  0.00004076  0.0000117 0.0000
 19    -37.8191814616  -0.000153805027 0.00028217  0.00001989  0.0000056 0.0000
               *** Restarting incremental Fock matrix formation ***
                                   *** Resetting DIIS ***
 20    -37.8193577570  -0.000176295341 0.00001449  0.00000108  0.0000036 0.0000
 21    -37.8193605207  -0.000002763756 0.00001006  0.00000076  0.0000035 0.0000
 22    -37.8193493398   0.000011180946 0.00002010  0.00000152  0.0000034 0.0000
 23    -37.8193110268   0.000038312975 0.00006102  0.00000462  0.0000032 0.0000
 24    -37.8192995279   0.000011498882 0.00007799  0.00000528  0.0000026 0.0000
 25    -37.8193540788  -0.000054550815 0.00001069  0.00000039  0.0000019 0.0000
 26    -37.8193548839  -0.000000805163 0.00000554  0.00000031  0.0000017 0.0000
 27    -37.8193565015  -0.000001617621 0.00000499  0.00000038  0.0000017 0.0000
 28    -37.8193596643  -0.000003162734 0.00000801  0.00000061  0.0000016 0.0000
 29    -37.8193787143  -0.000019050070 0.00002975  0.00000229  0.0000015 0.0000
                            ***DIIS convergence achieved***

               *****************************************************
               *                     SUCCESS                       *
               *           SCF CONVERGED AFTER  30 CYCLES          *
               *****************************************************


----------------
TOTAL SCF ENERGY
----------------

Total Energy       :          -37.81937986 Eh           -1029.11765 eV

Components:
Nuclear Repulsion  :            0.00000000 Eh               0.00000 eV
Electronic Energy  :          -37.81937986 Eh           -1029.11765 eV
One Electron Energy:          -62.65844516 Eh           -1705.02297 eV
Two Electron Energy:           24.83906530 Eh             675.90533 eV

Virial components:
Potential Energy   :          -49.83832040 Eh           -1356.16964 eV
Kinetic Energy     :           12.01894054 Eh             327.05200 eV
Virial Ratio       :            4.14664839


---------------
SCF CONVERGENCE
---------------

  Last Energy change         ...   -1.1466e-06  Tolerance :   1.0000e-08
  Last MAX-Density change    ...    3.2138e-05  Tolerance :   1.0000e-07
  Last RMS-Density change    ...    2.2004e-06  Tolerance :   5.0000e-09
  Last DIIS Error            ...    9.6454e-07  Tolerance :   5.0000e-07

             **** THE GBW FILE WAS UPDATED (39_Y.gbw) ****
             **** DENSITY FILE WAS UPDATED (39_Y.scfp) ****
             **** ENERGY FILE WAS UPDATED (39_Y.en.tmp) ****
----------------------
UHF SPIN CONTAMINATION
----------------------

Expectation value of <S**2>     :     0.863712
Ideal value S*(S+1) for S=0.5   :     0.750000
Deviation                       :     0.113712

             **** THE GBW FILE WAS UPDATED (39_Y.gbw) ****
             **** DENSITY FILE WAS UPDATED (39_Y.scfp) ****
----------------
ORBITAL ENERGIES
----------------
                 SPIN UP ORBITALS
  NO   OCC          E(Eh)            E(eV) 
   0   1.0000      -2.270103       -61.7727 
   1   1.0000      -1.332063       -36.2473 
   2   1.0000      -1.332060       -36.2472 
   3   1.0000      -1.310499       -35.6605 
   4   1.0000      -0.235716        -6.4142 
   5   1.0000      -0.210861        -5.7378 
   6   0.0000       0.020465         0.5569 
   7   0.0000       0.020465         0.5569 
   8   0.0000       0.028832         0.7846 
   9   0.0000       0.083068         2.2604 
  10   0.0000       0.086941         2.3658 
  11   0.0000       0.086943         2.3658 
  12   0.0000       0.093765         2.5515 
  13   0.0000       0.126011         3.4289 
  14   0.0000       0.181392         4.9359 
  15   0.0000       0.181392         4.9359 
  16   0.0000       0.189945         5.1687 
  17   0.0000       0.215408         5.8616 
  18   0.0000       0.257775         7.0144 
  19   0.0000       0.260513         7.0889 
  20   0.0000       0.260514         7.0890 
  21   0.0000       0.268841         7.3155 
  22   0.0000       0.776022        21.1166 
  23   0.0000       0.776024        21.1167 
  24   0.0000       0.784052        21.3351 
  25   0.0000       0.803933        21.8761 
  26   0.0000       0.806454        21.9447 
  27   0.0000       0.806456        21.9448 
  28   0.0000       0.809908        22.0387 
  29   0.0000       0.947357        25.7789 
  30   0.0000       0.971611        26.4389 
  31   0.0000       0.974939        26.5295 
  32   0.0000       0.974941        26.5295 
  33   0.0000       0.985482        26.8163 
  34   0.0000       1.101451        29.9720 
  35   0.0000       1.104694        30.0602 
  36   0.0000       1.104695        30.0603 
  37   0.0000       1.212276        32.9877 
  38   0.0000      18.268294       497.1055 
  39   0.0000      65.799035      1790.4828 

                 SPIN DOWN ORBITALS
  NO   OCC          E(Eh)            E(eV) 
   0   1.0000      -2.242289       -61.0158 
   1   1.0000      -1.305954       -35.5368 
   2   1.0000      -1.272362       -34.6227 
   3   1.0000      -1.272357       -34.6226 
   4   1.0000      -0.196008        -5.3337 
   5   0.0000       0.017157         0.4669 
   6   0.0000       0.033172         0.9027 
   7   0.0000       0.033173         0.9027 
   8   0.0000       0.084751         2.3062 
   9   0.0000       0.094436         2.5697 
  10   0.0000       0.094438         2.5698 
  11   0.0000       0.107315         2.9202 
  12   0.0000       0.119124         3.2415 
  13   0.0000       0.137542         3.7427 
  14   0.0000       0.181350         4.9348 
  15   0.0000       0.202183         5.5017 
  16   0.0000       0.202185         5.5017 
  17   0.0000       0.262948         7.1552 
  18   0.0000       0.267094         7.2680 
  19   0.0000       0.267095         7.2680 
  20   0.0000       0.275675         7.5015 
  21   0.0000       0.289282         7.8718 
  22   0.0000       0.807620        21.9765 
  23   0.0000       0.809892        22.0383 
  24   0.0000       0.809893        22.0383 
  25   0.0000       0.814406        22.1611 
  26   0.0000       0.826153        22.4808 
  27   0.0000       0.838884        22.8272 
  28   0.0000       0.838885        22.8272 
  29   0.0000       0.977482        26.5986 
  30   0.0000       0.981441        26.7064 
  31   0.0000       0.981443        26.7064 
  32   0.0000       0.990934        26.9647 
  33   0.0000       1.006423        27.3862 
  34   0.0000       1.100627        29.9496 
  35   0.0000       1.126742        30.6602 
  36   0.0000       1.126746        30.6603 
  37   0.0000       1.227374        33.3985 
  38   0.0000      18.270660       497.1699 
  39   0.0000      65.799273      1790.4892 

                    ********************************
                    * MULLIKEN POPULATION ANALYSIS *
                    ********************************

--------------------------------------------
MULLIKEN ATOMIC CHARGES AND SPIN POPULATIONS
--------------------------------------------
   0  Y:    0.000000    1.000000
Sum of atomic charges         :    0.0000000
Sum of atomic spin populations:    1.0000000

-----------------------------------------------------
MULLIKEN REDUCED ORBITAL CHARGES AND SPIN POPULATIONS
-----------------------------------------------------
CHARGE
  0  Ys       :     3.938712  s :     3.938712
      pz      :     1.999888  p :     5.999054
      px      :     1.999561
      py      :     1.999604
      dz2     :     0.041712  d :     1.061288
      dxz     :     0.116685
      dyz     :     0.018952
      dx2y2   :     0.000626
      dxy     :     0.883314
      f0      :     0.000070  f :     0.000946
      f+1     :     0.000032
      f-1     :     0.000071
      f+2     :     0.000034
      f-2     :     0.000121
      f+3     :     0.000287
      f-3     :     0.000332

SPIN
  0  Ys       :     0.032846  s :     0.032846
      pz      :     0.000022  p :    -0.000593
      px      :    -0.000330
      py      :    -0.000284
      dz2     :    -0.022354  d :     0.967154
      dxz     :     0.116685
      dyz     :    -0.010155
      dx2y2   :    -0.000335
      dxy     :     0.883314
      f0      :    -0.000037  f :     0.000593
      f+1     :    -0.000023
      f-1     :    -0.000028
      f+2     :     0.000022
      f-2     :     0.000078
      f+3     :     0.000276
      f-3     :     0.000305


                     *******************************
                     * LOEWDIN POPULATION ANALYSIS *
                     *******************************

-------------------------------------------
LOEWDIN ATOMIC CHARGES AND SPIN POPULATIONS
-------------------------------------------
   0  Y:   -0.000000    1.000000

----------------------------------------------------
LOEWDIN REDUCED ORBITAL CHARGES AND SPIN POPULATIONS
----------------------------------------------------
CHARGE
  0  Ys       :     3.938712  s :     3.938712
      pz      :     1.999888  p :     5.999054
      px      :     1.999561
      py      :     1.999604
      dz2     :     0.041712  d :     1.061288
      dxz     :     0.116685
      dyz     :     0.018952
      dx2y2   :     0.000626
      dxy     :     0.883314
      f0      :     0.000070  f :     0.000946
      f+1     :     0.000032
      f-1     :     0.000071
      f+2     :     0.000034
      f-2     :     0.000121
      f+3     :     0.000287
      f-3     :     0.000332

SPIN
  0  Ys       :     0.032846  s :     0.032846
      pz      :     0.000022  p :    -0.000593
      px      :    -0.000330
      py      :    -0.000284
      dz2     :    -0.022354  d :     0.967154
      dxz     :     0.116685
      dyz     :    -0.010155
      dx2y2   :    -0.000335
      dxy     :     0.883314
      f0      :    -0.000037  f :     0.000593
      f+1     :    -0.000023
      f-1     :    -0.000028
      f+2     :     0.000022
      f-2     :     0.000078
      f+3     :     0.000276
      f-3     :     0.000305


                      *****************************
                      * MAYER POPULATION ANALYSIS *
                      *****************************

  NA   - Mulliken gross atomic population
  ZA   - Total nuclear charge
  QA   - Mulliken gross atomic charge
  VA   - Mayer's total valence
  BVA  - Mayer's bonded valence
  FA   - Mayer's free valence

  ATOM       NA         ZA         QA         VA         BVA        FA
  0  Y    11.0000    11.0000    -0.0000     1.2274     0.0000     1.2274

  Mayer bond orders larger than 0.100000


-------
TIMINGS
-------

Total SCF time: 0 days 0 hours 0 min 13 sec 

Total time                  ....      13.901 sec
Sum of individual times     ....      13.203 sec  ( 95.0%)

Fock matrix formation       ....       4.567 sec  ( 32.8%)
Diagonalization             ....       0.153 sec  (  1.1%)
Density matrix formation    ....       0.008 sec  (  0.1%)
Population analysis         ....       0.170 sec  (  1.2%)
Initial guess               ....       7.829 sec  ( 56.3%)
Orbital Transformation      ....       0.000 sec  (  0.0%)
Orbital Orthonormalization  ....       0.000 sec  (  0.0%)
DIIS solution               ....       0.417 sec  (  3.0%)


           ************************************************************
           *        Program running with 24 parallel MPI-processes    *
           *              working on a common directory               *
           ************************************************************


------------------------------------------------------------------------------- 
                              ORCA-MATRIX DRIVEN CI                            
------------------------------------------------------------------------------- 

--------------------------------
AUTOMATIC CHOICE OF INCORE LEVEL
--------------------------------

Memory available                           ...   2500.00 MB
Memory needed for S+T                      ...      0.56 MB
Memory needed for J+K                      ...      1.12 MB
Memory needed for DIIS                     ...      7.78 MB
Memory needed for 3-ext                    ...      1.80 MB
Memory needed for 4-ext                    ...      5.25 MB
Memory needed for triples                  ...      1.50 MB
 -> Final InCoreLevel    ... 5
 -> check shows that triples correction can be computed


Wavefunction type
-----------------
Correlation treatment                      ...      CCSD     
Single excitations                         ... ON
Orbital optimization                       ... OFF
Calculation of Z vector                    ... OFF
Calculation of Brueckner orbitals          ... OFF
Perturbative triple excitations            ... ON
Calculation of F12 correction              ... OFF
Frozen core treatment                      ... chemical core (0 el)
Reference Wavefunction                     ... UHF
  Alpha-MOs occ    :     0 ...    5 (  6 MO's/  6 electrons)
  Beta-MOs occ     :     0 ...    4 (  5 MO's/  5 electrons)
  Alpha-MOs virt   :     6 ...   39 ( 34 MO's              )
  Beta-MOs virt    :     5 ...   39 ( 35 MO's              )
Number of AO's                             ...     40
Number of electrons                        ...     11
Number of correlated electrons             ...     11

Algorithmic settings
--------------------
Integral transformation                    ... AO direct full transformation
K(C) Formation                             ... FULL-MO TRAFO
Maximum number of iterations               ...        50
Convergence tolerance (max. residuum)      ... 1.000e-05
Level shift for amplitude update           ... 2.000e-01
Maximum number of DIIS vectors             ...         7
DIIS turned on at iteration                ...         0
Damping before turning on DIIS             ...     0.500
Damping after turning on DIIS              ...     0.000
Pair specific amplitude update             ... OFF
Natural orbital iterations                 ... OFF
Perturbative natural orbital generation    ... OFF
Printlevel                                 ... 2

Memory handling:
----------------
Maximum memory for working arrays          ...   2500 MB
Data storage in matrix containers          ... UNCOMPRESSED
Data type for integral storage             ... DOUBLE
In-Core Storage of quantities:
   Amplitudes+Sigma Vector      ... YES
   J+K operators                ... YES
   DIIS vectors                 ... YES
   3-external integrals         ... YES
   4-external integrals         ... YES


Initializing the integral package          ... done
Warning: reference  - re-canonicalizations have been set to INT 1 VIRT 1

--------------------------
UNRESTRICTED FOCK OPERATOR
--------------------------

<ss|ss>:          231 b            0 skpd (  0.0%)    0.000 s ( 0.000 ms/b)
<ss|sp>:          504 b            0 skpd (  0.0%)    0.000 s ( 0.000 ms/b)
<ss|sd>:          378 b            0 skpd (  0.0%)    0.000 s ( 0.000 ms/b)
<ss|sf>:          126 b            0 skpd (  0.0%)    0.000 s ( 0.000 ms/b)
<ss|pp>:          210 b            0 skpd (  0.0%)    0.000 s ( 0.000 ms/b)
<ss|pd>:          252 b            0 skpd (  0.0%)    0.000 s ( 0.000 ms/b)
<ss|pf>:           84 b            0 skpd (  0.0%)    0.000 s ( 0.001 ms/b)
<ss|dd>:          126 b            0 skpd (  0.0%)    0.000 s ( 0.001 ms/b)
<ss|df>:           63 b            0 skpd (  0.0%)    0.000 s ( 0.001 ms/b)
<ss|ff>:           21 b            0 skpd (  0.0%)    0.000 s ( 0.003 ms/b)
<sp|sp>:          300 b            0 skpd (  0.0%)    0.000 s ( 0.000 ms/b)
<sp|sd>:          432 b            0 skpd (  0.0%)    0.000 s ( 0.000 ms/b)
<sp|sf>:          144 b            0 skpd (  0.0%)    0.000 s ( 0.000 ms/b)
<sp|pp>:          240 b            0 skpd (  0.0%)    0.000 s ( 0.001 ms/b)
<sp|pd>:          288 b            0 skpd (  0.0%)    0.000 s ( 0.001 ms/b)
<sp|pf>:           96 b            0 skpd (  0.0%)    0.000 s ( 0.002 ms/b)
<sp|dd>:          144 b            0 skpd (  0.0%)    0.000 s ( 0.002 ms/b)
<sp|df>:           72 b            0 skpd (  0.0%)    0.000 s ( 0.003 ms/b)
<sp|ff>:           24 b            0 skpd (  0.0%)    0.000 s ( 0.008 ms/b)
<sd|sd>:          171 b            0 skpd (  0.0%)    0.000 s ( 0.001 ms/b)
<sd|sf>:          108 b            0 skpd (  0.0%)    0.000 s ( 0.001 ms/b)
<sd|pp>:          180 b            0 skpd (  0.0%)    0.000 s ( 0.001 ms/b)
<sd|pd>:          216 b            0 skpd (  0.0%)    0.000 s ( 0.001 ms/b)
<sd|pf>:           72 b            0 skpd (  0.0%)    0.000 s ( 0.004 ms/b)
<sd|dd>:          108 b            0 skpd (  0.0%)    0.000 s ( 0.003 ms/b)
<sd|df>:           54 b            0 skpd (  0.0%)    0.000 s ( 0.006 ms/b)
<sd|ff>:           18 b            0 skpd (  0.0%)    0.000 s ( 0.017 ms/b)
<sf|sf>:           21 b            0 skpd (  0.0%)    0.000 s ( 0.002 ms/b)
<sf|pp>:           60 b            0 skpd (  0.0%)    0.000 s ( 0.001 ms/b)
<sf|pd>:           72 b            0 skpd (  0.0%)    0.000 s ( 0.002 ms/b)
<sf|pf>:           24 b            0 skpd (  0.0%)    0.000 s ( 0.007 ms/b)
<sf|dd>:           36 b            0 skpd (  0.0%)    0.000 s ( 0.005 ms/b)
<sf|df>:           18 b            0 skpd (  0.0%)    0.000 s ( 0.010 ms/b)
<sf|ff>:            6 b            0 skpd (  0.0%)    0.000 s ( 0.026 ms/b)
<pp|pp>:           55 b            0 skpd (  0.0%)    0.000 s ( 0.004 ms/b)
<pp|pd>:          120 b            0 skpd (  0.0%)    0.000 s ( 0.003 ms/b)
<pp|pf>:           40 b            0 skpd (  0.0%)    0.000 s ( 0.007 ms/b)
<pp|dd>:           60 b            0 skpd (  0.0%)    0.000 s ( 0.006 ms/b)
<pp|df>:           30 b            0 skpd (  0.0%)    0.000 s ( 0.010 ms/b)
<pp|ff>:           10 b            0 skpd (  0.0%)    0.000 s ( 0.026 ms/b)
<pd|pd>:           78 b            0 skpd (  0.0%)    0.001 s ( 0.008 ms/b)
<pd|pf>:           48 b            0 skpd (  0.0%)    0.001 s ( 0.014 ms/b)
<pd|dd>:           72 b            0 skpd (  0.0%)    0.001 s ( 0.012 ms/b)
<pd|df>:           36 b            0 skpd (  0.0%)    0.001 s ( 0.021 ms/b)
<pd|ff>:           12 b            0 skpd (  0.0%)    0.001 s ( 0.054 ms/b)
<pf|pf>:           10 b            0 skpd (  0.0%)    0.000 s ( 0.020 ms/b)
<pf|dd>:           24 b            0 skpd (  0.0%)    0.000 s ( 0.014 ms/b)
<pf|df>:           12 b            0 skpd (  0.0%)    0.000 s ( 0.032 ms/b)
<pf|ff>:            4 b            0 skpd (  0.0%)    0.000 s ( 0.078 ms/b)
<dd|dd>:           21 b            0 skpd (  0.0%)    0.001 s ( 0.039 ms/b)
<dd|df>:           18 b            0 skpd (  0.0%)    0.001 s ( 0.040 ms/b)
<dd|ff>:            6 b            0 skpd (  0.0%)    0.001 s ( 0.101 ms/b)
<df|df>:            6 b            0 skpd (  0.0%)    0.000 s ( 0.058 ms/b)
<df|ff>:            3 b            0 skpd (  0.0%)    0.000 s ( 0.153 ms/b)
<ff|ff>:            1 b            0 skpd (  0.0%)    0.000 s ( 0.258 ms/b)
Recanonicalizing the internal orbitals
Recanonicalizing the virtual orbitals
Time needed for Fock operator              ...            0.063 sec
Reference energy                           ...    -37.819357776
Warning: for UHF the TrafoType has to be JK
Warning: for UHF the K(C)-option cannot be MO but must be AOX

-------------------------------
PARTIAL EXCHANGE TRANSFORMATION
-------------------------------

Transformation type                        ... two-operators
Generation of integrals (i,mue|j,nue)      ... ON
Generation of integrals (mue,kappa|nue,tau)... ON
Generation of integrals (i,mue|a,nue)      ... ON
Dimension of the basis                     ...   40
Number of internal alpha-MOs               ...    6 (   0-   5)
Number of internal beta-MOs                ...    5 (   0-   4)
Number of external alpha-MOs               ...   34 (   6-  39)
Number of external beta-MOs                ...   35 (   5-  39)
Pair cutoff                                ... 0.000e+00 Eh
Number of AO pairs in the trafo            ...  820
Total Number of distinct AO pairs          ...  820
Memory devoted for trafo                   ... 2500.0 MB 
Max. Number of MO pairs treated together   ... 204800      
Number Format for Storage                  ... Double (8 Byte)
Integral package used                      ... LIBINT

Starting integral evaluation:
    ... done with AO integral generation
Closing buffer AOK[aa] ( 0.00 GB; CompressionRatio= 0.00)
Closing buffer AOK[bb] ( 0.00 GB; CompressionRatio= 0.00)
Closing buffer AOK[ab] ( 0.00 GB; CompressionRatio= 0.00)
Closing buffer AOK[ba] ( 0.00 GB; CompressionRatio= 0.00)
Collecting buffer AOK 
Closing buffer IAAO1[aa] ( 0.00 GB; CompressionRatio= 0.00)
Closing buffer IAAO1[bb] ( 0.00 GB; CompressionRatio= 0.00)
Closing buffer IAAO1[ab] ( 0.00 GB; CompressionRatio= 0.00)
Closing buffer IAAO1[ba] ( 0.00 GB; CompressionRatio= 0.00)
Closing buffer IAAO2[aa] ( 0.00 GB; CompressionRatio= 0.00)
Closing buffer IAAO2[bb] ( 0.00 GB; CompressionRatio= 0.00)
Closing buffer IAAO2[ab] ( 0.00 GB; CompressionRatio= 0.00)
Closing buffer IAAO2[ba] ( 0.00 GB; CompressionRatio= 0.00)
Collecting buffer IAAO 
Closing buffer PRQS    ( 0.00 GB; CompressionRatio= 0.00)
Collecting buffer PRQS 
Number of alpha/alpha MO pairs in trafo    ...   21
Number of beta /beta  MO pairs in trafo    ...   15
Number of alpha/ beta MO pairs in trafo    ...   30
------------------------
SORTING OF (i,mue|j,nue)
------------------------

SORTING OF ALPHA/ALPHA PAIRS
IBATCH = 1 of  1
Closing buffer KAO[aa] ( 0.00 GB; CompressionRatio= 1.00)
Collecting buffer KAO 
SORTING OF BETA /BETA  PAIRS
IBATCH = 1 of  1
Closing buffer KAO[bb] ( 0.00 GB; CompressionRatio= 1.00)
Collecting buffer KAO 
SORTING OF ALPHA/BETA  PAIRS
IBATCH = 1 of  1
Closing buffer KAO[ab] ( 0.00 GB; CompressionRatio= 0.999063378083)
Collecting buffer KAO[ab] 
------------------------
SORTING OF (i,mue|a,nue)
------------------------

Number of alpha/alpha (i,a) pairs in trafo  ...  204
Number of beta /beta  (i,a) pairs in trafo  ...  175
Number of alpha/ beta (i,a) pairs in trafo  ...  210
Number of beta /alpha (i,a) pairs in trafo  ...  170
Setting up the alpha/alpha list             ... done
Setting up the beta /beta  list             ... done
Setting up the alpha/beta  list             ... done
Setting up the beta /alpha list             ... done
    ... Now sorting (i,mue|a,nue)integrals
    ... Integrals (i,b|a,c) will be made on the fly
SORTING OF ALPHA/ALPHA PAIRS
IBATCH = 1 of  1
Closing buffer IPAQ[aa]  0.00 GB; CompressionRatio= 1.00)
SORTING OF BETA /BETA  PAIRS
IBATCH = 1 of  1
Closing buffer IPAQ[bb]( 0.00 GB; CompressionRatio= 1.00)
SORTING OF ALPHA/BETA  PAIRS (NMatSort_ab=9)
IBATCH = 1 of  1
Closing buffer IPAQ[ab]( 0.00 GB; CompressionRatio= 1.00)
SORTING OF BETA/ALPHA  PAIRS
IBATCH = 1 of  1
Closing buffer IPAQ[ba]( 0.00 GB; CompressionRatio= 1.00)
N(AO-Batches) Done                         ...         0 
N(AO-Batches) Skipped                      ...         0 
N(IJ)-pairs Skipped                        ...         0 
TOTAL TIME for half transformation         ...     2.044 sec
AO-integral generation                     ...     0.000 sec
Half transformation                        ...     0.000 sec
K-integral sorting                         ...     0.731 sec
<ss|**>: 
------------------------------
PARTIAL COULOMB TRANSFORMATION
------------------------------

Transformation type                        ... two-operators
Dimension of the basis                     ...   40
Number of internal alpha-MOs               ...    6 (0-5)
Number of internal beta-MOs                ...    5 (0-4)
Pair cutoff                                ... 0.000e+00 Eh
Number of AO pairs included in the trafo   ...  820
Total Number of distinct AO pairs          ...  820
Memory devoted for trafo                   ... 2500.0 MB 
Max. Number of MO pairs treated together   ... 399609      
Max. Number of MOs treated per batch       ... 9990      
Number Format for Storage                  ... Double (8 Byte)
AO-integral source                         ... DIRECT
Integral package used                      ... LIBINT

Starting integral evaluation:
<sp|**>:         2205 b        0 skpd     0.001 s (  0.001 ms/b)
<sd|**>:         2520 b        0 skpd     0.016 s (  0.006 ms/b)
<sf|**>:         1890 b        0 skpd     0.014 s (  0.008 ms/b)
<pp|**>:          630 b        0 skpd     0.008 s (  0.013 ms/b)
        1050 b        0 skpd     0.012 s (  0.012 ms/b)
<pd|**>:         1260 b        0 skpd     0.032 s (  0.025 ms/b)
<pf|**>:          420 b        0 skpd     0.022 s (  0.053 ms/b)
<dd|**>:          630 b        0 skpd     0.031 s (  0.050 ms/b)
<df|**>:          315 b        0 skpd     0.034 s (  0.107 ms/b)
<ff|**>:          105 b        0 skpd     0.018 s (  0.174 ms/b)
Closing buffer AOJ[aa] ( 0.00 GB; CompressionRatio= 0.93)
Closing buffer AOJ[bb] ( 0.00 GB; CompressionRatio= 0.00)
Collecting buffer AOJ 
    ... done with AO integral generation
Number of Alpha-MO pairs included          ...   21
Number of Beta-MO pairs included           ...   15
    ... Now sorting integrals
SORTING ALPHA/ALPHA PAIRS
IBATCH = 1 of  1
Closing buffer JAO[aa] ( 0.00 GB; CompressionRatio= 1.00)
SORTING BETA/BETA PAIRS
IBATCH = 1 of  1
Closing buffer JAO[bb] ( 0.00 GB; CompressionRatio= 1.00)
Collecting buffer JAO 
TOTAL TIME for half transformation         ...     0.420 sec
AO-integral generation                     ...     0.123 sec
Half transformation                        ...     0.067 sec
J-integral sorting                         ...     0.100 sec

-------------------------- SECOND HALF TRANSFORMATION -------------------------
Formation of (ij|kl),(ij|ka), (ij|ab)      ... ok (     0.135 sec)
Formation of (ik|jl),(ik|ja), (ia|jb)      ... ok (     0.215 sec)


-----------------------
SPIN UNRESTRICTED GUESS
-----------------------

Entering MDCI_UHF_Guess, Tailored=0
Spin-components of the MP2 energy:
EMP2(aa)=     -0.031737697
EMP2(bb)=     -0.026200796
EMP2(ab)=     -0.141006184

Initial guess performed in     0.004 sec
E(0)                                       ...    -37.819357776
E(MP2)                                     ...     -0.198944677
Initial E(tot)                             ...    -38.018302453
<T|T>                                      ...      0.089681865
Number of pairs included                   ... 55

------------------------------------------------
                  UHF COUPLED CLUSTER ITERATIONS
------------------------------------------------

Number of amplitudes to be optimized       ...        50679

Iter       E(tot)           E(Corr)          Delta-E          Residual     Time      <S|S>**1/2
  0    -38.018302453     -0.198944677     -0.000000000      0.016492125    0.10      0.000009155
                           *** Turning on DIIS ***
  1    -38.022838008     -0.203480233     -0.004535555      0.009135124    0.05      0.030613754
  2    -38.027451204     -0.208093428     -0.004613196      0.005893131    0.05      0.051219985
  3    -38.029507182     -0.210149407     -0.002055978      0.003140746    0.05      0.070098678
  4    -38.030759256     -0.211401480     -0.001252074      0.002432467    0.06      0.089604274
  5    -38.031184657     -0.211826882     -0.000425401      0.001585629    0.06      0.102321122
  6    -38.031407157     -0.212049382     -0.000222500      0.000628837    0.06      0.114408638
  7    -38.031484855     -0.212127079     -0.000077698      0.000273546    0.05      0.119597853
  8    -38.031518919     -0.212161143     -0.000034064      0.000171059    0.05      0.121618584
  9    -38.031533037     -0.212175262     -0.000014119      0.000097584    0.06      0.122316331
 10    -38.031536235     -0.212178460     -0.000003198      0.000044561    0.06      0.122621807
 11    -38.031536508     -0.212178732     -0.000000273      0.000012830    0.06      0.122755726
 12    -38.031536074     -0.212178298      0.000000434      0.000004338    0.06      0.122777783
               --- The Coupled-Cluster iterations have converged ---

----------------------
COUPLED CLUSTER ENERGY
----------------------

E(0)                                       ...    -37.819357776
E(CORR)                                    ...     -0.212178298
E(TOT)                                     ...    -38.031536074
Singles norm <S|S>**1/2                    ...      0.122777783 ( 0.066246411, 0.056531372)  
T1 diagnostic                              ...      0.037018895                              

------------------
LARGEST AMPLITUDES
------------------
   4b-> 13b  -1b-> -1b       0.100393
   5a->  8a   4b->  5b       0.091878
   5a->  9a  -1a-> -1a       0.085224
   5a->  6a   4b->  6b       0.076122
   5a->  7a   4b->  7b       0.076116
   5a-> 13a  -1a-> -1a       0.071581
   4b->  8b  -1b-> -1b       0.068113
   5a-> 16a   4b->  5b       0.060297
   4a->  9a   4b-> 12b       0.053100
   5a->  8a   4b-> 14b       0.052962
   5a->  6a   4b-> 15b       0.052798
   5a->  7a   4b-> 16b       0.052794
   4a-> 11a   4b-> 10b       0.049611
   4a-> 10a   4b->  9b       0.049610
   4a->  7a   4b->  7b       0.048417
   4a->  6a   4b->  6b       0.048407

----------------------
UHF TRIPLES CORRECTION (Algorithm 1)
----------------------

Multiplier for the singles contribution    ...      1.000000000

SPIN-CASE Alpha-Alpha-Alpha:
10% done
20% done
30% done
40% done
50% done
60% done
70% done
80% done
90% done


SPIN-CASE Beta-Beta-Beta:
10% done
20% done
30% done
40% done
50% done
60% done
70% done
80% done
90% done


SPIN-CASE Alpha-Alpha-Beta:
10% done
20% done
30% done
40% done
50% done
60% done
70% done
80% done
90% done


SPIN-CASE Beta-Beta-Alpha:
10% done
20% done
30% done
40% done
50% done
60% done
70% done
80% done
90% done


Triples Correction (T)                     ...     -0.006508284
    alpha-alpha-alpha ... -0.000155969 (  2.4%)
    alpha-alpha-beta  ... -0.003626923 ( 55.7%)
    alpha-beta -beta  ... -0.002640547 ( 40.6%)
    beta -beta -beta  ... -0.000084846 (  1.3%)
Scaling of triples based on CCSD energies (Peterson et al. Molecular Physics 113, 1551 (2015))
E(T*) = f*E(T) where f = E(F12-CCSD)/E(CCSD) 
f = CCSD (with F12)/ CCSD (without F12)    ...      1.000000000
Scaled triples correction (T)              ...     -0.006508284

Final correlation energy                   ...     -0.218686582
E(CCSD)                                    ...    -38.031536074
E(CCSD(T))                                 ...    -38.038044358



        !!!!!!!!!!!!!!!!!!!!!!!!!!!!!!!!!!!!!!!!!!!!!!!!!!!!!!!!!!!!!!!!!!!!!!!!!! 
        !  Warning: Densities are linearized densities                           !
        !!!!!!!!!!!!!!!!!!!!!!!!!!!!!!!!!!!!!!!!!!!!!!!!!!!!!!!!!!!!!!!!!!!!!!!!!! 

NORM  =      1.164248595 sqrt=     1.079003519
W(HF) =      0.858923090
------------------------------------------------------------------------------
                           ORCA POPULATION ANALYSIS
------------------------------------------------------------------------------
Input electron density              ... 39_Y.mdcip
Input spin density                  ... 39_Y.mdcir
BaseName (.gbw .S,...)              ... 39_Y

                    ********************************
                    * MULLIKEN POPULATION ANALYSIS *
                    ********************************

------------------------------------------
MULLIKEN ATOMIC CHARGES AND SPIN DENSITIES
------------------------------------------
   0  Y:    0.000000    1.000000
Sum of atomic charges       :    0.0000000
Sum of atomic spin densities:    1.0000000

---------------------------------------------------
MULLIKEN REDUCED ORBITAL CHARGES AND SPIN DENSITIES
---------------------------------------------------
CHARGE
  0  Ys       :     3.855235  s :     3.855235
      pz      :     2.011317  p :     6.041524
      px      :     2.015371
      py      :     2.014835
      dz2     :     0.030621  d :     1.091165
      dxz     :     0.139529
      dyz     :     0.028328
      dx2y2   :     0.020311
      dxy     :     0.872377
      f0      :     0.000752  f :     0.012076
      f+1     :     0.001121
      f-1     :     0.000767
      f+2     :     0.000689
      f-2     :     0.002553
      f+3     :     0.003100
      f-3     :     0.003095

SPIN
  0  Ys       :     0.031174  s :     0.031174
      pz      :    -0.000329  p :     0.005714
      px      :     0.003258
      py      :     0.002785
      dz2     :    -0.003796  d :     0.955363
      dxz     :     0.112301
      dyz     :    -0.001699
      dx2y2   :    -0.000483
      dxy     :     0.849039
      f0      :     0.000067  f :     0.007749
      f+1     :     0.000466
      f-1     :     0.000108
      f+2     :     0.000198
      f-2     :     0.001860
      f+3     :     0.002522
      f-3     :     0.002528


                     *******************************
                     * LOEWDIN POPULATION ANALYSIS *
                     *******************************

-----------------------------------------
LOEWDIN ATOMIC CHARGES AND SPIN DENSITIES
-----------------------------------------
   0  Y:   -0.000000    1.000000

--------------------------------------------------
LOEWDIN REDUCED ORBITAL CHARGES AND SPIN DENSITIES
--------------------------------------------------
CHARGE
  0  Ys       :     3.855235  s :     3.855235
      pz      :     2.011317  p :     6.041524
      px      :     2.015371
      py      :     2.014835
      dz2     :     0.030621  d :     1.091165
      dxz     :     0.139529
      dyz     :     0.028328
      dx2y2   :     0.020311
      dxy     :     0.872377
      f0      :     0.000752  f :     0.012076
      f+1     :     0.001121
      f-1     :     0.000767
      f+2     :     0.000689
      f-2     :     0.002553
      f+3     :     0.003100
      f-3     :     0.003095

SPIN
  0  Ys       :     0.031174  s :     0.031174
      pz      :    -0.000329  p :     0.005714
      px      :     0.003258
      py      :     0.002785
      dz2     :    -0.003796  d :     0.955363
      dxz     :     0.112301
      dyz     :    -0.001699
      dx2y2   :    -0.000483
      dxy     :     0.849039
      f0      :     0.000067  f :     0.007749
      f+1     :     0.000466
      f-1     :     0.000108
      f+2     :     0.000198
      f-2     :     0.001860
      f+3     :     0.002522
      f-3     :     0.002528


                      *****************************
                      * MAYER POPULATION ANALYSIS *
                      *****************************

  NA   - Mulliken gross atomic population
  ZA   - Total nuclear charge
  QA   - Mulliken gross atomic charge
  VA   - Mayer's total valence
  BVA  - Mayer's bonded valence
  FA   - Mayer's free valence

  ATOM       NA         ZA         QA         VA         BVA        FA
  0  Y    11.0000    11.0000     0.0000     1.9589     0.0000     1.9589





------------------------------------------------------------------------------- 
                                     TIMINGS                                   
------------------------------------------------------------------------------- 


Total execution time                   ...        9.189 sec

Fock Matrix Formation                  ...        0.063 sec (  0.7%)
Initial Guess                          ...        0.004 sec (  0.0%)
DIIS Solver                            ...        0.060 sec (  0.7%)
State Vector Update                    ...        0.004 sec (  0.0%)
Sigma-vector construction              ...        0.708 sec (  7.7%)
  <D|H|D>(0-ext)                       ...        0.001 sec (  0.2% of sigma)
  <D|H|D>(2-ext)                       ...        0.009 sec (  1.2% of sigma)
  <D|H|D>(4-ext)                       ...        0.283 sec ( 39.9% of sigma)
  <S|H|0>                              ...        0.019 sec (  2.7% of sigma)
  <D|H|S>(1-ext)                       ...        0.007 sec (  1.0% of sigma)
  Fock-dressing                        ...        0.152 sec ( 21.5% of sigma)
  (ik|jl)-dressing                     ...        0.002 sec (  0.3% of sigma)
  (ij|ab),(ia|jb)-dressing             ...        0.178 sec ( 25.1% of sigma)
  Pair energies                        ...        0.001 sec (  0.2% of sigma)
Total Time for computing (T)           ...        0.027 sec (  0.3% of ALL)
  I/O of integral and amplitudes       ...        0.005 sec ( 19.3% of (T))
  External N**7 contributions          ...        0.004 sec ( 15.4% of (T))
  Internal N**7 contributions          ...        0.001 sec (  4.6% of (T))
  N**6 triples energy contributions    ...        0.009 sec ( 32.3% of (T))


-------------------------   --------------------
FINAL SINGLE POINT ENERGY       -38.038044357619
-------------------------   --------------------


                            ***************************************
                            *     ORCA property calculations      *
                            ***************************************

                                    ---------------------
                                    Active property flags
                                    ---------------------
   (+) Dipole Moment


------------------------------------------------------------------------------
                       ORCA ELECTRIC PROPERTIES CALCULATION
------------------------------------------------------------------------------

Dipole Moment Calculation                       ... on
Quadrupole Moment Calculation                   ... off
Polarizability Calculation                      ... off
GBWName                                         ... 39_Y.gbw
Electron density file                           ... 39_Y.scfp
The origin for moment calculation is the CENTER OF MASS  = ( 0.000000,  0.000000  0.000000)

-------------
DIPOLE MOMENT
-------------
                                X             Y             Z
Electronic contribution:      0.00000       0.00000      -0.00000
Nuclear contribution   :      0.00000       0.00000       0.00000
                        -----------------------------------------
Total Dipole Moment    :      0.00000       0.00000      -0.00000
                        -----------------------------------------
Magnitude (a.u.)       :      0.00000
Magnitude (Debye)      :      0.00000



--------------------
Rotational spectrum 
--------------------
 
Rotational constants in cm-1:     0.000000     0.000000     0.000000 
Rotational constants in MHz :     0.000000     0.000000     0.000000 

 Dipole components along the rotational axes: 
x,y,z [a.u.] :     0.000000     0.000000    -0.000000 
x,y,z [Debye]:     0.000000     0.000000    -0.000000 

 

                           *** MDCI DENSITY ***

------------------------------------------------------------------------------
                       ORCA ELECTRIC PROPERTIES CALCULATION
------------------------------------------------------------------------------

Dipole Moment Calculation                       ... on
Quadrupole Moment Calculation                   ... off
Polarizability Calculation                      ... off
GBWName                                         ... 39_Y.gbw
Electron density file                           ... 39_Y.mdcip
The origin for moment calculation is the CENTER OF MASS  = ( 0.000000,  0.000000  0.000000)

-------------
DIPOLE MOMENT
-------------
                                X             Y             Z
Electronic contribution:      0.00000      -0.00000       0.00000
Nuclear contribution   :      0.00000       0.00000       0.00000
                        -----------------------------------------
Total Dipole Moment    :      0.00000      -0.00000       0.00000
                        -----------------------------------------
Magnitude (a.u.)       :      0.00000
Magnitude (Debye)      :      0.00000



--------------------
Rotational spectrum 
--------------------
 
Rotational constants in cm-1:     0.000000     0.000000     0.000000 
Rotational constants in MHz :     0.000000     0.000000     0.000000 

 Dipole components along the rotational axes: 
x,y,z [a.u.] :     0.000000    -0.000000     0.000000 
x,y,z [Debye]:     0.000000    -0.000000     0.000000 

 

Timings for individual modules:

Sum of individual times         ...       24.810 sec (=   0.414 min)
GTO integral calculation        ...        0.911 sec (=   0.015 min)   3.7 %
SCF iterations                  ...       14.269 sec (=   0.238 min)  57.5 %
MDCI module                     ...        9.630 sec (=   0.161 min)  38.8 %
                             ****ORCA TERMINATED NORMALLY****
TOTAL RUN TIME: 0 days 0 hours 0 minutes 25 seconds 603 msec
