
                                 *****************
                                 * O   R   C   A *
                                 *****************

           --- An Ab Initio, DFT and Semiempirical electronic structure package ---

                  #######################################################
                  #                        -***-                        #
                  #          Department of theory and spectroscopy      #
                  #               Directorship: Frank Neese             #
                  #        Max Planck Institute fuer Kohlenforschung    #
                  #                Kaiser Wilhelm Platz 1               #
                  #                 D-45470 Muelheim/Ruhr               #
                  #                      Germany                        #
                  #                                                     #
                  #                  All rights reserved                #
                  #                        -***-                        #
                  #######################################################


                         Program Version 4.2.0 -  RELEASE  -


 With contributions from (in alphabetic order):
   Daniel Aravena         : Magnetic Suceptibility
   Michael Atanasov       : Ab Initio Ligand Field Theory (pilot matlab implementation)
   Alexander A. Auer      : GIAO ZORA, VPT2
   Ute Becker             : Parallelization
   Giovanni Bistoni       : ED, misc. LED, open-shell LED, HFLED
   Martin Brehm           : Molecular dynamics
   Dmytro Bykov           : SCF Hessian
   Vijay G. Chilkuri      : MRCI spin determinant printing, contributions to CSF-ICE
   Dipayan Datta          : RHF DLPNO-CCSD density
   Achintya Kumar Dutta   : EOM-CC, STEOM-CC
   Dmitry Ganyushin       : Spin-Orbit,Spin-Spin,Magnetic field MRCI
   Miquel Garcia          : C-PCM Hessian, Gaussian charge scheme
   Yang Guo               : DLPNO-NEVPT2, CIM, IAO-localization
   Andreas Hansen         : Spin unrestricted coupled pair/coupled cluster methods
   Benjamin Helmich-Paris : CASSCF linear response (MC-RPA)
   Lee Huntington         : MR-EOM, pCC
   Robert Izsak           : Overlap fitted RIJCOSX, COSX-SCS-MP3, EOM
   Christian Kollmar      : KDIIS, OOCD, Brueckner-CCSD(T), CCSD density
   Simone Kossmann        : Meta GGA functionals, TD-DFT gradient, OOMP2, MP2 Hessian
   Martin Krupicka        : AUTO-CI
   Lucas Lang             : DCDCAS
   Dagmar Lenk            : GEPOL surface, SMD
   Dimitrios Liakos       : Extrapolation schemes; Compound Job, initial MDCI parallelization
   Dimitrios Manganas     : Further ROCIS development; embedding schemes
   Dimitrios Pantazis     : SARC Basis sets
   Taras Petrenko         : DFT Hessian,TD-DFT gradient, ASA, ECA, R-Raman, ABS, FL, XAS/XES, NRVS
   Peter Pinski           : DLPNO-MP2, DLPNO-MP2 Gradient
   Christoph Reimann      : Effective Core Potentials
   Marius Retegan         : Local ZFS, SOC
   Christoph Riplinger    : Optimizer, TS searches, QM/MM, DLPNO-CCSD(T), (RO)-DLPNO pert. Triples
   Tobias Risthaus        : Range-separated hybrids, TD-DFT gradient, RPA, STAB
   Michael Roemelt        : Original ROCIS implementation
   Masaaki Saitow         : Open-shell DLPNO-CCSD energy and density
   Barbara Sandhoefer     : DKH picture change effects
   Avijit Sen             : IP-ROCIS
   Kantharuban Sivalingam : CASSCF convergence, NEVPT2, FIC-MRCI
   Bernardo de Souza      : ESD, SOC TD-DFT
   Georgi Stoychev        : AutoAux, RI-MP2 NMR
   Willem Van den Heuvel  : Paramagnetic NMR
   Boris Wezisla          : Elementary symmetry handling
   Frank Wennmohs         : Technical directorship


 We gratefully acknowledge several colleagues who have allowed us to
 interface, adapt or use parts of their codes:
   Stefan Grimme, W. Hujo, H. Kruse,             : VdW corrections, initial TS optimization,
                  C. Bannwarth                     DFT functionals, gCP, sTDA/sTD-DF
   Ed Valeev, F. Pavosevic, A. Kumar             : LibInt (2-el integral package), F12 methods
   Garnet Chan, S. Sharma, J. Yang, R. Olivares  : DMRG
   Ulf Ekstrom                                   : XCFun DFT Library
   Mihaly Kallay                                 : mrcc  (arbitrary order and MRCC methods)
   Andreas Klamt, Michael Diedenhofen            : otool_cosmo (COSMO solvation model)
   Jiri Pittner, Ondrej Demel                    : Mk-CCSD
   Frank Weinhold                                : gennbo (NPA and NBO analysis)
   Christopher J. Cramer and Donald G. Truhlar   : smd solvation model
   Lars Goerigk                                  : TD-DFT with DH, B97 family of functionals
   V. Asgeirsson, H. Jonsson                     : NEB implementation
   FAccTs GmbH                                   : IRC, NEB, NEB-TS, Multilevel, MM, QM/MM, CI optimization
   S Lehtola, MJT Oliveira, MAL Marques          : LibXC Library


 Your calculation uses the libint2 library for the computation of 2-el integrals
 For citations please refer to: http://libint.valeyev.net

 Your ORCA version has been built with support for libXC version: 4.2.3
 For citations please refer to: https://tddft.org/programs/libxc/

 This ORCA versions uses:
   CBLAS   interface :  Fast vector & matrix operations
   LAPACKE interface :  Fast linear algebra routines
   SCALAPACK package :  Parallel linear algebra routines


----- Orbital basis set information -----
Your calculation utilizes the basis: def2-TZVP
   F. Weigend and R. Ahlrichs, Phys. Chem. Chem. Phys. 7, 3297 (2005).

cite the ECPs for Rh [Def2-ECP] as follows:
Ce-Yb(ecp-28): M. Dolg, H. Stoll, H.Preuss, J. Chem. Phys., 1989, 90, 1730-1734.
Y-Cd(ecp-28), Hf-Hg(ecp-46): D. Andrae,U. Haeussermann, M. Dolg, H. Stoll, H. Preuss, Theor. Chim. Acta, 1990, 77, 123-141.
In-Sb(ecp-28), Tl-Bi(ecp-46): B. Metz, H. Stoll, M. Dolg, J. Chem. Phys., 2000, 113, 2563-2569.
Te-Xe(ecp-28), Po-Rn(ecp-46): K. A. Peterson, D. Figgen, E. Goll, H. Stoll, M. Dolg, J. Chem. Phys., 2003, 119, 11113-11123.
Rb(ecp-28), Cs(ecp-46): T. Leininger, A. Nicklass, W. Kuechle, H. Stoll, M. Dolg, A. Bergner, Chem. Phys. Lett., 1996, 255, 274-280.
Sr(ecp-28), Ba(ecp-46): M. Kaupp, P. V. Schleyer, H. Stoll and H. Preuss, J. Chem. Phys., 1991, 94, 1360-1366.
La(ecp-46): M. Dolg, H. Stoll, A. Savin, H. Preuss, Theor. Chim. Acta, 1989, 75, 173-194.
Lu(ecp-28): X. Cao, M. Dolg, J. Chem. Phys., 2001, 115, 7348-7355.

ECP parameters for Rh [Def2-ECP] have been obtained from:
TURBOMOLE (7.0.2)

================================================================================
                                        WARNINGS
                       Please study these warnings very carefully!
================================================================================


WARNING: your system is open-shell and RHF/RKS was chosen
  ===> : WILL SWITCH to UHF/UKS


WARNING: MDCI localization with Augmented Hessian Foster-Boys
  ===> : Switching off randomization!

WARNING: Post HF methods need fully converged wavefunctions
  ===> : Setting SCFConvForced true
         You can overwrite this default with %scf ConvForced false 


INFO   : the flag for use of LIBINT has been found!

================================================================================
                                       INPUT FILE
================================================================================
NAME = 45_Rh.in
|  1> #
|  2> # 45_Rh CCSD(T)/Def2-TZVP
|  3> #
|  4> ! CCSD(T) Def2-TZVP tightscf
|  5> 
|  6> *xyz 0 4
|  7>  Rh 0.0 0.0 0.0
|  8> *
|  9> 
| 10> %maxcore 5000 
| 11> 
| 12> %pal
| 13> nprocs 24
| 14> end
| 15> 
| 16> 
| 17>                          ****END OF INPUT****
================================================================================

                       ****************************
                       * Single Point Calculation *
                       ****************************

---------------------------------
CARTESIAN COORDINATES (ANGSTROEM)
---------------------------------
  Rh     0.000000    0.000000    0.000000

----------------------------
CARTESIAN COORDINATES (A.U.)
----------------------------
  NO LB      ZA    FRAG     MASS         X           Y           Z
   0 Rh   17.0000*   0   102.910    0.000000    0.000000    0.000000
* core charge reduced due to ECP

--------------------------------
INTERNAL COORDINATES (ANGSTROEM)
--------------------------------
 Rh     0   0   0     0.000000000000     0.00000000     0.00000000

---------------------------
INTERNAL COORDINATES (A.U.)
---------------------------
 Rh     0   0   0     0.000000000000     0.00000000     0.00000000

---------------------
BASIS SET INFORMATION
---------------------
There are 1 groups of distinct atoms

 Group   1 Type Rh  : 7s7p6d1f contracted to 6s4p3d1f pattern {211111/4111/411/1}

Atom   0Rh   basis set group =>   1
-------------------------
ECP PARAMETER INFORMATION
-------------------------

 Group 1, Type Rh ECP Def2-ECP (replacing 28 core electrons, lmax=3)

Atom   0Rh   ECP group =>   1



           ************************************************************
           *        Program running with 24 parallel MPI-processes    *
           *              working on a common directory               *
           ************************************************************
------------------------------------------------------------------------------
                           ORCA GTO INTEGRAL CALCULATION
------------------------------------------------------------------------------

                         BASIS SET STATISTICS AND STARTUP INFO

 # of primitive gaussian shells          ...   21
 # of primitive gaussian functions       ...   65
 # of contracted shells                  ...   14
 # of contracted basis functions         ...   40
 Highest angular momentum                ...    3
 Maximum contraction depth               ...    4
 Integral package used                   ... LIBINT
 Integral threshhold            Thresh   ...  2.500e-11
 Primitive cut-off              TCut     ...  2.500e-12


------------------------------ INTEGRAL EVALUATION ----------------------------


 * One electron integrals 

   ECP integrals                         ... done
 Pre-screening matrix                    ... done
 Shell pair data                         ... done (   0.000 sec)



           ************************************************************
           *        Program running with 24 parallel MPI-processes    *
           *              working on a common directory               *
           ************************************************************
-------------------------------------------------------------------------------
                                 ORCA SCF
-------------------------------------------------------------------------------

------------
SCF SETTINGS
------------
Hamiltonian:
 Ab initio Hamiltonian  Method          .... Hartree-Fock(GTOs)


General Settings:
 Integral files         IntName         .... 45_Rh
 Hartree-Fock type      HFTyp           .... UHF
 Total Charge           Charge          ....    0
 Multiplicity           Mult            ....    4
 Number of Electrons    NEL             ....   17
 Basis Dimension        Dim             ....   40
 Nuclear Repulsion      ENuc            ....      0.0000000000 Eh

Convergence Acceleration:
 DIIS                   CNVDIIS         .... on
   Start iteration      DIISMaxIt       ....    12
   Startup error        DIISStart       ....  0.200000
   # of expansion vecs  DIISMaxEq       ....     5
   Bias factor          DIISBfac        ....   1.050
   Max. coefficient     DIISMaxC        ....  10.000
 Newton-Raphson         CNVNR           .... off
 SOSCF                  CNVSOSCF        .... off
 Level Shifting         CNVShift        .... on
   Level shift para.    LevelShift      ....    0.2500
   Turn off err/grad.   ShiftErr        ....    0.0010
 Zerner damping         CNVZerner       .... off
 Static damping         CNVDamp         .... on
   Fraction old density DampFac         ....    0.7000
   Max. Damping (<1)    DampMax         ....    0.9800
   Min. Damping (>=0)   DampMin         ....    0.0000
   Turn off err/grad.   DampErr         ....    0.1000
 Fernandez-Rico         CNVRico         .... off

SCF Procedure:
 Maximum # iterations   MaxIter         ....   125
 SCF integral mode      SCFMode         .... Direct
   Integral package                     .... LIBINT
 Reset frequency        DirectResetFreq ....    20
 Integral Threshold     Thresh          ....  2.500e-11 Eh
 Primitive CutOff       TCut            ....  2.500e-12 Eh

Convergence Tolerance:
 Convergence Check Mode ConvCheckMode   .... Total+1el-Energy
 Convergence forced     ConvForced      .... 1
 Energy Change          TolE            ....  1.000e-08 Eh
 1-El. energy change                    ....  1.000e-05 Eh
 DIIS Error             TolErr          ....  5.000e-07


Diagonalization of the overlap matrix:
Smallest eigenvalue                        ... 2.134e-02
Time for diagonalization                   ...    0.001 sec
Threshold for overlap eigenvalues          ... 1.000e-08
Number of eigenvalues below threshold      ... 0
Time for construction of square roots      ...    0.013 sec
Total time needed                          ...    0.014 sec

-------------------
DFT GRID GENERATION
-------------------

General Integration Accuracy     IntAcc      ...  4.340
Radial Grid Type                 RadialGrid  ... Gauss-Chebyshev
Angular Grid (max. acc.)         AngularGrid ... Lebedev-110
Angular grid pruning method      GridPruning ... 3 (G Style)
Weight generation scheme         WeightScheme... Becke
Basis function cutoff            BFCut       ...    1.0000e-11
Integration weight cutoff        WCut        ...    1.0000e-14
Grids for H and He will be reduced by one unit

# of grid points (after initial pruning)     ...   3280 (   0.0 sec)
# of grid points (after weights+screening)   ...   3280 (   0.0 sec)
Grid point division into batches done        ...    0.0 sec
Reduced shell lists constructed in    0.0 sec

Total number of grid points                  ...     3280
Total number of batches                      ...       52
Average number of points per batch           ...       63
Average number of grid points per atom       ...     3280
Average number of shells per batch           ...     4.25 (30.36%)
Average number of basis functions per batch  ...    11.75 (29.38%)
Average number of large shells per batch     ...     3.75 (88.24%)
Average number of large basis fcns per batch ...     9.75 (82.98%)
Maximum spatial batch extension              ...  19.86, 31.24, 31.24 au
Average spatial batch extension              ...   1.09,  1.59,  1.80 au

Time for grid setup =    0.062 sec

------------------------------
INITIAL GUESS: MODEL POTENTIAL
------------------------------
Loading Hartree-Fock densities                     ... done
  calling /sw/apps/orca/orca_4_2_0_linux_x86-64_openmpi314/orca 45_Rh_atom45.inp > 45_Rh_atom45.out in order to generate an atomic fitting density for atom 0 (Rh with ECP) on-the-fly... 
    atom 0 (Rh), assumed electronic state with S=4: 1s2 2s2 2p6 3s2 3p6 4s2 3d10 4p6 5s2 4d7           ... done
Calculating cut-offs                               ... done
Setting up the integral package                    ... done
Initializing the effective Hamiltonian             ... done
Starting the Coulomb interaction                   ... done (   0.0 sec)
Reading the grid                                   ... done
Mapping shells                                     ... done
Starting the XC term evaluation                    ... done (   0.0 sec)
Transforming the Hamiltonian                       ... done (   0.0 sec)
Diagonalizing the Hamiltonian                      ... done (   0.0 sec)
Back transforming the eigenvectors                 ... done (   0.0 sec)
Now organizing SCF variables                       ... done
                      ------------------
                      INITIAL GUESS DONE (   1.5 sec)
                      ------------------
--------------
SCF ITERATIONS
--------------
ITER       Energy         Delta-E        Max-DP      RMS-DP      [F,P]     Damp
               ***  Starting incremental Fock matrix formation  ***
  0   -109.6882007740   0.000000000000 0.08001088  0.00248291  0.4665794 0.7000
  1   -109.7067288916  -0.018528117601 0.05827976  0.00187703  0.3243669 0.7000
  2   -109.7177310009  -0.011002109240 0.03941507  0.00132839  0.2248315 0.7000
                               ***Turning on DIIS***
  3   -109.7249985232  -0.007267522376 0.02908536  0.00097489  0.1570289 0.7000
  4   -109.8127077330  -0.087709209794 0.02806840  0.00081512  0.1104856 0.7000
  5   -109.7841152382   0.028592494805 0.08899465  0.00244036  0.0784044 0.0000
  6   -109.7441043782   0.040010859993 0.02297100  0.00056490  0.0023463 0.0000
  7   -109.7401407558   0.003963622403 0.01389698  0.00033255  0.0015837 0.0000
  8   -109.7468911568  -0.006750401006 0.01505081  0.00036611  0.0011099 0.0000
  9   -109.7449052917   0.001985865158 0.01237618  0.00030097  0.0005852 0.0000
 10   -109.7436397285   0.001265563207 0.00317973  0.00007799  0.0001288 0.0000
 11   -109.7432070453   0.000432683155 0.00029971  0.00000746  0.0000205 0.0000
 12   -109.7432140193  -0.000006973996 0.00010700  0.00000272  0.0000084 0.0000
                            ***DIIS convergence achieved***

               *****************************************************
               *                     SUCCESS                       *
               *           SCF CONVERGED AFTER  13 CYCLES          *
               *****************************************************


----------------
TOTAL SCF ENERGY
----------------

Total Energy       :         -109.74319213 Eh           -2986.26408 eV

Components:
Nuclear Repulsion  :            0.00000000 Eh               0.00000 eV
Electronic Energy  :         -109.74319213 Eh           -2986.26408 eV
One Electron Energy:         -194.06209372 Eh           -5280.69804 eV
Two Electron Energy:           84.31890159 Eh            2294.43396 eV

Virial components:
Potential Energy   :         -151.05013168 Eh           -4110.28305 eV
Kinetic Energy     :           41.30693955 Eh            1124.01897 eV
Virial Ratio       :            3.65677374


---------------
SCF CONVERGENCE
---------------

  Last Energy change         ...    2.1890e-05  Tolerance :   1.0000e-08
  Last MAX-Density change    ...    1.1099e-05  Tolerance :   1.0000e-07
  Last RMS-Density change    ...    2.9028e-07  Tolerance :   5.0000e-09
  Last DIIS Error            ...    5.6484e-07  Tolerance :   5.0000e-07

             **** THE GBW FILE WAS UPDATED (45_Rh.gbw) ****
             **** DENSITY FILE WAS UPDATED (45_Rh.scfp) ****
             **** ENERGY FILE WAS UPDATED (45_Rh.en.tmp) ****
----------------------
UHF SPIN CONTAMINATION
----------------------

Expectation value of <S**2>     :     3.752442
Ideal value S*(S+1) for S=1.5   :     3.750000
Deviation                       :     0.002442

             **** THE GBW FILE WAS UPDATED (45_Rh.gbw) ****
             **** DENSITY FILE WAS UPDATED (45_Rh.scfp) ****
----------------
ORBITAL ENERGIES
----------------
                 SPIN UP ORBITALS
  NO   OCC          E(Eh)            E(eV) 
   0   1.0000      -3.827025      -104.1386 
   1   1.0000      -2.452503       -66.7360 
   2   1.0000      -2.452503       -66.7360 
   3   1.0000      -2.452503       -66.7360 
   4   1.0000      -0.479714       -13.0537 
   5   1.0000      -0.479714       -13.0537 
   6   1.0000      -0.439853       -11.9690 
   7   1.0000      -0.439853       -11.9690 
   8   1.0000      -0.439853       -11.9690 
   9   1.0000      -0.237292        -6.4570 
  10   0.0000       0.041520         1.1298 
  11   0.0000       0.041521         1.1298 
  12   0.0000       0.041521         1.1298 
  13   0.0000       0.176770         4.8102 
  14   0.0000       0.265863         7.2345 
  15   0.0000       0.265863         7.2345 
  16   0.0000       0.265863         7.2345 
  17   0.0000       0.435516        11.8510 
  18   0.0000       0.435516        11.8510 
  19   0.0000       0.444126        12.0853 
  20   0.0000       0.444126        12.0853 
  21   0.0000       0.444126        12.0853 
  22   0.0000       1.662677        45.2437 
  23   0.0000       1.662677        45.2437 
  24   0.0000       1.662677        45.2437 
  25   0.0000       1.941141        52.8211 
  26   0.0000       1.941141        52.8211 
  27   0.0000       1.965874        53.4942 
  28   0.0000       1.965874        53.4942 
  29   0.0000       1.965874        53.4942 
  30   0.0000       2.009765        54.6885 
  31   0.0000       2.429216        66.1023 
  32   0.0000       2.429216        66.1023 
  33   0.0000       2.429216        66.1023 
  34   0.0000       2.449802        66.6625 
  35   0.0000       2.449802        66.6625 
  36   0.0000       2.449802        66.6625 
  37   0.0000       2.475753        67.3687 
  38   0.0000      30.030223       817.1639 
  39   0.0000     102.077640      2777.6738 

                 SPIN DOWN ORBITALS
  NO   OCC          E(Eh)            E(eV) 
   0   1.0000      -3.692342      -100.4737 
   1   1.0000      -2.288494       -62.2731 
   2   1.0000      -2.288493       -62.2731 
   3   1.0000      -2.288493       -62.2731 
   4   1.0000      -0.388553       -10.5731 
   5   1.0000      -0.388553       -10.5731 
   6   1.0000      -0.388553       -10.5731 
   7   0.0000       0.019284         0.5248 
   8   0.0000       0.074686         2.0323 
   9   0.0000       0.074686         2.0323 
  10   0.0000       0.074686         2.0323 
  11   0.0000       0.170422         4.6374 
  12   0.0000       0.170422         4.6374 
  13   0.0000       0.236522         6.4361 
  14   0.0000       0.317644         8.6435 
  15   0.0000       0.317644         8.6435 
  16   0.0000       0.317644         8.6435 
  17   0.0000       0.470279        12.7969 
  18   0.0000       0.470279        12.7969 
  19   0.0000       0.470279        12.7969 
  20   0.0000       0.527731        14.3603 
  21   0.0000       0.527731        14.3603 
  22   0.0000       1.716890        46.7189 
  23   0.0000       1.716890        46.7189 
  24   0.0000       1.716890        46.7189 
  25   0.0000       1.994726        54.2793 
  26   0.0000       1.994726        54.2793 
  27   0.0000       1.994727        54.2793 
  28   0.0000       2.053562        55.8803 
  29   0.0000       2.053562        55.8803 
  30   0.0000       2.072108        56.3849 
  31   0.0000       2.488558        67.7171 
  32   0.0000       2.543781        69.2198 
  33   0.0000       2.543781        69.2198 
  34   0.0000       2.543781        69.2198 
  35   0.0000       2.590211        70.4832 
  36   0.0000       2.590211        70.4832 
  37   0.0000       2.590211        70.4832 
  38   0.0000      30.046754       817.6137 
  39   0.0000     102.079175      2777.7156 

                    ********************************
                    * MULLIKEN POPULATION ANALYSIS *
                    ********************************

--------------------------------------------
MULLIKEN ATOMIC CHARGES AND SPIN POPULATIONS
--------------------------------------------
   0 Rh:   -0.000000    3.000000
Sum of atomic charges         :   -0.0000000
Sum of atomic spin populations:    3.0000000

-----------------------------------------------------
MULLIKEN REDUCED ORBITAL CHARGES AND SPIN POPULATIONS
-----------------------------------------------------
CHARGE
  0 Rhs       :     3.000000  s :     3.000000
      pz      :     1.999488  p :     5.998465
      px      :     1.999488
      py      :     1.999488
      dz2     :     1.000000  d :     8.000000
      dxz     :     2.000000
      dyz     :     2.000000
      dx2y2   :     1.000000
      dxy     :     2.000000
      f0      :     0.000512  f :     0.001535
      f+1     :     0.000192
      f-1     :     0.000192
      f+2     :     0.000000
      f-2     :     0.000000
      f+3     :     0.000320
      f-3     :     0.000320

SPIN
  0 Rhs       :     1.000000  s :     1.000000
      pz      :     0.000450  p :     0.001350
      px      :     0.000450
      py      :     0.000450
      dz2     :     1.000000  d :     2.000000
      dxz     :     0.000000
      dyz     :     0.000000
      dx2y2   :     1.000000
      dxy     :     0.000000
      f0      :    -0.000450  f :    -0.001350
      f+1     :    -0.000169
      f-1     :    -0.000169
      f+2     :    -0.000000
      f-2     :    -0.000000
      f+3     :    -0.000281
      f-3     :    -0.000281


                     *******************************
                     * LOEWDIN POPULATION ANALYSIS *
                     *******************************

-------------------------------------------
LOEWDIN ATOMIC CHARGES AND SPIN POPULATIONS
-------------------------------------------
   0 Rh:   -0.000000    3.000000

----------------------------------------------------
LOEWDIN REDUCED ORBITAL CHARGES AND SPIN POPULATIONS
----------------------------------------------------
CHARGE
  0 Rhs       :     3.000000  s :     3.000000
      pz      :     1.999488  p :     5.998465
      px      :     1.999488
      py      :     1.999488
      dz2     :     1.000000  d :     8.000000
      dxz     :     2.000000
      dyz     :     2.000000
      dx2y2   :     1.000000
      dxy     :     2.000000
      f0      :     0.000512  f :     0.001535
      f+1     :     0.000192
      f-1     :     0.000192
      f+2     :     0.000000
      f-2     :     0.000000
      f+3     :     0.000320
      f-3     :     0.000320

SPIN
  0 Rhs       :     1.000000  s :     1.000000
      pz      :     0.000450  p :     0.001350
      px      :     0.000450
      py      :     0.000450
      dz2     :     1.000000  d :     2.000000
      dxz     :     0.000000
      dyz     :     0.000000
      dx2y2   :     1.000000
      dxy     :     0.000000
      f0      :    -0.000450  f :    -0.001350
      f+1     :    -0.000169
      f-1     :    -0.000169
      f+2     :    -0.000000
      f-2     :    -0.000000
      f+3     :    -0.000281
      f-3     :    -0.000281


                      *****************************
                      * MAYER POPULATION ANALYSIS *
                      *****************************

  NA   - Mulliken gross atomic population
  ZA   - Total nuclear charge
  QA   - Mulliken gross atomic charge
  VA   - Mayer's total valence
  BVA  - Mayer's bonded valence
  FA   - Mayer's free valence

  ATOM       NA         ZA         QA         VA         BVA        FA
  0 Rh    17.0000    17.0000    -0.0000     3.0049     0.0000     3.0049

  Mayer bond orders larger than 0.100000


-------
TIMINGS
-------

Total SCF time: 0 days 0 hours 0 min 14 sec 

Total time                  ....      14.805 sec
Sum of individual times     ....      14.403 sec  ( 97.3%)

Fock matrix formation       ....       2.171 sec  ( 14.7%)
Diagonalization             ....       0.082 sec  (  0.6%)
Density matrix formation    ....       0.003 sec  (  0.0%)
Population analysis         ....      10.366 sec  ( 70.0%)
Initial guess               ....       1.454 sec  (  9.8%)
Orbital Transformation      ....       0.000 sec  (  0.0%)
Orbital Orthonormalization  ....       0.000 sec  (  0.0%)
DIIS solution               ....       0.265 sec  (  1.8%)


           ************************************************************
           *        Program running with 24 parallel MPI-processes    *
           *              working on a common directory               *
           ************************************************************


------------------------------------------------------------------------------- 
                              ORCA-MATRIX DRIVEN CI                            
------------------------------------------------------------------------------- 

--------------------------------
AUTOMATIC CHOICE OF INCORE LEVEL
--------------------------------

Memory available                           ...   2500.00 MB
Memory needed for S+T                      ...      1.13 MB
Memory needed for J+K                      ...      2.29 MB
Memory needed for DIIS                     ...     15.86 MB
Memory needed for 3-ext                    ...      2.06 MB
Memory needed for 4-ext                    ...      3.19 MB
Memory needed for triples                  ...      1.03 MB
 -> Final InCoreLevel    ... 5
 -> check shows that triples correction can be computed


Wavefunction type
-----------------
Correlation treatment                      ...      CCSD     
Single excitations                         ... ON
Orbital optimization                       ... OFF
Calculation of Z vector                    ... OFF
Calculation of Brueckner orbitals          ... OFF
Perturbative triple excitations            ... ON
Calculation of F12 correction              ... OFF
Frozen core treatment                      ... chemical core (0 el)
Reference Wavefunction                     ... UHF
  Alpha-MOs occ    :     0 ...    9 ( 10 MO's/ 10 electrons)
  Beta-MOs occ     :     0 ...    6 (  7 MO's/  7 electrons)
  Alpha-MOs virt   :    10 ...   39 ( 30 MO's              )
  Beta-MOs virt    :     7 ...   39 ( 33 MO's              )
Number of AO's                             ...     40
Number of electrons                        ...     17
Number of correlated electrons             ...     17

Algorithmic settings
--------------------
Integral transformation                    ... AO direct full transformation
K(C) Formation                             ... FULL-MO TRAFO
Maximum number of iterations               ...        50
Convergence tolerance (max. residuum)      ... 1.000e-05
Level shift for amplitude update           ... 2.000e-01
Maximum number of DIIS vectors             ...         7
DIIS turned on at iteration                ...         0
Damping before turning on DIIS             ...     0.500
Damping after turning on DIIS              ...     0.000
Pair specific amplitude update             ... OFF
Natural orbital iterations                 ... OFF
Perturbative natural orbital generation    ... OFF
Printlevel                                 ... 2

Memory handling:
----------------
Maximum memory for working arrays          ...   2500 MB
Data storage in matrix containers          ... UNCOMPRESSED
Data type for integral storage             ... DOUBLE
In-Core Storage of quantities:
   Amplitudes+Sigma Vector      ... YES
   J+K operators                ... YES
   DIIS vectors                 ... YES
   3-external integrals         ... YES
   4-external integrals         ... YES


Initializing the integral package          ... done
Warning: reference  - re-canonicalizations have been set to INT 1 VIRT 1

--------------------------
UNRESTRICTED FOCK OPERATOR
--------------------------

<ss|ss>:          231 b            0 skpd (  0.0%)    0.000 s ( 0.000 ms/b)
<ss|sp>:          504 b            0 skpd (  0.0%)    0.000 s ( 0.000 ms/b)
<ss|sd>:          378 b            0 skpd (  0.0%)    0.000 s ( 0.000 ms/b)
<ss|sf>:          126 b            0 skpd (  0.0%)    0.000 s ( 0.000 ms/b)
<ss|pp>:          210 b            0 skpd (  0.0%)    0.000 s ( 0.000 ms/b)
<ss|pd>:          252 b            0 skpd (  0.0%)    0.000 s ( 0.000 ms/b)
<ss|pf>:           84 b            0 skpd (  0.0%)    0.000 s ( 0.001 ms/b)
<ss|dd>:          126 b            0 skpd (  0.0%)    0.000 s ( 0.001 ms/b)
<ss|df>:           63 b            0 skpd (  0.0%)    0.000 s ( 0.002 ms/b)
<ss|ff>:           21 b            0 skpd (  0.0%)    0.000 s ( 0.004 ms/b)
<sp|sp>:          300 b            0 skpd (  0.0%)    0.000 s ( 0.000 ms/b)
<sp|sd>:          432 b            0 skpd (  0.0%)    0.000 s ( 0.000 ms/b)
<sp|sf>:          144 b            0 skpd (  0.0%)    0.000 s ( 0.000 ms/b)
<sp|pp>:          240 b            0 skpd (  0.0%)    0.000 s ( 0.001 ms/b)
<sp|pd>:          288 b            0 skpd (  0.0%)    0.000 s ( 0.001 ms/b)
<sp|pf>:           96 b            0 skpd (  0.0%)    0.000 s ( 0.002 ms/b)
<sp|dd>:          144 b            0 skpd (  0.0%)    0.001 s ( 0.004 ms/b)
<sp|df>:           72 b            0 skpd (  0.0%)    0.000 s ( 0.005 ms/b)
<sp|ff>:           24 b            0 skpd (  0.0%)    0.000 s ( 0.012 ms/b)
<sd|sd>:          171 b            0 skpd (  0.0%)    0.000 s ( 0.001 ms/b)
<sd|sf>:          108 b            0 skpd (  0.0%)    0.000 s ( 0.001 ms/b)
<sd|pp>:          180 b            0 skpd (  0.0%)    0.000 s ( 0.002 ms/b)
<sd|pd>:          216 b            0 skpd (  0.0%)    0.001 s ( 0.003 ms/b)
<sd|pf>:           72 b            0 skpd (  0.0%)    0.000 s ( 0.005 ms/b)
<sd|dd>:          108 b            0 skpd (  0.0%)    0.001 s ( 0.010 ms/b)
<sd|df>:           54 b            0 skpd (  0.0%)    0.001 s ( 0.012 ms/b)
<sd|ff>:           18 b            0 skpd (  0.0%)    0.000 s ( 0.026 ms/b)
<sf|sf>:           21 b            0 skpd (  0.0%)    0.000 s ( 0.002 ms/b)
<sf|pp>:           60 b            0 skpd (  0.0%)    0.000 s ( 0.002 ms/b)
<sf|pd>:           72 b            0 skpd (  0.0%)    0.000 s ( 0.003 ms/b)
<sf|pf>:           24 b            0 skpd (  0.0%)    0.000 s ( 0.007 ms/b)
<sf|dd>:           36 b            0 skpd (  0.0%)    0.000 s ( 0.012 ms/b)
<sf|df>:           18 b            0 skpd (  0.0%)    0.000 s ( 0.017 ms/b)
<sf|ff>:            6 b            0 skpd (  0.0%)    0.000 s ( 0.039 ms/b)
<pp|pp>:           55 b            0 skpd (  0.0%)    0.000 s ( 0.005 ms/b)
<pp|pd>:          120 b            0 skpd (  0.0%)    0.001 s ( 0.004 ms/b)
<pp|pf>:           40 b            0 skpd (  0.0%)    0.000 s ( 0.008 ms/b)
<pp|dd>:           60 b            0 skpd (  0.0%)    0.001 s ( 0.015 ms/b)
<pp|df>:           30 b            0 skpd (  0.0%)    0.001 s ( 0.018 ms/b)
<pp|ff>:           10 b            0 skpd (  0.0%)    0.000 s ( 0.039 ms/b)
<pd|pd>:           78 b            0 skpd (  0.0%)    0.001 s ( 0.018 ms/b)
<pd|pf>:           48 b            0 skpd (  0.0%)    0.001 s ( 0.016 ms/b)
<pd|dd>:           72 b            0 skpd (  0.0%)    0.003 s ( 0.036 ms/b)
<pd|df>:           36 b            0 skpd (  0.0%)    0.002 s ( 0.043 ms/b)
<pd|ff>:           12 b            0 skpd (  0.0%)    0.001 s ( 0.087 ms/b)
<pf|pf>:           10 b            0 skpd (  0.0%)    0.000 s ( 0.032 ms/b)
<pf|dd>:           24 b            0 skpd (  0.0%)    0.001 s ( 0.037 ms/b)
<pf|df>:           12 b            0 skpd (  0.0%)    0.001 s ( 0.055 ms/b)
<pf|ff>:            4 b            0 skpd (  0.0%)    0.000 s ( 0.114 ms/b)
<dd|dd>:           21 b            0 skpd (  0.0%)    0.003 s ( 0.152 ms/b)
<dd|df>:           18 b            0 skpd (  0.0%)    0.002 s ( 0.102 ms/b)
<dd|ff>:            6 b            0 skpd (  0.0%)    0.001 s ( 0.187 ms/b)
<df|df>:            6 b            0 skpd (  0.0%)    0.001 s ( 0.161 ms/b)
<df|ff>:            3 b            0 skpd (  0.0%)    0.001 s ( 0.240 ms/b)
<ff|ff>:            1 b            0 skpd (  0.0%)    0.000 s ( 0.354 ms/b)
Recanonicalizing the internal orbitals
Recanonicalizing the virtual orbitals
Time needed for Fock operator              ...            0.281 sec
Reference energy                           ...   -109.743193370
Warning: for UHF the TrafoType has to be JK
Warning: for UHF the K(C)-option cannot be MO but must be AOX

-------------------------------
PARTIAL EXCHANGE TRANSFORMATION
-------------------------------

Transformation type                        ... two-operators
Generation of integrals (i,mue|j,nue)      ... ON
Generation of integrals (mue,kappa|nue,tau)... ON
Generation of integrals (i,mue|a,nue)      ... ON
Dimension of the basis                     ...   40
Number of internal alpha-MOs               ...   10 (   0-   9)
Number of internal beta-MOs                ...    7 (   0-   6)
Number of external alpha-MOs               ...   30 (  10-  39)
Number of external beta-MOs                ...   33 (   7-  39)
Pair cutoff                                ... 0.000e+00 Eh
Number of AO pairs in the trafo            ...  820
Total Number of distinct AO pairs          ...  820
Memory devoted for trafo                   ... 2500.0 MB 
Max. Number of MO pairs treated together   ... 204800      
Number Format for Storage                  ... Double (8 Byte)
Integral package used                      ... LIBINT

Starting integral evaluation:
    ... done with AO integral generation
Closing buffer AOK[aa] ( 0.00 GB; CompressionRatio= 0.00)
Closing buffer AOK[bb] ( 0.00 GB; CompressionRatio= 0.00)
Closing buffer AOK[ab] ( 0.00 GB; CompressionRatio= 0.00)
Closing buffer AOK[ba] ( 0.00 GB; CompressionRatio= 0.00)
Collecting buffer AOK 
Closing buffer IAAO1[aa] ( 0.00 GB; CompressionRatio= 0.00)
Closing buffer IAAO1[bb] ( 0.00 GB; CompressionRatio= 0.00)
Closing buffer IAAO1[ab] ( 0.00 GB; CompressionRatio= 0.00)
Closing buffer IAAO1[ba] ( 0.00 GB; CompressionRatio= 0.00)
Closing buffer IAAO2[aa] ( 0.00 GB; CompressionRatio= 0.00)
Closing buffer IAAO2[bb] ( 0.00 GB; CompressionRatio= 0.00)
Closing buffer IAAO2[ab] ( 0.00 GB; CompressionRatio= 0.00)
Closing buffer IAAO2[ba] ( 0.00 GB; CompressionRatio= 0.00)
Collecting buffer IAAO 
Closing buffer PRQS    ( 0.00 GB; CompressionRatio= 0.00)
Collecting buffer PRQS 
Number of alpha/alpha MO pairs in trafo    ...   55
Number of beta /beta  MO pairs in trafo    ...   28
Number of alpha/ beta MO pairs in trafo    ...   70
------------------------
SORTING OF (i,mue|j,nue)
------------------------

SORTING OF ALPHA/ALPHA PAIRS
IBATCH = 1 of  1
Closing buffer KAO[aa] ( 0.00 GB; CompressionRatio= 1.00)
Collecting buffer KAO 
SORTING OF BETA /BETA  PAIRS
IBATCH = 1 of  1
Closing buffer KAO[bb] ( 0.00 GB; CompressionRatio= 1.00)
Collecting buffer KAO 
SORTING OF ALPHA/BETA  PAIRS
IBATCH = 1 of  1
Closing buffer KAO[ab] ( 0.00 GB; CompressionRatio= 0.999063378083)
Collecting buffer KAO[ab] 
------------------------
SORTING OF (i,mue|a,nue)
------------------------

Number of alpha/alpha (i,a) pairs in trafo  ...  300
Number of beta /beta  (i,a) pairs in trafo  ...  231
Number of alpha/ beta (i,a) pairs in trafo  ...  330
Number of beta /alpha (i,a) pairs in trafo  ...  210
Setting up the alpha/alpha list             ... done
Setting up the beta /beta  list             ... done
Setting up the alpha/beta  list             ... done
Setting up the beta /alpha list             ... done
    ... Now sorting (i,mue|a,nue)integrals
    ... Integrals (i,b|a,c) will be made on the fly
SORTING OF ALPHA/ALPHA PAIRS
IBATCH = 1 of  1
Closing buffer IPAQ[aa]  0.00 GB; CompressionRatio= 1.00)
SORTING OF BETA /BETA  PAIRS
IBATCH = 1 of  1
Closing buffer IPAQ[bb]( 0.00 GB; CompressionRatio= 1.00)
SORTING OF ALPHA/BETA  PAIRS (NMatSort_ab=14)
IBATCH = 1 of  1
Closing buffer IPAQ[ab]( 0.00 GB; CompressionRatio= 1.00)
SORTING OF BETA/ALPHA  PAIRS
IBATCH = 1 of  1
Closing buffer IPAQ[ba]( 0.00 GB; CompressionRatio= 1.00)
N(AO-Batches) Done                         ...         0 
N(AO-Batches) Skipped                      ...         0 
N(IJ)-pairs Skipped                        ...         0 
TOTAL TIME for half transformation         ...     2.116 sec
AO-integral generation                     ...     0.000 sec
Half transformation                        ...     0.000 sec
K-integral sorting                         ...     0.753 sec
<ss|**>: 
------------------------------
PARTIAL COULOMB TRANSFORMATION
------------------------------

Transformation type                        ... two-operators
Dimension of the basis                     ...   40
Number of internal alpha-MOs               ...   10 (0-9)
Number of internal beta-MOs                ...    7 (0-6)
Pair cutoff                                ... 0.000e+00 Eh
Number of AO pairs included in the trafo   ...  820
Total Number of distinct AO pairs          ...  820
Memory devoted for trafo                   ... 2500.0 MB 
Max. Number of MO pairs treated together   ... 399609      
Max. Number of MOs treated per batch       ... 9990      
Number Format for Storage                  ... Double (8 Byte)
AO-integral source                         ... DIRECT
Integral package used                      ... LIBINT

Starting integral evaluation:
        2205 b        0 skpd     0.001 s (  0.000 ms/b)
<sp|**>: <sd|**>:         2520 b        0 skpd     0.013 s (  0.005 ms/b)
        1890 b        0 skpd     0.016 s (  0.009 ms/b)
<sf|**>:          630 b        0 skpd     0.008 s (  0.013 ms/b)
<pp|**>:         1050 b        0 skpd     0.013 s (  0.013 ms/b)
<pd|**>:         1260 b        0 skpd     0.031 s (  0.024 ms/b)
<pf|**>:          420 b        0 skpd     0.020 s (  0.047 ms/b)
<dd|**>:          630 b        0 skpd     0.026 s (  0.041 ms/b)
<df|**>:          315 b        0 skpd     0.030 s (  0.094 ms/b)
<ff|**>:          105 b        0 skpd     0.015 s (  0.145 ms/b)
Closing buffer AOJ[aa] ( 0.00 GB; CompressionRatio= 0.97)
Closing buffer AOJ[bb] ( 0.00 GB; CompressionRatio= 0.00)
Collecting buffer AOJ 
    ... done with AO integral generation
Number of Alpha-MO pairs included          ...   55
Number of Beta-MO pairs included           ...   28
    ... Now sorting integrals
SORTING ALPHA/ALPHA PAIRS
IBATCH = 1 of  1
Closing buffer JAO[aa] ( 0.00 GB; CompressionRatio= 1.00)
SORTING BETA/BETA PAIRS
IBATCH = 1 of  1
Closing buffer JAO[bb] ( 0.00 GB; CompressionRatio= 1.00)
Collecting buffer JAO 
TOTAL TIME for half transformation         ...     0.404 sec
AO-integral generation                     ...     0.110 sec
Half transformation                        ...     0.062 sec
J-integral sorting                         ...     0.099 sec

-------------------------- SECOND HALF TRANSFORMATION -------------------------
Formation of (ij|kl),(ij|ka), (ij|ab)      ... ok (     0.131 sec)
Formation of (ik|jl),(ik|ja), (ia|jb)      ... ok (     0.226 sec)


-----------------------
SPIN UNRESTRICTED GUESS
-----------------------

Entering MDCI_UHF_Guess, Tailored=0
Spin-components of the MP2 energy:
EMP2(aa)=     -0.086204580
EMP2(bb)=     -0.043099701
EMP2(ab)=     -0.247355730

Initial guess performed in     0.007 sec
E(0)                                       ...   -109.743193370
E(MP2)                                     ...     -0.376660011
Initial E(tot)                             ...   -110.119853381
<T|T>                                      ...      0.078686301
Number of pairs included                   ... 136

------------------------------------------------
                  UHF COUPLED CLUSTER ITERATIONS
------------------------------------------------

Number of amplitudes to be optimized       ...       101239

Iter       E(tot)           E(Corr)          Delta-E          Residual     Time      <S|S>**1/2
  0   -110.119853381     -0.376660011     -0.000000000      0.027075484    0.10      0.000001805
                           *** Turning on DIIS ***
  1   -110.105944197     -0.362750827      0.013909184      0.007871808    0.08      0.031232861
  2   -110.111602331     -0.368408961     -0.005658134      0.005078629    0.09      0.039316777
  3   -110.112864712     -0.369671342     -0.001262381      0.002747466    0.09      0.048080566
  4   -110.113407540     -0.370214169     -0.000542827      0.000964822    0.08      0.053532972
  5   -110.113521656     -0.370328286     -0.000114117      0.000238035    0.08      0.055696254
  6   -110.113534015     -0.370340645     -0.000012359      0.000047277    0.08      0.056145556
  7   -110.113536248     -0.370342878     -0.000002233      0.000006692    0.09      0.056237223
               --- The Coupled-Cluster iterations have converged ---

----------------------
COUPLED CLUSTER ENERGY
----------------------

E(0)                                       ...   -109.743193370
E(CORR)                                    ...     -0.370342878
E(TOT)                                     ...   -110.113536248
Singles norm <S|S>**1/2                    ...      0.056237223 ( 0.039344469, 0.016892754)  
T1 diagnostic                              ...      0.013639530                              

------------------
LARGEST AMPLITUDES
------------------
   9a-> 13a  -1a-> -1a       0.058037
   4b-> 17b  -1b-> -1b       0.022433
   5b-> 18b  -1b-> -1b       0.022433
   6b-> 19b  -1b-> -1b       0.022432
   7a-> 20a   5b-> 18b       0.021427
   8a-> 21a   6b-> 19b       0.021313
   6a-> 19a   4b-> 17b       0.021313
   9a-> 12a   5b-> 16b       0.020822
   9a-> 11a   6b-> 16b       0.020822
   9a-> 12a   6b-> 15b       0.020822
   9a-> 10a   4b-> 15b       0.020820
   9a-> 11a   4b-> 14b       0.020820
   9a-> 10a   5b-> 14b       0.020820
   9a-> 16a   5b-> 16b       0.019794
   9a-> 16a   6b-> 15b       0.019794
   9a-> 15a   6b-> 16b       0.019794

----------------------
UHF TRIPLES CORRECTION (Algorithm 1)
----------------------

Multiplier for the singles contribution    ...      1.000000000

SPIN-CASE Alpha-Alpha-Alpha:
10% done
20% done
30% done
40% done
50% done
60% done
70% done
80% done
90% done


SPIN-CASE Beta-Beta-Beta:
10% done
20% done
30% done
40% done
50% done
60% done
70% done
80% done
90% done


SPIN-CASE Alpha-Alpha-Beta:
10% done
20% done
30% done
40% done
50% done
60% done
70% done
80% done
90% done


SPIN-CASE Beta-Beta-Alpha:
10% done
20% done
30% done
40% done
50% done
60% done
70% done
80% done
90% done


Triples Correction (T)                     ...     -0.007421412
    alpha-alpha-alpha ... -0.000543906 (  7.3%)
    alpha-alpha-beta  ... -0.004365377 ( 58.8%)
    alpha-beta -beta  ... -0.002409032 ( 32.5%)
    beta -beta -beta  ... -0.000103096 (  1.4%)
Scaling of triples based on CCSD energies (Peterson et al. Molecular Physics 113, 1551 (2015))
E(T*) = f*E(T) where f = E(F12-CCSD)/E(CCSD) 
f = CCSD (with F12)/ CCSD (without F12)    ...      1.000000000
Scaled triples correction (T)              ...     -0.007421412

Final correlation energy                   ...     -0.377764290
E(CCSD)                                    ...   -110.113536248
E(CCSD(T))                                 ...   -110.120957660



        !!!!!!!!!!!!!!!!!!!!!!!!!!!!!!!!!!!!!!!!!!!!!!!!!!!!!!!!!!!!!!!!!!!!!!!!!! 
        !  Warning: Densities are linearized densities                           !
        !!!!!!!!!!!!!!!!!!!!!!!!!!!!!!!!!!!!!!!!!!!!!!!!!!!!!!!!!!!!!!!!!!!!!!!!!! 

NORM  =      1.088523474 sqrt=     1.043323284
W(HF) =      0.918675641
------------------------------------------------------------------------------
                           ORCA POPULATION ANALYSIS
------------------------------------------------------------------------------
Input electron density              ... 45_Rh.mdcip
Input spin density                  ... 45_Rh.mdcir
BaseName (.gbw .S,...)              ... 45_Rh

                    ********************************
                    * MULLIKEN POPULATION ANALYSIS *
                    ********************************

------------------------------------------
MULLIKEN ATOMIC CHARGES AND SPIN DENSITIES
------------------------------------------
   0 Rh:   -0.000000    3.000000
Sum of atomic charges       :   -0.0000000
Sum of atomic spin densities:    3.0000000

---------------------------------------------------
MULLIKEN REDUCED ORBITAL CHARGES AND SPIN DENSITIES
---------------------------------------------------
CHARGE
  0 Rhs       :     2.986793  s :     2.986793
      pz      :     2.001837  p :     6.005512
      px      :     2.001837
      py      :     2.001837
      dz2     :     1.001997  d :     7.957836
      dxz     :     1.984614
      dyz     :     1.984614
      dx2y2   :     1.001997
      dxy     :     1.984614
      f0      :     0.006518  f :     0.049859
      f+1     :     0.007003
      f-1     :     0.007003
      f+2     :     0.007294
      f-2     :     0.008424
      f+3     :     0.006809
      f-3     :     0.006809

SPIN
  0 Rhs       :     0.986078  s :     0.986078
      pz      :     0.005435  p :     0.016304
      px      :     0.005435
      py      :     0.005435
      dz2     :     0.987517  d :     1.986309
      dxz     :     0.003758
      dyz     :     0.003758
      dx2y2   :     0.987517
      dxy     :     0.003758
      f0      :     0.002488  f :     0.011308
      f+1     :     0.001811
      f-1     :     0.001811
      f+2     :     0.001404
      f-2     :    -0.000369
      f+3     :     0.002082
      f-3     :     0.002082


                     *******************************
                     * LOEWDIN POPULATION ANALYSIS *
                     *******************************

-----------------------------------------
LOEWDIN ATOMIC CHARGES AND SPIN DENSITIES
-----------------------------------------
   0 Rh:   -0.000000    3.000000

--------------------------------------------------
LOEWDIN REDUCED ORBITAL CHARGES AND SPIN DENSITIES
--------------------------------------------------
CHARGE
  0 Rhs       :     2.986793  s :     2.986793
      pz      :     2.001837  p :     6.005512
      px      :     2.001837
      py      :     2.001837
      dz2     :     1.001997  d :     7.957836
      dxz     :     1.984614
      dyz     :     1.984614
      dx2y2   :     1.001997
      dxy     :     1.984614
      f0      :     0.006518  f :     0.049859
      f+1     :     0.007003
      f-1     :     0.007003
      f+2     :     0.007294
      f-2     :     0.008424
      f+3     :     0.006809
      f-3     :     0.006809

SPIN
  0 Rhs       :     0.986078  s :     0.986078
      pz      :     0.005435  p :     0.016304
      px      :     0.005435
      py      :     0.005435
      dz2     :     0.987517  d :     1.986309
      dxz     :     0.003758
      dyz     :     0.003758
      dx2y2   :     0.987517
      dxy     :     0.003758
      f0      :     0.002488  f :     0.011308
      f+1     :     0.001811
      f-1     :     0.001811
      f+2     :     0.001404
      f-2     :    -0.000369
      f+3     :     0.002082
      f-3     :     0.002082


                      *****************************
                      * MAYER POPULATION ANALYSIS *
                      *****************************

  NA   - Mulliken gross atomic population
  ZA   - Total nuclear charge
  QA   - Mulliken gross atomic charge
  VA   - Mayer's total valence
  BVA  - Mayer's bonded valence
  FA   - Mayer's free valence

  ATOM       NA         ZA         QA         VA         BVA        FA
  0 Rh    17.0000    17.0000    -0.0000     3.5543     0.0000     3.5543





------------------------------------------------------------------------------- 
                                     TIMINGS                                   
------------------------------------------------------------------------------- 


Total execution time                   ...        4.337 sec

Fock Matrix Formation                  ...        0.281 sec (  6.5%)
Initial Guess                          ...        0.007 sec (  0.2%)
DIIS Solver                            ...        0.064 sec (  1.5%)
State Vector Update                    ...        0.005 sec (  0.1%)
Sigma-vector construction              ...        0.637 sec ( 14.7%)
  <D|H|D>(0-ext Fock)                  ...        0.001 sec (  0.2% of sigma)
  <D|H|D>(0-ext)                       ...        0.003 sec (  0.5% of sigma)
  <D|H|D>(2-ext)                       ...        0.013 sec (  2.1% of sigma)
  <D|H|D>(4-ext)                       ...        0.188 sec ( 29.5% of sigma)
  <S|H|0>                              ...        0.019 sec (  3.0% of sigma)
  <D|H|S>(1-ext)                       ...        0.009 sec (  1.4% of sigma)
  Fock-dressing                        ...        0.152 sec ( 23.9% of sigma)
  (ik|jl)-dressing                     ...        0.005 sec (  0.8% of sigma)
  (ij|ab),(ia|jb)-dressing             ...        0.189 sec ( 29.6% of sigma)
  Pair energies                        ...        0.001 sec (  0.2% of sigma)
Total Time for computing (T)           ...        0.062 sec (  1.4% of ALL)
  I/O of integral and amplitudes       ...        0.008 sec ( 13.3% of (T))
  External N**7 contributions          ...        0.007 sec ( 11.6% of (T))
  Internal N**7 contributions          ...        0.002 sec (  3.8% of (T))
  N**6 triples energy contributions    ...        0.014 sec ( 22.1% of (T))


-------------------------   --------------------
FINAL SINGLE POINT ENERGY      -110.120957660218
-------------------------   --------------------


                            ***************************************
                            *     ORCA property calculations      *
                            ***************************************

                                    ---------------------
                                    Active property flags
                                    ---------------------
   (+) Dipole Moment


------------------------------------------------------------------------------
                       ORCA ELECTRIC PROPERTIES CALCULATION
------------------------------------------------------------------------------

Dipole Moment Calculation                       ... on
Quadrupole Moment Calculation                   ... off
Polarizability Calculation                      ... off
GBWName                                         ... 45_Rh.gbw
Electron density file                           ... 45_Rh.scfp
The origin for moment calculation is the CENTER OF MASS  = ( 0.000000,  0.000000  0.000000)

-------------
DIPOLE MOMENT
-------------
                                X             Y             Z
Electronic contribution:     -0.00000       0.00000      -0.00000
Nuclear contribution   :      0.00000       0.00000       0.00000
                        -----------------------------------------
Total Dipole Moment    :     -0.00000       0.00000      -0.00000
                        -----------------------------------------
Magnitude (a.u.)       :      0.00000
Magnitude (Debye)      :      0.00000



--------------------
Rotational spectrum 
--------------------
 
Rotational constants in cm-1:     0.000000     0.000000     0.000000 
Rotational constants in MHz :     0.000000     0.000000     0.000000 

 Dipole components along the rotational axes: 
x,y,z [a.u.] :    -0.000000     0.000000    -0.000000 
x,y,z [Debye]:    -0.000000     0.000000    -0.000000 

 

                           *** MDCI DENSITY ***

------------------------------------------------------------------------------
                       ORCA ELECTRIC PROPERTIES CALCULATION
------------------------------------------------------------------------------

Dipole Moment Calculation                       ... on
Quadrupole Moment Calculation                   ... off
Polarizability Calculation                      ... off
GBWName                                         ... 45_Rh.gbw
Electron density file                           ... 45_Rh.mdcip
The origin for moment calculation is the CENTER OF MASS  = ( 0.000000,  0.000000  0.000000)

-------------
DIPOLE MOMENT
-------------
                                X             Y             Z
Electronic contribution:      0.00000       0.00000       0.00000
Nuclear contribution   :      0.00000       0.00000       0.00000
                        -----------------------------------------
Total Dipole Moment    :      0.00000       0.00000       0.00000
                        -----------------------------------------
Magnitude (a.u.)       :      0.00000
Magnitude (Debye)      :      0.00000



--------------------
Rotational spectrum 
--------------------
 
Rotational constants in cm-1:     0.000000     0.000000     0.000000 
Rotational constants in MHz :     0.000000     0.000000     0.000000 

 Dipole components along the rotational axes: 
x,y,z [a.u.] :     0.000000     0.000000     0.000000 
x,y,z [Debye]:     0.000000     0.000000     0.000000 

 

Timings for individual modules:

Sum of individual times         ...       20.942 sec (=   0.349 min)
GTO integral calculation        ...        0.977 sec (=   0.016 min)   4.7 %
SCF iterations                  ...       15.171 sec (=   0.253 min)  72.4 %
MDCI module                     ...        4.795 sec (=   0.080 min)  22.9 %
                             ****ORCA TERMINATED NORMALLY****
TOTAL RUN TIME: 0 days 0 hours 0 minutes 21 seconds 696 msec
