
                                 *****************
                                 * O   R   C   A *
                                 *****************

           --- An Ab Initio, DFT and Semiempirical electronic structure package ---

                  #######################################################
                  #                        -***-                        #
                  #          Department of theory and spectroscopy      #
                  #               Directorship: Frank Neese             #
                  #        Max Planck Institute fuer Kohlenforschung    #
                  #                Kaiser Wilhelm Platz 1               #
                  #                 D-45470 Muelheim/Ruhr               #
                  #                      Germany                        #
                  #                                                     #
                  #                  All rights reserved                #
                  #                        -***-                        #
                  #######################################################


                         Program Version 4.2.0 -  RELEASE  -


 With contributions from (in alphabetic order):
   Daniel Aravena         : Magnetic Suceptibility
   Michael Atanasov       : Ab Initio Ligand Field Theory (pilot matlab implementation)
   Alexander A. Auer      : GIAO ZORA, VPT2
   Ute Becker             : Parallelization
   Giovanni Bistoni       : ED, misc. LED, open-shell LED, HFLED
   Martin Brehm           : Molecular dynamics
   Dmytro Bykov           : SCF Hessian
   Vijay G. Chilkuri      : MRCI spin determinant printing, contributions to CSF-ICE
   Dipayan Datta          : RHF DLPNO-CCSD density
   Achintya Kumar Dutta   : EOM-CC, STEOM-CC
   Dmitry Ganyushin       : Spin-Orbit,Spin-Spin,Magnetic field MRCI
   Miquel Garcia          : C-PCM Hessian, Gaussian charge scheme
   Yang Guo               : DLPNO-NEVPT2, CIM, IAO-localization
   Andreas Hansen         : Spin unrestricted coupled pair/coupled cluster methods
   Benjamin Helmich-Paris : CASSCF linear response (MC-RPA)
   Lee Huntington         : MR-EOM, pCC
   Robert Izsak           : Overlap fitted RIJCOSX, COSX-SCS-MP3, EOM
   Christian Kollmar      : KDIIS, OOCD, Brueckner-CCSD(T), CCSD density
   Simone Kossmann        : Meta GGA functionals, TD-DFT gradient, OOMP2, MP2 Hessian
   Martin Krupicka        : AUTO-CI
   Lucas Lang             : DCDCAS
   Dagmar Lenk            : GEPOL surface, SMD
   Dimitrios Liakos       : Extrapolation schemes; Compound Job, initial MDCI parallelization
   Dimitrios Manganas     : Further ROCIS development; embedding schemes
   Dimitrios Pantazis     : SARC Basis sets
   Taras Petrenko         : DFT Hessian,TD-DFT gradient, ASA, ECA, R-Raman, ABS, FL, XAS/XES, NRVS
   Peter Pinski           : DLPNO-MP2, DLPNO-MP2 Gradient
   Christoph Reimann      : Effective Core Potentials
   Marius Retegan         : Local ZFS, SOC
   Christoph Riplinger    : Optimizer, TS searches, QM/MM, DLPNO-CCSD(T), (RO)-DLPNO pert. Triples
   Tobias Risthaus        : Range-separated hybrids, TD-DFT gradient, RPA, STAB
   Michael Roemelt        : Original ROCIS implementation
   Masaaki Saitow         : Open-shell DLPNO-CCSD energy and density
   Barbara Sandhoefer     : DKH picture change effects
   Avijit Sen             : IP-ROCIS
   Kantharuban Sivalingam : CASSCF convergence, NEVPT2, FIC-MRCI
   Bernardo de Souza      : ESD, SOC TD-DFT
   Georgi Stoychev        : AutoAux, RI-MP2 NMR
   Willem Van den Heuvel  : Paramagnetic NMR
   Boris Wezisla          : Elementary symmetry handling
   Frank Wennmohs         : Technical directorship


 We gratefully acknowledge several colleagues who have allowed us to
 interface, adapt or use parts of their codes:
   Stefan Grimme, W. Hujo, H. Kruse,             : VdW corrections, initial TS optimization,
                  C. Bannwarth                     DFT functionals, gCP, sTDA/sTD-DF
   Ed Valeev, F. Pavosevic, A. Kumar             : LibInt (2-el integral package), F12 methods
   Garnet Chan, S. Sharma, J. Yang, R. Olivares  : DMRG
   Ulf Ekstrom                                   : XCFun DFT Library
   Mihaly Kallay                                 : mrcc  (arbitrary order and MRCC methods)
   Andreas Klamt, Michael Diedenhofen            : otool_cosmo (COSMO solvation model)
   Jiri Pittner, Ondrej Demel                    : Mk-CCSD
   Frank Weinhold                                : gennbo (NPA and NBO analysis)
   Christopher J. Cramer and Donald G. Truhlar   : smd solvation model
   Lars Goerigk                                  : TD-DFT with DH, B97 family of functionals
   V. Asgeirsson, H. Jonsson                     : NEB implementation
   FAccTs GmbH                                   : IRC, NEB, NEB-TS, Multilevel, MM, QM/MM, CI optimization
   S Lehtola, MJT Oliveira, MAL Marques          : LibXC Library


 Your calculation uses the libint2 library for the computation of 2-el integrals
 For citations please refer to: http://libint.valeyev.net

 Your ORCA version has been built with support for libXC version: 4.2.3
 For citations please refer to: https://tddft.org/programs/libxc/

 This ORCA versions uses:
   CBLAS   interface :  Fast vector & matrix operations
   LAPACKE interface :  Fast linear algebra routines
   SCALAPACK package :  Parallel linear algebra routines


----- Orbital basis set information -----
Your calculation utilizes the basis: def2-TZVP
   F. Weigend and R. Ahlrichs, Phys. Chem. Chem. Phys. 7, 3297 (2005).

cite the ECPs for In [Def2-ECP] as follows:
Ce-Yb(ecp-28): M. Dolg, H. Stoll, H.Preuss, J. Chem. Phys., 1989, 90, 1730-1734.
Y-Cd(ecp-28), Hf-Hg(ecp-46): D. Andrae,U. Haeussermann, M. Dolg, H. Stoll, H. Preuss, Theor. Chim. Acta, 1990, 77, 123-141.
In-Sb(ecp-28), Tl-Bi(ecp-46): B. Metz, H. Stoll, M. Dolg, J. Chem. Phys., 2000, 113, 2563-2569.
Te-Xe(ecp-28), Po-Rn(ecp-46): K. A. Peterson, D. Figgen, E. Goll, H. Stoll, M. Dolg, J. Chem. Phys., 2003, 119, 11113-11123.
Rb(ecp-28), Cs(ecp-46): T. Leininger, A. Nicklass, W. Kuechle, H. Stoll, M. Dolg, A. Bergner, Chem. Phys. Lett., 1996, 255, 274-280.
Sr(ecp-28), Ba(ecp-46): M. Kaupp, P. V. Schleyer, H. Stoll and H. Preuss, J. Chem. Phys., 1991, 94, 1360-1366.
La(ecp-46): M. Dolg, H. Stoll, A. Savin, H. Preuss, Theor. Chim. Acta, 1989, 75, 173-194.
Lu(ecp-28): X. Cao, M. Dolg, J. Chem. Phys., 2001, 115, 7348-7355.

ECP parameters for In [Def2-ECP] have been obtained from:
TURBOMOLE (7.0.2)

================================================================================
                                        WARNINGS
                       Please study these warnings very carefully!
================================================================================


WARNING: your system is open-shell and RHF/RKS was chosen
  ===> : WILL SWITCH to UHF/UKS


WARNING: MDCI localization with Augmented Hessian Foster-Boys
  ===> : Switching off randomization!

WARNING: Post HF methods need fully converged wavefunctions
  ===> : Setting SCFConvForced true
         You can overwrite this default with %scf ConvForced false 


INFO   : the flag for use of LIBINT has been found!

================================================================================
                                       INPUT FILE
================================================================================
NAME = 49_In.in
|  1> #
|  2> # 49_In CCSD(T)/Def2-TZVP
|  3> #
|  4> ! CCSD(T) Def2-TZVP tightscf
|  5> 
|  6> *xyz 0 2
|  7>  In 0.0 0.0 0.0
|  8> *
|  9> 
| 10> %maxcore 5000 
| 11> 
| 12> %pal
| 13> nprocs 24
| 14> end
| 15> 
| 16> 
| 17>                          ****END OF INPUT****
================================================================================

                       ****************************
                       * Single Point Calculation *
                       ****************************

---------------------------------
CARTESIAN COORDINATES (ANGSTROEM)
---------------------------------
  In     0.000000    0.000000    0.000000

----------------------------
CARTESIAN COORDINATES (A.U.)
----------------------------
  NO LB      ZA    FRAG     MASS         X           Y           Z
   0 In   21.0000*   0   114.820    0.000000    0.000000    0.000000
* core charge reduced due to ECP

--------------------------------
INTERNAL COORDINATES (ANGSTROEM)
--------------------------------
 In     0   0   0     0.000000000000     0.00000000     0.00000000

---------------------------
INTERNAL COORDINATES (A.U.)
---------------------------
 In     0   0   0     0.000000000000     0.00000000     0.00000000

---------------------
BASIS SET INFORMATION
---------------------
There are 1 groups of distinct atoms

 Group   1 Type In  : 10s9p8d2f contracted to 6s5p3d2f pattern {421111/33111/611/11}

Atom   0In   basis set group =>   1
-------------------------
ECP PARAMETER INFORMATION
-------------------------

 Group 1, Type In ECP Def2-ECP (replacing 28 core electrons, lmax=3)

Atom   0In   ECP group =>   1



           ************************************************************
           *        Program running with 24 parallel MPI-processes    *
           *              working on a common directory               *
           ************************************************************
------------------------------------------------------------------------------
                           ORCA GTO INTEGRAL CALCULATION
------------------------------------------------------------------------------

                         BASIS SET STATISTICS AND STARTUP INFO

 # of primitive gaussian shells          ...   29
 # of primitive gaussian functions       ...   91
 # of contracted shells                  ...   16
 # of contracted basis functions         ...   50
 Highest angular momentum                ...    3
 Maximum contraction depth               ...    6
 Integral package used                   ... LIBINT
 Integral threshhold            Thresh   ...  2.500e-11
 Primitive cut-off              TCut     ...  2.500e-12


------------------------------ INTEGRAL EVALUATION ----------------------------


 * One electron integrals 

   ECP integrals                         ... done
 Pre-screening matrix                    ... done
 Shell pair data                         ... done (   0.000 sec)



           ************************************************************
           *        Program running with 24 parallel MPI-processes    *
           *              working on a common directory               *
           ************************************************************
-------------------------------------------------------------------------------
                                 ORCA SCF
-------------------------------------------------------------------------------

------------
SCF SETTINGS
------------
Hamiltonian:
 Ab initio Hamiltonian  Method          .... Hartree-Fock(GTOs)


General Settings:
 Integral files         IntName         .... 49_In
 Hartree-Fock type      HFTyp           .... UHF
 Total Charge           Charge          ....    0
 Multiplicity           Mult            ....    2
 Number of Electrons    NEL             ....   21
 Basis Dimension        Dim             ....   50
 Nuclear Repulsion      ENuc            ....      0.0000000000 Eh

Convergence Acceleration:
 DIIS                   CNVDIIS         .... on
   Start iteration      DIISMaxIt       ....    12
   Startup error        DIISStart       ....  0.200000
   # of expansion vecs  DIISMaxEq       ....     5
   Bias factor          DIISBfac        ....   1.050
   Max. coefficient     DIISMaxC        ....  10.000
 Newton-Raphson         CNVNR           .... off
 SOSCF                  CNVSOSCF        .... off
 Level Shifting         CNVShift        .... on
   Level shift para.    LevelShift      ....    0.2500
   Turn off err/grad.   ShiftErr        ....    0.0010
 Zerner damping         CNVZerner       .... off
 Static damping         CNVDamp         .... on
   Fraction old density DampFac         ....    0.7000
   Max. Damping (<1)    DampMax         ....    0.9800
   Min. Damping (>=0)   DampMin         ....    0.0000
   Turn off err/grad.   DampErr         ....    0.1000
 Fernandez-Rico         CNVRico         .... off

SCF Procedure:
 Maximum # iterations   MaxIter         ....   125
 SCF integral mode      SCFMode         .... Direct
   Integral package                     .... LIBINT
 Reset frequency        DirectResetFreq ....    20
 Integral Threshold     Thresh          ....  2.500e-11 Eh
 Primitive CutOff       TCut            ....  2.500e-12 Eh

Convergence Tolerance:
 Convergence Check Mode ConvCheckMode   .... Total+1el-Energy
 Convergence forced     ConvForced      .... 1
 Energy Change          TolE            ....  1.000e-08 Eh
 1-El. energy change                    ....  1.000e-05 Eh
 DIIS Error             TolErr          ....  5.000e-07


Diagonalization of the overlap matrix:
Smallest eigenvalue                        ... 2.941e-03
Time for diagonalization                   ...    0.002 sec
Threshold for overlap eigenvalues          ... 1.000e-08
Number of eigenvalues below threshold      ... 0
Time for construction of square roots      ...    0.011 sec
Total time needed                          ...    0.014 sec

-------------------
DFT GRID GENERATION
-------------------

General Integration Accuracy     IntAcc      ...  4.340
Radial Grid Type                 RadialGrid  ... Gauss-Chebyshev
Angular Grid (max. acc.)         AngularGrid ... Lebedev-110
Angular grid pruning method      GridPruning ... 3 (G Style)
Weight generation scheme         WeightScheme... Becke
Basis function cutoff            BFCut       ...    1.0000e-11
Integration weight cutoff        WCut        ...    1.0000e-14
Grids for H and He will be reduced by one unit

# of grid points (after initial pruning)     ...   3304 (   0.0 sec)
# of grid points (after weights+screening)   ...   3304 (   0.0 sec)
Grid point division into batches done        ...    0.0 sec
Reduced shell lists constructed in    0.0 sec

Total number of grid points                  ...     3304
Total number of batches                      ...       52
Average number of points per batch           ...       63
Average number of grid points per atom       ...     3304
Average number of shells per batch           ...     6.00 (37.50%)
Average number of basis functions per batch  ...    21.00 (42.00%)
Average number of large shells per batch     ...     3.75 (62.50%)
Average number of large basis fcns per batch ...     9.75 (46.43%)
Maximum spatial batch extension              ...  21.54, 32.49, 32.49 au
Average spatial batch extension              ...   1.17,  1.66,  1.87 au

Time for grid setup =    0.067 sec

------------------------------
INITIAL GUESS: MODEL POTENTIAL
------------------------------
Loading Hartree-Fock densities                     ... done
  calling /sw/apps/orca/orca_4_2_0_linux_x86-64_openmpi314/orca 49_In_atom49.inp > 49_In_atom49.out in order to generate an atomic fitting density for atom 0 (In with ECP) on-the-fly... 
    atom 0 (In), assumed electronic state with S=2: 1s2 2s2 2p6 3s2 3p6 4s2 3d10 4p6 5s2 4d10 5p1           ... done
Calculating cut-offs                               ... done
Setting up the integral package                    ... done
Initializing the effective Hamiltonian             ... done
Starting the Coulomb interaction                   ... done (   0.0 sec)
Reading the grid                                   ... done
Mapping shells                                     ... done
Starting the XC term evaluation                    ... done (   0.0 sec)
Transforming the Hamiltonian                       ... done (   0.0 sec)
Diagonalizing the Hamiltonian                      ... done (   0.0 sec)
Back transforming the eigenvectors                 ... done (   0.0 sec)
Now organizing SCF variables                       ... done
                      ------------------
                      INITIAL GUESS DONE (   1.3 sec)
                      ------------------
--------------
SCF ITERATIONS
--------------
ITER       Energy         Delta-E        Max-DP      RMS-DP      [F,P]     Damp
               ***  Starting incremental Fock matrix formation  ***
  0   -184.2246452727   0.000000000000 1.74462667  0.07943345  1.4148694 0.7000
  1   -185.9336194070  -1.708974134258 1.20391913  0.05447314  0.8589560 0.7000
  2   -186.9352216377  -1.001602230732 0.81589932  0.03643752  0.5208274 0.7000
  3   -187.6068462474  -0.671624609718 0.55882020  0.02474506  0.3268012 0.7000
  4   -188.0779527206  -0.471106473175 0.38782394  0.01706611  0.2110085 0.7000
                               ***Turning on DIIS***
  5   -188.4111824233  -0.333229702705 0.27142708  0.01190110  0.1472994 0.7000
  6   -189.0038715572  -0.592689133930 0.19243135  0.00841118  0.1060335 0.7000
  7   -189.1247328776  -0.120861320370 0.46036821  0.02018603  0.0752478 0.0000
  8   -189.2218998728  -0.097166995176 0.02300221  0.00088280  0.0052948 0.0000
  9   -189.2206305641   0.001269308620 0.01630319  0.00047746  0.0028436 0.0000
 10   -189.2145605225   0.006070041676 0.00745842  0.00023051  0.0015137 0.0000
 11   -189.2152891513  -0.000728628795 0.00743034  0.00024399  0.0008682 0.0000
 12   -189.2119038743   0.003385276927 0.00233076  0.00006672  0.0002108 0.0000
 13   -189.2102953320   0.001608542356 0.00049942  0.00001345  0.0000362 0.0000
 14   -189.2100263190   0.000269012954 0.00013226  0.00000413  0.0000045 0.0000
 15   -189.2100217418   0.000004577215 0.00006855  0.00000225  0.0000018 0.0000
                            ***DIIS convergence achieved***

               *****************************************************
               *                     SUCCESS                       *
               *           SCF CONVERGED AFTER  16 CYCLES          *
               *****************************************************


----------------
TOTAL SCF ENERGY
----------------

Total Energy       :         -189.21003074 Eh           -5148.66669 eV

Components:
Nuclear Repulsion  :            0.00000000 Eh               0.00000 eV
Electronic Energy  :         -189.21003074 Eh           -5148.66669 eV
One Electron Energy:         -334.82946974 Eh           -9111.17307 eV
Two Electron Energy:          145.61943901 Eh            3962.50639 eV

Virial components:
Potential Energy   :         -262.61135937 Eh           -7146.01838 eV
Kinetic Energy     :           73.40132863 Eh            1997.35170 eV
Virial Ratio       :            3.57774667


---------------
SCF CONVERGENCE
---------------

  Last Energy change         ...   -8.9938e-06  Tolerance :   1.0000e-08
  Last MAX-Density change    ...    1.4966e-05  Tolerance :   1.0000e-07
  Last RMS-Density change    ...    4.1533e-07  Tolerance :   5.0000e-09
  Last DIIS Error            ...    3.7101e-07  Tolerance :   5.0000e-07

             **** THE GBW FILE WAS UPDATED (49_In.gbw) ****
             **** DENSITY FILE WAS UPDATED (49_In.scfp) ****
             **** ENERGY FILE WAS UPDATED (49_In.en.tmp) ****
----------------------
UHF SPIN CONTAMINATION
----------------------

Expectation value of <S**2>     :     0.762933
Ideal value S*(S+1) for S=0.5   :     0.750000
Deviation                       :     0.012933

             **** THE GBW FILE WAS UPDATED (49_In.gbw) ****
             **** DENSITY FILE WAS UPDATED (49_In.scfp) ****
----------------
ORBITAL ENERGIES
----------------
                 SPIN UP ORBITALS
  NO   OCC          E(Eh)            E(eV) 
   0   1.0000      -5.373403      -146.2177 
   1   1.0000      -3.627452       -98.7080 
   2   1.0000      -3.627452       -98.7080 
   3   1.0000      -3.623507       -98.6006 
   4   1.0000      -1.015058       -27.6211 
   5   1.0000      -1.015058       -27.6211 
   6   1.0000      -1.007960       -27.4280 
   7   1.0000      -1.007960       -27.4280 
   8   1.0000      -1.005756       -27.3680 
   9   1.0000      -0.424273       -11.5450 
  10   1.0000      -0.201069        -5.4714 
  11   0.0000       0.012360         0.3363 
  12   0.0000       0.012360         0.3363 
  13   0.0000       0.132223         3.5980 
  14   0.0000       0.149987         4.0813 
  15   0.0000       0.149987         4.0813 
  16   0.0000       0.252146         6.8612 
  17   0.0000       0.255405         6.9499 
  18   0.0000       0.255405         6.9499 
  19   0.0000       0.256490         6.9794 
  20   0.0000       0.267401         7.2763 
  21   0.0000       0.267401         7.2763 
  22   0.0000       0.689621        18.7655 
  23   0.0000       0.692403        18.8413 
  24   0.0000       0.692403        18.8413 
  25   0.0000       0.877067        23.8662 
  26   0.0000       0.877067        23.8662 
  27   0.0000       0.881685        23.9919 
  28   0.0000       0.881685        23.9919 
  29   0.0000       0.884272        24.0623 
  30   0.0000       0.884272        24.0623 
  31   0.0000       0.885104        24.0849 
  32   0.0000       1.195001        32.5176 
  33   0.0000       1.195001        32.5176 
  34   0.0000       1.197304        32.5803 
  35   0.0000       1.197304        32.5803 
  36   0.0000       1.198001        32.5993 
  37   0.0000       2.469068        67.1868 
  38   0.0000       2.469068        67.1868 
  39   0.0000       2.479374        67.4672 
  40   0.0000       2.479374        67.4672 
  41   0.0000       2.485600        67.6366 
  42   0.0000       2.485600        67.6366 
  43   0.0000       2.487682        67.6933 
  44   0.0000       2.920143        79.4611 
  45   0.0000      38.110851      1037.0490 
  46   0.0000      39.358916      1071.0105 
  47   0.0000      39.358916      1071.0105 
  48   0.0000      39.360886      1071.0641 
  49   0.0000     125.544922      3416.2510 

                 SPIN DOWN ORBITALS
  NO   OCC          E(Eh)            E(eV) 
   0   1.0000      -5.372733      -146.1995 
   1   1.0000      -3.629234       -98.7565 
   2   1.0000      -3.629234       -98.7565 
   3   1.0000      -3.617739       -98.4437 
   4   1.0000      -1.015786       -27.6409 
   5   1.0000      -1.015786       -27.6409 
   6   1.0000      -1.005230       -27.3537 
   7   1.0000      -1.005230       -27.3537 
   8   1.0000      -1.001920       -27.2636 
   9   1.0000      -0.368757       -10.0344 
  10   0.0000       0.020966         0.5705 
  11   0.0000       0.020966         0.5705 
  12   0.0000       0.048811         1.3282 
  13   0.0000       0.153960         4.1895 
  14   0.0000       0.153960         4.1895 
  15   0.0000       0.179854         4.8941 
  16   0.0000       0.266949         7.2640 
  17   0.0000       0.270728         7.3669 
  18   0.0000       0.270728         7.3669 
  19   0.0000       0.293658         7.9909 
  20   0.0000       0.293658         7.9909 
  21   0.0000       0.306762         8.3474 
  22   0.0000       0.695659        18.9298 
  23   0.0000       0.695659        18.9298 
  24   0.0000       0.724503        19.7147 
  25   0.0000       0.878072        23.8935 
  26   0.0000       0.878072        23.8935 
  27   0.0000       0.899730        24.4829 
  28   0.0000       0.899730        24.4829 
  29   0.0000       0.913501        24.8576 
  30   0.0000       0.913501        24.8576 
  31   0.0000       0.918301        24.9882 
  32   0.0000       1.195999        32.5448 
  33   0.0000       1.195999        32.5448 
  34   0.0000       1.218144        33.1474 
  35   0.0000       1.218144        33.1474 
  36   0.0000       1.226103        33.3640 
  37   0.0000       2.469292        67.1928 
  38   0.0000       2.469292        67.1928 
  39   0.0000       2.482008        67.5389 
  40   0.0000       2.482008        67.5389 
  41   0.0000       2.489747        67.7495 
  42   0.0000       2.489747        67.7495 
  43   0.0000       2.492346        67.8202 
  44   0.0000       2.924615        79.5828 
  45   0.0000      38.111335      1037.0622 
  46   0.0000      39.358504      1070.9993 
  47   0.0000      39.358504      1070.9993 
  48   0.0000      39.363604      1071.1381 
  49   0.0000     125.544969      3416.2523 

                    ********************************
                    * MULLIKEN POPULATION ANALYSIS *
                    ********************************

--------------------------------------------
MULLIKEN ATOMIC CHARGES AND SPIN POPULATIONS
--------------------------------------------
   0 In:   -0.000000    1.000000
Sum of atomic charges         :   -0.0000000
Sum of atomic spin populations:    1.0000000

-----------------------------------------------------
MULLIKEN REDUCED ORBITAL CHARGES AND SPIN POPULATIONS
-----------------------------------------------------
CHARGE
  0 Ins       :     3.993909  s :     3.993909
      pz      :     1.999999  p :     6.999973
      px      :     2.999974
      py      :     2.000001
      dz2     :     2.001523  d :    10.006091
      dxz     :     2.000000
      dyz     :     2.000000
      dx2y2   :     2.004568
      dxy     :     2.000000
      f0      :     0.000001  f :     0.000027
      f+1     :     0.000008
      f-1     :     0.000000
      f+2     :     0.000002
      f-2     :     0.000000
      f+3     :     0.000014
      f-3     :     0.000002

SPIN
  0 Ins       :    -0.001634  s :    -0.001634
      pz      :     0.000002  p :     0.999984
      px      :     0.999979
      py      :     0.000004
      dz2     :     0.000408  d :     0.001634
      dxz     :     0.000000
      dyz     :     0.000000
      dx2y2   :     0.001225
      dxy     :     0.000000
      f0      :    -0.000000  f :     0.000016
      f+1     :     0.000006
      f-1     :    -0.000000
      f+2     :    -0.000000
      f-2     :    -0.000000
      f+3     :     0.000011
      f-3     :    -0.000001


                     *******************************
                     * LOEWDIN POPULATION ANALYSIS *
                     *******************************

-------------------------------------------
LOEWDIN ATOMIC CHARGES AND SPIN POPULATIONS
-------------------------------------------
   0 In:   -0.000000    1.000000

----------------------------------------------------
LOEWDIN REDUCED ORBITAL CHARGES AND SPIN POPULATIONS
----------------------------------------------------
CHARGE
  0 Ins       :     3.993909  s :     3.993909
      pz      :     1.999999  p :     6.999973
      px      :     2.999974
      py      :     2.000001
      dz2     :     2.001523  d :    10.006091
      dxz     :     2.000000
      dyz     :     2.000000
      dx2y2   :     2.004568
      dxy     :     2.000000
      f0      :     0.000001  f :     0.000027
      f+1     :     0.000008
      f-1     :     0.000000
      f+2     :     0.000002
      f-2     :     0.000000
      f+3     :     0.000014
      f-3     :     0.000002

SPIN
  0 Ins       :    -0.001634  s :    -0.001634
      pz      :     0.000002  p :     0.999984
      px      :     0.999979
      py      :     0.000004
      dz2     :     0.000408  d :     0.001634
      dxz     :     0.000000
      dyz     :     0.000000
      dx2y2   :     0.001225
      dxy     :     0.000000
      f0      :    -0.000000  f :     0.000016
      f+1     :     0.000006
      f-1     :    -0.000000
      f+2     :    -0.000000
      f-2     :    -0.000000
      f+3     :     0.000011
      f-3     :    -0.000001


                      *****************************
                      * MAYER POPULATION ANALYSIS *
                      *****************************

  NA   - Mulliken gross atomic population
  ZA   - Total nuclear charge
  QA   - Mulliken gross atomic charge
  VA   - Mayer's total valence
  BVA  - Mayer's bonded valence
  FA   - Mayer's free valence

  ATOM       NA         ZA         QA         VA         BVA        FA
  0 In    21.0000    21.0000    -0.0000     1.0259     0.0000     1.0259

  Mayer bond orders larger than 0.100000


-------
TIMINGS
-------

Total SCF time: 0 days 0 hours 0 min 5 sec 

Total time                  ....       5.189 sec
Sum of individual times     ....       4.612 sec  ( 88.9%)

Fock matrix formation       ....       2.880 sec  ( 55.5%)
Diagonalization             ....       0.089 sec  (  1.7%)
Density matrix formation    ....       0.008 sec  (  0.1%)
Population analysis         ....       0.093 sec  (  1.8%)
Initial guess               ....       1.216 sec  ( 23.4%)
Orbital Transformation      ....       0.000 sec  (  0.0%)
Orbital Orthonormalization  ....       0.000 sec  (  0.0%)
DIIS solution               ....       0.260 sec  (  5.0%)


           ************************************************************
           *        Program running with 24 parallel MPI-processes    *
           *              working on a common directory               *
           ************************************************************


------------------------------------------------------------------------------- 
                              ORCA-MATRIX DRIVEN CI                            
------------------------------------------------------------------------------- 

--------------------------------
AUTOMATIC CHOICE OF INCORE LEVEL
--------------------------------

Memory available                           ...   2500.00 MB
Memory needed for S+T                      ...      0.97 MB
Memory needed for J+K                      ...      1.97 MB
Memory needed for DIIS                     ...     13.65 MB
Memory needed for 3-ext                    ...      3.17 MB
Memory needed for 4-ext                    ...      9.05 MB
Memory needed for triples                  ...      2.26 MB
 -> Final InCoreLevel    ... 5
 -> check shows that triples correction can be computed


Wavefunction type
-----------------
Correlation treatment                      ...      CCSD     
Single excitations                         ... ON
Orbital optimization                       ... OFF
Calculation of Z vector                    ... OFF
Calculation of Brueckner orbitals          ... OFF
Perturbative triple excitations            ... ON
Calculation of F12 correction              ... OFF
Frozen core treatment                      ... chemical core (8 el)
Reference Wavefunction                     ... UHF
  Alpha-MOs occ    :     4 ...   10 (  7 MO's/  7 electrons)
  Beta-MOs occ     :     4 ...    9 (  6 MO's/  6 electrons)
  Alpha-MOs virt   :    11 ...   49 ( 39 MO's              )
  Beta-MOs virt    :    10 ...   49 ( 40 MO's              )
Number of AO's                             ...     50
Number of electrons                        ...     21
Number of correlated electrons             ...     13

Algorithmic settings
--------------------
Integral transformation                    ... AO direct full transformation
K(C) Formation                             ... FULL-MO TRAFO
Maximum number of iterations               ...        50
Convergence tolerance (max. residuum)      ... 1.000e-05
Level shift for amplitude update           ... 2.000e-01
Maximum number of DIIS vectors             ...         7
DIIS turned on at iteration                ...         0
Damping before turning on DIIS             ...     0.500
Damping after turning on DIIS              ...     0.000
Pair specific amplitude update             ... OFF
Natural orbital iterations                 ... OFF
Perturbative natural orbital generation    ... OFF
Printlevel                                 ... 2

Memory handling:
----------------
Maximum memory for working arrays          ...   2500 MB
Data storage in matrix containers          ... UNCOMPRESSED
Data type for integral storage             ... DOUBLE
In-Core Storage of quantities:
   Amplitudes+Sigma Vector      ... YES
   J+K operators                ... YES
   DIIS vectors                 ... YES
   3-external integrals         ... YES
   4-external integrals         ... YES


Initializing the integral package          ... done
Warning: reference  - re-canonicalizations have been set to INT 1 VIRT 1

--------------------------
UNRESTRICTED FOCK OPERATOR
--------------------------

<ss|ss>:          231 b            0 skpd (  0.0%)    0.000 s ( 0.000 ms/b)
<ss|sp>:          630 b            0 skpd (  0.0%)    0.000 s ( 0.000 ms/b)
<ss|sd>:          378 b            0 skpd (  0.0%)    0.000 s ( 0.000 ms/b)
<ss|sf>:          252 b            0 skpd (  0.0%)    0.000 s ( 0.000 ms/b)
<ss|pp>:          315 b            0 skpd (  0.0%)    0.000 s ( 0.000 ms/b)
<ss|pd>:          315 b            0 skpd (  0.0%)    0.000 s ( 0.000 ms/b)
<ss|pf>:          210 b            0 skpd (  0.0%)    0.000 s ( 0.000 ms/b)
<ss|dd>:          126 b            0 skpd (  0.0%)    0.000 s ( 0.003 ms/b)
<ss|df>:          126 b            0 skpd (  0.0%)    0.000 s ( 0.001 ms/b)
<ss|ff>:           63 b            0 skpd (  0.0%)    0.000 s ( 0.002 ms/b)
<sp|sp>:          465 b            0 skpd (  0.0%)    0.000 s ( 0.000 ms/b)
<sp|sd>:          540 b            0 skpd (  0.0%)    0.000 s ( 0.000 ms/b)
<sp|sf>:          360 b            0 skpd (  0.0%)    0.000 s ( 0.000 ms/b)
<sp|pp>:          450 b            0 skpd (  0.0%)    0.000 s ( 0.001 ms/b)
<sp|pd>:          450 b            0 skpd (  0.0%)    0.000 s ( 0.001 ms/b)
<sp|pf>:          300 b            0 skpd (  0.0%)    0.000 s ( 0.001 ms/b)
<sp|dd>:          180 b            0 skpd (  0.0%)    0.001 s ( 0.007 ms/b)
<sp|df>:          180 b            0 skpd (  0.0%)    0.000 s ( 0.003 ms/b)
<sp|ff>:           90 b            0 skpd (  0.0%)    0.001 s ( 0.006 ms/b)
<sd|sd>:          171 b            0 skpd (  0.0%)    0.000 s ( 0.001 ms/b)
<sd|sf>:          216 b            0 skpd (  0.0%)    0.000 s ( 0.001 ms/b)
<sd|pp>:          270 b            0 skpd (  0.0%)    0.000 s ( 0.002 ms/b)
<sd|pd>:          270 b            0 skpd (  0.0%)    0.001 s ( 0.003 ms/b)
<sd|pf>:          180 b            0 skpd (  0.0%)    0.001 s ( 0.003 ms/b)
<sd|dd>:          108 b            0 skpd (  0.0%)    0.003 s ( 0.025 ms/b)
<sd|df>:          108 b            0 skpd (  0.0%)    0.001 s ( 0.009 ms/b)
<sd|ff>:           54 b            0 skpd (  0.0%)    0.001 s ( 0.009 ms/b)
<sf|sf>:           78 b            0 skpd (  0.0%)    0.000 s ( 0.001 ms/b)
<sf|pp>:          180 b            0 skpd (  0.0%)    0.000 s ( 0.001 ms/b)
<sf|pd>:          180 b            0 skpd (  0.0%)    0.000 s ( 0.003 ms/b)
<sf|pf>:          120 b            0 skpd (  0.0%)    0.000 s ( 0.002 ms/b)
<sf|dd>:           72 b            0 skpd (  0.0%)    0.002 s ( 0.022 ms/b)
<sf|df>:           72 b            0 skpd (  0.0%)    0.001 s ( 0.009 ms/b)
<sf|ff>:           36 b            0 skpd (  0.0%)    0.001 s ( 0.015 ms/b)
<pp|pp>:          120 b            0 skpd (  0.0%)    0.000 s ( 0.001 ms/b)
<pp|pd>:          225 b            0 skpd (  0.0%)    0.001 s ( 0.002 ms/b)
<pp|pf>:          150 b            0 skpd (  0.0%)    0.000 s ( 0.002 ms/b)
<pp|dd>:           90 b            0 skpd (  0.0%)    0.002 s ( 0.020 ms/b)
<pp|df>:           90 b            0 skpd (  0.0%)    0.001 s ( 0.008 ms/b)
<pp|ff>:           45 b            0 skpd (  0.0%)    0.001 s ( 0.011 ms/b)
<pd|pd>:          120 b            0 skpd (  0.0%)    0.002 s ( 0.014 ms/b)
<pd|pf>:          150 b            0 skpd (  0.0%)    0.001 s ( 0.004 ms/b)
<pd|dd>:           90 b            0 skpd (  0.0%)    0.006 s ( 0.065 ms/b)
<pd|df>:           90 b            0 skpd (  0.0%)    0.002 s ( 0.024 ms/b)
<pd|ff>:           45 b            0 skpd (  0.0%)    0.001 s ( 0.023 ms/b)
<pf|pf>:           55 b            0 skpd (  0.0%)    0.000 s ( 0.007 ms/b)
<pf|dd>:           60 b            0 skpd (  0.0%)    0.003 s ( 0.049 ms/b)
<pf|df>:           60 b            0 skpd (  0.0%)    0.001 s ( 0.022 ms/b)
<pf|ff>:           30 b            0 skpd (  0.0%)    0.001 s ( 0.033 ms/b)
<dd|dd>:           21 b            0 skpd (  0.0%)    0.008 s ( 0.386 ms/b)
<dd|df>:           36 b            0 skpd (  0.0%)    0.003 s ( 0.080 ms/b)
<dd|ff>:           18 b            0 skpd (  0.0%)    0.001 s ( 0.064 ms/b)
<df|df>:           21 b            0 skpd (  0.0%)    0.002 s ( 0.098 ms/b)
<df|ff>:           18 b            0 skpd (  0.0%)    0.001 s ( 0.073 ms/b)
<ff|ff>:            6 b            0 skpd (  0.0%)    0.001 s ( 0.106 ms/b)
Recanonicalizing the internal orbitals
Recanonicalizing the virtual orbitals
Time needed for Fock operator              ...            0.093 sec
Reference energy                           ...   -189.210033188
Warning: for UHF the TrafoType has to be JK
Warning: for UHF the K(C)-option cannot be MO but must be AOX

-------------------------------
PARTIAL EXCHANGE TRANSFORMATION
-------------------------------

Transformation type                        ... two-operators
Generation of integrals (i,mue|j,nue)      ... ON
Generation of integrals (mue,kappa|nue,tau)... ON
Generation of integrals (i,mue|a,nue)      ... ON
Dimension of the basis                     ...   50
Number of internal alpha-MOs               ...    7 (   4-  10)
Number of internal beta-MOs                ...    6 (   4-   9)
Number of external alpha-MOs               ...   39 (  11-  49)
Number of external beta-MOs                ...   40 (  10-  49)
Pair cutoff                                ... 0.000e+00 Eh
Number of AO pairs in the trafo            ... 1275
Total Number of distinct AO pairs          ... 1275
Memory devoted for trafo                   ... 2500.0 MB 
Max. Number of MO pairs treated together   ... 131072      
Number Format for Storage                  ... Double (8 Byte)
Integral package used                      ... LIBINT

Starting integral evaluation:
    ... done with AO integral generation
Closing buffer AOK[aa] ( 0.00 GB; CompressionRatio= 0.00)
Closing buffer AOK[bb] ( 0.00 GB; CompressionRatio= 0.00)
Closing buffer AOK[ab] ( 0.00 GB; CompressionRatio= 0.00)
Closing buffer AOK[ba] ( 0.00 GB; CompressionRatio= 0.00)
Collecting buffer AOK 
Closing buffer IAAO1[aa] ( 0.00 GB; CompressionRatio= 0.00)
Closing buffer IAAO1[bb] ( 0.00 GB; CompressionRatio= 0.00)
Closing buffer IAAO1[ab] ( 0.00 GB; CompressionRatio= 0.00)
Closing buffer IAAO1[ba] ( 0.00 GB; CompressionRatio= 0.00)
Closing buffer IAAO2[aa] ( 0.00 GB; CompressionRatio= 0.00)
Closing buffer IAAO2[bb] ( 0.00 GB; CompressionRatio= 0.00)
Closing buffer IAAO2[ab] ( 0.00 GB; CompressionRatio= 0.00)
Closing buffer IAAO2[ba] ( 0.00 GB; CompressionRatio= 0.00)
Collecting buffer IAAO 
Closing buffer PRQS    ( 0.00 GB; CompressionRatio= 0.00)
Collecting buffer PRQS 
Number of alpha/alpha MO pairs in trafo    ...   28
Number of beta /beta  MO pairs in trafo    ...   21
Number of alpha/ beta MO pairs in trafo    ...   42
------------------------
SORTING OF (i,mue|j,nue)
------------------------

SORTING OF ALPHA/ALPHA PAIRS
IBATCH = 1 of  1
Closing buffer KAO[aa] ( 0.00 GB; CompressionRatio= 1.00)
Collecting buffer KAO 
SORTING OF BETA /BETA  PAIRS
IBATCH = 1 of  1
Closing buffer KAO[bb] ( 0.00 GB; CompressionRatio= 1.00)
Collecting buffer KAO 
SORTING OF ALPHA/BETA  PAIRS
IBATCH = 1 of  1
Closing buffer KAO[ab] ( 0.00 GB; CompressionRatio= 0.999400359784)
Collecting buffer KAO[ab] 
------------------------
SORTING OF (i,mue|a,nue)
------------------------

Number of alpha/alpha (i,a) pairs in trafo  ...  273
Number of beta /beta  (i,a) pairs in trafo  ...  240
Number of alpha/ beta (i,a) pairs in trafo  ...  280
Number of beta /alpha (i,a) pairs in trafo  ...  234
Setting up the alpha/alpha list             ... done
Setting up the beta /beta  list             ... done
Setting up the alpha/beta  list             ... done
Setting up the beta /alpha list             ... done
    ... Now sorting (i,mue|a,nue)integrals
    ... Integrals (i,b|a,c) will be made on the fly
SORTING OF ALPHA/ALPHA PAIRS
IBATCH = 1 of  1
Closing buffer IPAQ[aa]  0.00 GB; CompressionRatio= 1.00)
SORTING OF BETA /BETA  PAIRS
IBATCH = 1 of  1
Closing buffer IPAQ[bb]( 0.00 GB; CompressionRatio= 1.00)
SORTING OF ALPHA/BETA  PAIRS (NMatSort_ab=12)
IBATCH = 1 of  1
Closing buffer IPAQ[ab]( 0.00 GB; CompressionRatio= 1.00)
SORTING OF BETA/ALPHA  PAIRS
IBATCH = 1 of  1
Closing buffer IPAQ[ba]( 0.00 GB; CompressionRatio= 1.00)
N(AO-Batches) Done                         ...         0 
N(AO-Batches) Skipped                      ...         0 
N(IJ)-pairs Skipped                        ...         0 
TOTAL TIME for half transformation         ...     7.677 sec
AO-integral generation                     ...     0.000 sec
Half transformation                        ...     0.000 sec
K-integral sorting                         ...     5.769 sec
<ss|**>: 
------------------------------
PARTIAL COULOMB TRANSFORMATION
------------------------------

Transformation type                        ... two-operators
Dimension of the basis                     ...   50
Number of internal alpha-MOs               ...    7 (4-10)
Number of internal beta-MOs                ...    6 (4-9)
Pair cutoff                                ... 0.000e+00 Eh
Number of AO pairs included in the trafo   ... 1275
Total Number of distinct AO pairs          ... 1275
Memory devoted for trafo                   ... 2500.0 MB 
Max. Number of MO pairs treated together   ... 257003      
Max. Number of MOs treated per batch       ... 5140      
Number Format for Storage                  ... Double (8 Byte)
AO-integral source                         ... DIRECT
Integral package used                      ... LIBINT

Starting integral evaluation:
        2856 b        0 skpd     0.002 s (  0.001 ms/b)
<sp|**>:         4080 b        0 skpd     0.015 s (  0.004 ms/b)
<sd|**>:         2448 b        0 skpd     0.013 s (  0.005 ms/b)
<sf|**>: <pp|**>:         1632 b        0 skpd     0.016 s (  0.010 ms/b)
        2040 b        0 skpd     0.020 s (  0.010 ms/b)
<pd|**>:         2040 b        0 skpd     0.040 s (  0.019 ms/b)
<pf|**>:         1360 b        0 skpd     0.037 s (  0.027 ms/b)
<dd|**>:          816 b        0 skpd     0.039 s (  0.048 ms/b)
<df|**>:          816 b        0 skpd     0.050 s (  0.062 ms/b)
<ff|**>:          408 b        0 skpd     0.043 s (  0.105 ms/b)
Closing buffer AOJ[aa] ( 0.00 GB; CompressionRatio= 0.95)
Closing buffer AOJ[bb] ( 0.00 GB; CompressionRatio= 0.00)
Collecting buffer AOJ 
    ... done with AO integral generation
Number of Alpha-MO pairs included          ...   28
Number of Beta-MO pairs included           ...   21
    ... Now sorting integrals
SORTING ALPHA/ALPHA PAIRS
IBATCH = 1 of  1
Closing buffer JAO[aa] ( 0.00 GB; CompressionRatio= 1.00)
SORTING BETA/BETA PAIRS
IBATCH = 1 of  1
Closing buffer JAO[bb] ( 0.00 GB; CompressionRatio= 1.00)
Collecting buffer JAO 
TOTAL TIME for half transformation         ...     0.525 sec
AO-integral generation                     ...     0.163 sec
Half transformation                        ...     0.113 sec
J-integral sorting                         ...     0.112 sec

-------------------------- SECOND HALF TRANSFORMATION -------------------------
Formation of (ij|kl),(ij|ka), (ij|ab)      ... ok (     0.138 sec)
Formation of (ik|jl),(ik|ja), (ia|jb)      ... ok (     0.227 sec)


-----------------------
SPIN UNRESTRICTED GUESS
-----------------------

Entering MDCI_UHF_Guess, Tailored=0
Spin-components of the MP2 energy:
EMP2(aa)=     -0.045951674
EMP2(bb)=     -0.040544027
EMP2(ab)=     -0.161942607

Initial guess performed in     0.006 sec
E(0)                                       ...   -189.210033188
E(MP2)                                     ...     -0.248438308
Initial E(tot)                             ...   -189.458471496
<T|T>                                      ...      0.074194049
Number of pairs included                   ... 78

------------------------------------------------
                  UHF COUPLED CLUSTER ITERATIONS
------------------------------------------------

Number of amplitudes to be optimized       ...        93736

Iter       E(tot)           E(Corr)          Delta-E          Residual     Time      <S|S>**1/2
  0   -189.458471496     -0.248438308     -0.000000000      0.023374843    0.15      0.000000305
                           *** Turning on DIIS ***
  1   -189.448866190     -0.238833002      0.009605307      0.009221244    0.12      0.033983578
  2   -189.453731015     -0.243697827     -0.004864825      0.005105292    0.12      0.043214888
  3   -189.455663170     -0.245629982     -0.001932155      0.001424971    0.12      0.051554048
  4   -189.456013460     -0.245980272     -0.000350290      0.000224685    0.12      0.053691492
  5   -189.456040879     -0.246007691     -0.000027419      0.000117926    0.12      0.053986362
  6   -189.456045650     -0.246012463     -0.000004772      0.000055107    0.12      0.053999633
  7   -189.456045841     -0.246012653     -0.000000191      0.000022728    0.12      0.053995661
  8   -189.456046128     -0.246012940     -0.000000287      0.000008129    0.12      0.054000400
               --- The Coupled-Cluster iterations have converged ---

----------------------
COUPLED CLUSTER ENERGY
----------------------

E(0)                                       ...   -189.210033188
E(CORR)                                    ...     -0.246012940
E(TOT)                                     ...   -189.456046128
Singles norm <S|S>**1/2                    ...      0.054000400 ( 0.033790189, 0.020210211)  
T1 diagnostic                              ...      0.014977016                              

------------------
LARGEST AMPLITUDES
------------------
   9a-> 16a  -1a-> -1a       0.047031
   9a-> 11a   9b-> 10b       0.045951
   9a-> 12a   9b-> 11b       0.045951
  10a-> 16a   9b-> 12b       0.045855
   9a-> 11a   9b-> 13b       0.044419
   9a-> 12a   9b-> 14b       0.044419
  10a-> 18a   9b-> 11b       0.040049
  10a-> 17a   9b-> 10b       0.040049
  10a-> 16a   9b-> 15b       0.038290
   9a-> 12a   9b-> 10b       0.037036
   9a-> 11a   9b-> 11b       0.037036
   9a-> 14a   9b-> 11b       0.034737
   9a-> 15a   9b-> 10b       0.034737
   9b-> 16b  -1b-> -1b       0.032063
   9a-> 15a   9b-> 14b       0.029849
   9a-> 14a   9b-> 13b       0.029849

----------------------
UHF TRIPLES CORRECTION (Algorithm 1)
----------------------

Multiplier for the singles contribution    ...      1.000000000

SPIN-CASE Alpha-Alpha-Alpha:
10% done
20% done
30% done
40% done
50% done
60% done
70% done
80% done
90% done


SPIN-CASE Beta-Beta-Beta:
10% done
20% done
30% done
40% done
50% done
60% done
70% done
80% done
90% done


SPIN-CASE Alpha-Alpha-Beta:
10% done
20% done
30% done
40% done
50% done
60% done
70% done
80% done
90% done


SPIN-CASE Beta-Beta-Alpha:
10% done
20% done
30% done
40% done
50% done
60% done
70% done
80% done
90% done


Triples Correction (T)                     ...     -0.006237257
    alpha-alpha-alpha ... -0.000225471 (  3.6%)
    alpha-alpha-beta  ... -0.003319398 ( 53.2%)
    alpha-beta -beta  ... -0.002548525 ( 40.9%)
    beta -beta -beta  ... -0.000143864 (  2.3%)
Scaling of triples based on CCSD energies (Peterson et al. Molecular Physics 113, 1551 (2015))
E(T*) = f*E(T) where f = E(F12-CCSD)/E(CCSD) 
f = CCSD (with F12)/ CCSD (without F12)    ...      1.000000000
Scaled triples correction (T)              ...     -0.006237257

Final correlation energy                   ...     -0.252250198
E(CCSD)                                    ...   -189.456046128
E(CCSD(T))                                 ...   -189.462283386



        !!!!!!!!!!!!!!!!!!!!!!!!!!!!!!!!!!!!!!!!!!!!!!!!!!!!!!!!!!!!!!!!!!!!!!!!!! 
        !  Warning: Densities are linearized densities                           !
        !!!!!!!!!!!!!!!!!!!!!!!!!!!!!!!!!!!!!!!!!!!!!!!!!!!!!!!!!!!!!!!!!!!!!!!!!! 

NORM  =      1.092813744 sqrt=     1.045377321
W(HF) =      0.915069018
------------------------------------------------------------------------------
                           ORCA POPULATION ANALYSIS
------------------------------------------------------------------------------
Input electron density              ... 49_In.mdcip
Input spin density                  ... 49_In.mdcir
BaseName (.gbw .S,...)              ... 49_In

                    ********************************
                    * MULLIKEN POPULATION ANALYSIS *
                    ********************************

------------------------------------------
MULLIKEN ATOMIC CHARGES AND SPIN DENSITIES
------------------------------------------
   0 In:    0.000000    1.000000
Sum of atomic charges       :    0.0000000
Sum of atomic spin densities:    1.0000000

---------------------------------------------------
MULLIKEN REDUCED ORBITAL CHARGES AND SPIN DENSITIES
---------------------------------------------------
CHARGE
  0 Ins       :     3.924493  s :     3.924493
      pz      :     2.033264  p :     7.061788
      px      :     2.995258
      py      :     2.033266
      dz2     :     1.991454  d :     9.967825
      dxz     :     1.995702
      dyz     :     1.989396
      dx2y2   :     1.995571
      dxy     :     1.995702
      f0      :     0.006518  f :     0.045893
      f+1     :     0.006584
      f-1     :     0.006467
      f+2     :     0.006559
      f-2     :     0.006546
      f+3     :     0.006609
      f-3     :     0.006610

SPIN
  0 Ins       :     0.015014  s :     0.015014
      pz      :    -0.001157  p :     0.973013
      px      :     0.975325
      py      :    -0.001155
      dz2     :     0.001076  d :     0.011139
      dxz     :     0.003394
      dyz     :    -0.000047
      dx2y2   :     0.003322
      dxy     :     0.003394
      f0      :     0.000072  f :     0.000834
      f+1     :     0.000154
      f-1     :     0.000012
      f+2     :     0.000120
      f-2     :     0.000114
      f+3     :     0.000181
      f-3     :     0.000181


                     *******************************
                     * LOEWDIN POPULATION ANALYSIS *
                     *******************************

-----------------------------------------
LOEWDIN ATOMIC CHARGES AND SPIN DENSITIES
-----------------------------------------
   0 In:   -0.000000    1.000000

--------------------------------------------------
LOEWDIN REDUCED ORBITAL CHARGES AND SPIN DENSITIES
--------------------------------------------------
CHARGE
  0 Ins       :     3.924493  s :     3.924493
      pz      :     2.033264  p :     7.061788
      px      :     2.995258
      py      :     2.033266
      dz2     :     1.991454  d :     9.967825
      dxz     :     1.995702
      dyz     :     1.989396
      dx2y2   :     1.995571
      dxy     :     1.995702
      f0      :     0.006518  f :     0.045893
      f+1     :     0.006584
      f-1     :     0.006467
      f+2     :     0.006559
      f-2     :     0.006546
      f+3     :     0.006609
      f-3     :     0.006610

SPIN
  0 Ins       :     0.015014  s :     0.015014
      pz      :    -0.001157  p :     0.973013
      px      :     0.975325
      py      :    -0.001155
      dz2     :     0.001076  d :     0.011139
      dxz     :     0.003394
      dyz     :    -0.000047
      dx2y2   :     0.003322
      dxy     :     0.003394
      f0      :     0.000072  f :     0.000834
      f+1     :     0.000154
      f-1     :     0.000012
      f+2     :     0.000120
      f-2     :     0.000114
      f+3     :     0.000181
      f-3     :     0.000181


                      *****************************
                      * MAYER POPULATION ANALYSIS *
                      *****************************

  NA   - Mulliken gross atomic population
  ZA   - Total nuclear charge
  QA   - Mulliken gross atomic charge
  VA   - Mayer's total valence
  BVA  - Mayer's bonded valence
  FA   - Mayer's free valence

  ATOM       NA         ZA         QA         VA         BVA        FA
  0 In    21.0000    21.0000     0.0000     1.6392     0.0000     1.6392





------------------------------------------------------------------------------- 
                                     TIMINGS                                   
------------------------------------------------------------------------------- 


Total execution time                   ...       10.259 sec

Fock Matrix Formation                  ...        0.093 sec (  0.9%)
Initial Guess                          ...        0.006 sec (  0.1%)
DIIS Solver                            ...        0.069 sec (  0.7%)
State Vector Update                    ...        0.004 sec (  0.0%)
Sigma-vector construction              ...        1.037 sec ( 10.1%)
  <D|H|D>(0-ext Fock)                  ...        0.001 sec (  0.1% of sigma)
  <D|H|D>(0-ext)                       ...        0.002 sec (  0.2% of sigma)
  <D|H|D>(2-ext)                       ...        0.012 sec (  1.2% of sigma)
  <D|H|D>(4-ext)                       ...        0.334 sec ( 32.2% of sigma)
  <S|H|0>                              ...        0.023 sec (  2.2% of sigma)
  <S|H|S>                              ...        0.001 sec (  0.1% of sigma)
  <D|H|S>(1-ext)                       ...        0.007 sec (  0.6% of sigma)
  Fock-dressing                        ...        0.414 sec ( 39.9% of sigma)
  (ik|jl)-dressing                     ...        0.003 sec (  0.3% of sigma)
  (ij|ab),(ia|jb)-dressing             ...        0.176 sec ( 17.0% of sigma)
Total Time for computing (T)           ...        0.042 sec (  0.4% of ALL)
  I/O of integral and amplitudes       ...        0.011 sec ( 25.8% of (T))
  External N**7 contributions          ...        0.010 sec ( 23.2% of (T))
  Internal N**7 contributions          ...        0.003 sec (  8.1% of (T))
  N**6 triples energy contributions    ...        0.016 sec ( 36.8% of (T))


-------------------------   --------------------
FINAL SINGLE POINT ENERGY      -189.462283385782
-------------------------   --------------------


                            ***************************************
                            *     ORCA property calculations      *
                            ***************************************

                                    ---------------------
                                    Active property flags
                                    ---------------------
   (+) Dipole Moment


------------------------------------------------------------------------------
                       ORCA ELECTRIC PROPERTIES CALCULATION
------------------------------------------------------------------------------

Dipole Moment Calculation                       ... on
Quadrupole Moment Calculation                   ... off
Polarizability Calculation                      ... off
GBWName                                         ... 49_In.gbw
Electron density file                           ... 49_In.scfp
The origin for moment calculation is the CENTER OF MASS  = ( 0.000000,  0.000000  0.000000)

-------------
DIPOLE MOMENT
-------------
                                X             Y             Z
Electronic contribution:     -0.00000       0.00000      -0.00000
Nuclear contribution   :      0.00000       0.00000       0.00000
                        -----------------------------------------
Total Dipole Moment    :     -0.00000       0.00000      -0.00000
                        -----------------------------------------
Magnitude (a.u.)       :      0.00000
Magnitude (Debye)      :      0.00000



--------------------
Rotational spectrum 
--------------------
 
Rotational constants in cm-1:     0.000000     0.000000     0.000000 
Rotational constants in MHz :     0.000000     0.000000     0.000000 

 Dipole components along the rotational axes: 
x,y,z [a.u.] :    -0.000000     0.000000    -0.000000 
x,y,z [Debye]:    -0.000000     0.000000    -0.000000 

 

                           *** MDCI DENSITY ***

------------------------------------------------------------------------------
                       ORCA ELECTRIC PROPERTIES CALCULATION
------------------------------------------------------------------------------

Dipole Moment Calculation                       ... on
Quadrupole Moment Calculation                   ... off
Polarizability Calculation                      ... off
GBWName                                         ... 49_In.gbw
Electron density file                           ... 49_In.mdcip
The origin for moment calculation is the CENTER OF MASS  = ( 0.000000,  0.000000  0.000000)

-------------
DIPOLE MOMENT
-------------
                                X             Y             Z
Electronic contribution:      0.00000      -0.00000       0.00000
Nuclear contribution   :      0.00000       0.00000       0.00000
                        -----------------------------------------
Total Dipole Moment    :      0.00000      -0.00000       0.00000
                        -----------------------------------------
Magnitude (a.u.)       :      0.00000
Magnitude (Debye)      :      0.00000



--------------------
Rotational spectrum 
--------------------
 
Rotational constants in cm-1:     0.000000     0.000000     0.000000 
Rotational constants in MHz :     0.000000     0.000000     0.000000 

 Dipole components along the rotational axes: 
x,y,z [a.u.] :     0.000000    -0.000000     0.000000 
x,y,z [Debye]:     0.000000    -0.000000     0.000000 

 

Timings for individual modules:

Sum of individual times         ...       17.193 sec (=   0.287 min)
GTO integral calculation        ...        0.924 sec (=   0.015 min)   5.4 %
SCF iterations                  ...        5.556 sec (=   0.093 min)  32.3 %
MDCI module                     ...       10.714 sec (=   0.179 min)  62.3 %
                             ****ORCA TERMINATED NORMALLY****
TOTAL RUN TIME: 0 days 0 hours 0 minutes 17 seconds 980 msec
