
                                 *****************
                                 * O   R   C   A *
                                 *****************

           --- An Ab Initio, DFT and Semiempirical electronic structure package ---

                  #######################################################
                  #                        -***-                        #
                  #          Department of theory and spectroscopy      #
                  #               Directorship: Frank Neese             #
                  #        Max Planck Institute fuer Kohlenforschung    #
                  #                Kaiser Wilhelm Platz 1               #
                  #                 D-45470 Muelheim/Ruhr               #
                  #                      Germany                        #
                  #                                                     #
                  #                  All rights reserved                #
                  #                        -***-                        #
                  #######################################################


                         Program Version 4.2.0 -  RELEASE  -


 With contributions from (in alphabetic order):
   Daniel Aravena         : Magnetic Suceptibility
   Michael Atanasov       : Ab Initio Ligand Field Theory (pilot matlab implementation)
   Alexander A. Auer      : GIAO ZORA, VPT2
   Ute Becker             : Parallelization
   Giovanni Bistoni       : ED, misc. LED, open-shell LED, HFLED
   Martin Brehm           : Molecular dynamics
   Dmytro Bykov           : SCF Hessian
   Vijay G. Chilkuri      : MRCI spin determinant printing, contributions to CSF-ICE
   Dipayan Datta          : RHF DLPNO-CCSD density
   Achintya Kumar Dutta   : EOM-CC, STEOM-CC
   Dmitry Ganyushin       : Spin-Orbit,Spin-Spin,Magnetic field MRCI
   Miquel Garcia          : C-PCM Hessian, Gaussian charge scheme
   Yang Guo               : DLPNO-NEVPT2, CIM, IAO-localization
   Andreas Hansen         : Spin unrestricted coupled pair/coupled cluster methods
   Benjamin Helmich-Paris : CASSCF linear response (MC-RPA)
   Lee Huntington         : MR-EOM, pCC
   Robert Izsak           : Overlap fitted RIJCOSX, COSX-SCS-MP3, EOM
   Christian Kollmar      : KDIIS, OOCD, Brueckner-CCSD(T), CCSD density
   Simone Kossmann        : Meta GGA functionals, TD-DFT gradient, OOMP2, MP2 Hessian
   Martin Krupicka        : AUTO-CI
   Lucas Lang             : DCDCAS
   Dagmar Lenk            : GEPOL surface, SMD
   Dimitrios Liakos       : Extrapolation schemes; Compound Job, initial MDCI parallelization
   Dimitrios Manganas     : Further ROCIS development; embedding schemes
   Dimitrios Pantazis     : SARC Basis sets
   Taras Petrenko         : DFT Hessian,TD-DFT gradient, ASA, ECA, R-Raman, ABS, FL, XAS/XES, NRVS
   Peter Pinski           : DLPNO-MP2, DLPNO-MP2 Gradient
   Christoph Reimann      : Effective Core Potentials
   Marius Retegan         : Local ZFS, SOC
   Christoph Riplinger    : Optimizer, TS searches, QM/MM, DLPNO-CCSD(T), (RO)-DLPNO pert. Triples
   Tobias Risthaus        : Range-separated hybrids, TD-DFT gradient, RPA, STAB
   Michael Roemelt        : Original ROCIS implementation
   Masaaki Saitow         : Open-shell DLPNO-CCSD energy and density
   Barbara Sandhoefer     : DKH picture change effects
   Avijit Sen             : IP-ROCIS
   Kantharuban Sivalingam : CASSCF convergence, NEVPT2, FIC-MRCI
   Bernardo de Souza      : ESD, SOC TD-DFT
   Georgi Stoychev        : AutoAux, RI-MP2 NMR
   Willem Van den Heuvel  : Paramagnetic NMR
   Boris Wezisla          : Elementary symmetry handling
   Frank Wennmohs         : Technical directorship


 We gratefully acknowledge several colleagues who have allowed us to
 interface, adapt or use parts of their codes:
   Stefan Grimme, W. Hujo, H. Kruse,             : VdW corrections, initial TS optimization,
                  C. Bannwarth                     DFT functionals, gCP, sTDA/sTD-DF
   Ed Valeev, F. Pavosevic, A. Kumar             : LibInt (2-el integral package), F12 methods
   Garnet Chan, S. Sharma, J. Yang, R. Olivares  : DMRG
   Ulf Ekstrom                                   : XCFun DFT Library
   Mihaly Kallay                                 : mrcc  (arbitrary order and MRCC methods)
   Andreas Klamt, Michael Diedenhofen            : otool_cosmo (COSMO solvation model)
   Jiri Pittner, Ondrej Demel                    : Mk-CCSD
   Frank Weinhold                                : gennbo (NPA and NBO analysis)
   Christopher J. Cramer and Donald G. Truhlar   : smd solvation model
   Lars Goerigk                                  : TD-DFT with DH, B97 family of functionals
   V. Asgeirsson, H. Jonsson                     : NEB implementation
   FAccTs GmbH                                   : IRC, NEB, NEB-TS, Multilevel, MM, QM/MM, CI optimization
   S Lehtola, MJT Oliveira, MAL Marques          : LibXC Library


 Your calculation uses the libint2 library for the computation of 2-el integrals
 For citations please refer to: http://libint.valeyev.net

 Your ORCA version has been built with support for libXC version: 4.2.3
 For citations please refer to: https://tddft.org/programs/libxc/

 This ORCA versions uses:
   CBLAS   interface :  Fast vector & matrix operations
   LAPACKE interface :  Fast linear algebra routines
   SCALAPACK package :  Parallel linear algebra routines


----- Orbital basis set information -----
Your calculation utilizes the basis: def2-SVP
   F. Weigend and R. Ahlrichs, Phys. Chem. Chem. Phys. 7, 3297 (2005).

----- AuxJ basis set information -----
Your calculation utilizes the auxiliary basis: def2/J
   F. Weigend, Phys. Chem. Chem. Phys. 8, 1057 (2006).

================================================================================
                                        WARNINGS
                       Please study these warnings very carefully!
================================================================================


INFO   : the flag for use of LIBINT has been found!

================================================================================
                                       INPUT FILE
================================================================================
NAME = 50_Sn_atom50.inp
|  1> # input to generate an atomic fitting density for Sn
|  2> # this file is use internally by ORCA
|  3> #
|  4> # atomic ground state (S=3): 1s2 2s2 2p6 3s2 3p6 4s2 3d10 4p6 5s2 4d10 5p2 
|  5> #
|  6> ! RHF AllowRHF def2-SVP def2/J  NoMulliken NoLoewdin NoMayer NoPrintMOs 
|  7> 
|  8> %output print[p_atomdensfit] 2 end
|  9> 
| 10> %scf
| 11>   guess hcore
| 12>   maxiter 1000
| 13>   maxdisk 500000
| 14>   SCFMode Conventional
| 15>   lshift 1.000000
| 16>   hftyp rohf
| 17>   rohf_case sahf
| 18>   rohf_numop   2
| 19>   rohf_norb[1] 3
| 20>   rohf_nel[1]  2
| 21> end
| 22> 
| 23> %basis
| 24>   NewECP 50
| 25>     N_core 28
| 26>     lmax f
| 27>     s 4
| 28>       1      17.4204140000    279.9886820000  2
| 29>       2       7.6311550000     62.3778100000  2
| 30>       3      12.2823480000     12.5763330000  2
| 31>       4      12.2721500000     16.5959440000  2
| 32>     p 6
| 33>       1      16.1310240000     66.1625230000  2
| 34>       2      15.6280770000    132.1743960000  2
| 35>       3       7.3256080000     16.3394170000  2
| 36>       4       6.9425190000     32.4889590000  2
| 37>       5      12.2823480000     12.5763330000  2
| 38>       6      12.2721500000     16.5959440000  2
| 39>     d 6
| 40>       1      15.5149760000     36.3874410000  2
| 41>       2      15.1881600000     54.5078410000  2
| 42>       3       5.4560240000      8.6968230000  2
| 43>       4       5.3631050000     12.8402080000  2
| 44>       5      12.2823480000     12.5763330000  2
| 45>       6      12.2721500000     16.5959440000  2
| 46>     f 2
| 47>       1      12.2823480000    -12.5763330000  2
| 48>       2      12.2721500000    -16.5959440000  2
| 49>   end
| 50>   NewGTO 50
| 51>     s 4 
| 52>      1    1577.0715931000      0.0003218419
| 53>      2     235.2660107800      0.0015384537
| 54>      3      38.2063306450     -0.0073758372
| 55>      4      13.0970317650      1.0055154359
| 56>     s 2 
| 57>      1      11.6814927590      0.6809914776
| 58>      2       5.9647604361      0.3371650694
| 59>     s 1 
| 60>      1       1.8891070740      1.0000000000
| 61>     s 1 
| 62>      1       0.8851408063      1.0000000000
| 63>     s 1 
| 64>      1       0.2050010515      1.0000000000
| 65>     s 1 
| 66>      1       0.0767485510      1.0000000000
| 67>     p 3 
| 68>      1     221.5576749600      0.0012361685
| 69>      2      21.0840214330      0.1235490029
| 70>      3       8.7600138521     -1.0950328657
| 71>     p 3 
| 72>      1       2.5912909722      0.4264068280
| 73>      2       1.3426801157      0.4614253825
| 74>      3       0.6773273583      0.1761114631
| 75>     p 1 
| 76>      1       0.2941875675      1.0000000000
| 77>     p 1 
| 78>      1       0.1186376205      1.0000000000
| 79>     p 1 
| 80>      1       0.0462157506      1.0000000000
| 81>   end
| 82>   NewAuxGTO 50
| 83>     S 1
| 84>      1 1310.72 1.0
| 85>     S 1
| 86>      1  655.36 1.0
| 87>     S 1
| 88>      1  327.68 1.0
| 89>     S 1
| 90>      1  163.84 1.0
| 91>     S 1
| 92>      1   81.82 1.0
| 93>     S 1
| 94>      1   40.96 1.0
| 95>     S 1
| 96>      1   20.48 1.0
| 97>     S 1
| 98>      1   10.24 1.0
| 99>     S 1
|100>      1    5.12 1.0
|101>     S 1
|102>      1    2.56 1.0
|103>     S 1
|104>      1    1.28 1.0
|105>     S 1
|106>      1    0.64 1.0
|107>     S 1
|108>      1    0.32 1.0
|109>     S 1
|110>      1    0.16 1.0
|111>     S 1
|112>      1    0.08 1.0
|113>     S 1
|114>      1    0.04 1.0
|115>     S 1
|116>      1    0.02 1.0
|117>     S 1
|118>      1    0.01 1.0
|119>   end
|120> end
|121> 
|122> * xyz 0 3
|123> 50  0.0 0.0 0.0
|124> *
|125> 
|126> 
|127>                          ****END OF INPUT****
================================================================================

                       ****************************
                       * Single Point Calculation *
                       ****************************

---------------------------------
CARTESIAN COORDINATES (ANGSTROEM)
---------------------------------
  Sn     0.000000    0.000000    0.000000

----------------------------
CARTESIAN COORDINATES (A.U.)
----------------------------
  NO LB      ZA    FRAG     MASS         X           Y           Z
   0 Sn   22.0000*   0   118.690    0.000000    0.000000    0.000000
* core charge reduced due to ECP

--------------------------------
INTERNAL COORDINATES (ANGSTROEM)
--------------------------------
 Sn     0   0   0     0.000000000000     0.00000000     0.00000000

---------------------------
INTERNAL COORDINATES (A.U.)
---------------------------
 Sn     0   0   0     0.000000000000     0.00000000     0.00000000

---------------------
BASIS SET INFORMATION
---------------------
There are 1 groups of distinct atoms

 Group   1 Type Sn  : 10s9p contracted to 6s5p pattern {421111/33111}

Atom   0Sn   basis set group =>   1
---------------------------------
AUXILIARY/J BASIS SET INFORMATION
---------------------------------
There are 1 groups of distinct atoms

 Group   1 Type Sn  : 18s contracted to 18s pattern {111111111111111111}

Atom   0Sn   basis set group =>   1
-------------------------
ECP PARAMETER INFORMATION
-------------------------

 Group 1, Type Sn ECP (replacing 28 core electrons, lmax=3)

Atom   0Sn   ECP group =>   1

------------------------------------------------------------------------------
                           ORCA GTO INTEGRAL CALCULATION
------------------------------------------------------------------------------

                         BASIS SET STATISTICS AND STARTUP INFO

 # of primitive gaussian shells          ...   19
 # of primitive gaussian functions       ...   37
 # of contracted shells                  ...   11
 # of contracted basis functions         ...   21
 Highest angular momentum                ...    1
 Maximum contraction depth               ...    4
 Integral package used                   ... LIBINT
 Integral threshhold            Thresh   ...  1.000e-10
 Primitive cut-off              TCut     ...  1.000e-11
 Storage cut-off                TCutStore... -1.000e+00
 Buffer length                           ... 1048576 integrals/buffer
 Generate file with integrals 4 distinct ...false


------------------------------ INTEGRAL EVALUATION ----------------------------


 * One electron integrals 

   ECP integrals                         ... done
 Pre-screening matrix                    ... done
 Shell pair data                         ... done (   0.000 sec)
 Statistics run                          ... done
 Maximum amount of storage needed        ...     0 MB
 Maximum amount of storage dedicated     ... 500000 MB
 Beginning two electron integral evaluation:
 Starting repulsion integrals
  <ss|ss>  ...          231 b.         0 skpd (  0.0%)     0.000 s. (  0.000 ms/b)
  <ss|sp>  ...          630 b.         0 skpd (  0.0%)     0.000 s. (  0.000 ms/b)
  <ss|pp>  ...          315 b.         0 skpd (  0.0%)     0.000 s. (  0.001 ms/b)
  <sp|sp>  ...          465 b.         0 skpd (  0.0%)     0.000 s. (  0.001 ms/b)
  <sp|pp>  ...          450 b.         0 skpd (  0.0%)     0.001 s. (  0.002 ms/b)
  <pp|pp>  ...          120 b.         0 skpd (  0.0%)     0.001 s. (  0.004 ms/b)


                                      INTEGRAL STATISTICS

Integral type statistics:
 Number of integrals retained            ...      26796 
 One   Center Integrals retained         ...      26796 (100.0%)
 Two   Center Integrals retained         ...          0 (  0.0%)
 Three Center Integrals retained         ...          0 (  0.0%)
 Four  Center Integrals retained         ...          0 (  0.0%)

Storage statistics:
 Number of char integrals                ...          0 (  0.0%)
 Number of short int integrals           ...          0 (  0.0%)
 Number of double/float integrals        ...      26796 (100.0%)
 Amount of memory used                   ...          0 MB
 Amount of memory estimated              ...          0 MB ( 95.2%)

Prescreening statistics:
 Total number of shell quadruples        ...       2211 
 Number of skipped shell quadruples      ...          0 (  0.0%)
 # of negligible batches done            ...          0 (  0.0%)

Timings:
 Total evaluation time               ...     0.156 sec (   0.003 min)
 One electron matrix time            ...     0.012 sec (   0.000 min) =  7.9%
 Schwartz matrix evaluation time     ...     0.071 sec (   0.001 min) = 45.4%
 Statistics run                      ...     0.000 sec (   0.000 min) =  0.2%
 Repulsion integral time             ...     0.002 sec (   0.000 min) =  1.4%

-------------------------------------------------------------------------------
                                 ORCA SCF
-------------------------------------------------------------------------------

------------
SCF SETTINGS
------------
Hamiltonian:
 Ab initio Hamiltonian  Method          .... Hartree-Fock(GTOs)


General Settings:
 Integral files         IntName         .... 50_Sn_atom50
 Hartree-Fock type      HFTyp           .... ROHF
 Total Charge           Charge          ....    0
 Multiplicity           Mult            ....    3
 Number of Electrons    NEL             ....   22
 Basis Dimension        Dim             ....   21
 Nuclear Repulsion      ENuc            ....      0.0000000000 Eh

Convergence Acceleration:
 DIIS                   CNVDIIS         .... on
   Start iteration      DIISMaxIt       ....    12
   Startup error        DIISStart       ....  0.200000
   # of expansion vecs  DIISMaxEq       ....     5
   Bias factor          DIISBfac        ....   1.050
   Max. coefficient     DIISMaxC        ....  10.000
 Newton-Raphson         CNVNR           .... off
 SOSCF                  CNVSOSCF        .... off
 Level Shifting         CNVShift        .... on
   Level shift para.    LevelShift      ....    1.0000
   Turn off err/grad.   ShiftErr        ....    0.0010
 Zerner damping         CNVZerner       .... off
 Static damping         CNVDamp         .... on
   Fraction old density DampFac         ....    0.7000
   Max. Damping (<1)    DampMax         ....    0.9800
   Min. Damping (>=0)   DampMin         ....    0.0000
   Turn off err/grad.   DampErr         ....    0.1000
 Fernandez-Rico         CNVRico         .... off

SCF Procedure:
 Maximum # iterations   MaxIter         ....  1000
 SCF integral mode      SCFMode         .... Conventional
 Integral Threshold     Thresh          ....  1.000e-10 Eh
 Primitive CutOff       TCut            ....  1.000e-11 Eh
 Integral Buffer length BufferLength    .... 1048576
 Integral index format  IndFormat       ....     0
 Integral value format  ValFormat       ....     0
 Integral Storage       Thresh          ....  1.000e-10 Eh

Convergence Tolerance:
 Convergence Check Mode ConvCheckMode   .... Total+1el-Energy
 Convergence forced     ConvForced      .... 0
 Energy Change          TolE            ....  1.000e-06 Eh
 1-El. energy change                    ....  1.000e-03 Eh
 DIIS Error             TolErr          ....  1.000e-06


Diagonalization of the overlap matrix:
Smallest eigenvalue                        ... 4.391e-03
Time for diagonalization                   ...    0.000 sec
Threshold for overlap eigenvalues          ... 1.000e-08
Number of eigenvalues below threshold      ... 0
Time for construction of square roots      ...    0.002 sec
Total time needed                          ...    0.002 sec

--------------------
INITIAL GUESS: HCORE
--------------------
AVERAGE-CONFIGURATION (SAHF) CASE FOUND

-------------------
FINAL ROHF SETTINGS
-------------------
Number of operators             ... 2
  operator   0:  10 orbitals  20 electrons n(mue)= 2.000
  operator   1:   3 orbitals   2 electrons n(mue)= 0.667
Vector coupling coefficients a and b (Zerner convention):
   1.000    1.000           1.000    1.000 
   1.000    0.750           1.000    1.500 

                      -----------------
                      INTIAL GUESS DONE 
                      -----------------

 InCore treatment chosen:
   Memory dedicated               ...    1024 MB
   Memory needed                  ...      0 MB
   Number of tiny    integrals    ...       0
   Number of small   integrals    ...       0
   Number of regular integrals    ...   26796

--------------
SCF ITERATIONS
--------------
ITER       Energy         Delta-E        Max-DP      RMS-DP      [F,P]     Damp
  0   -186.8448707017   0.000000000000 2.38518401  0.21504542  1.4457942 0.7000
  1   -187.6149818086  -0.770111106872 2.89855219  0.25620656  0.3307275 0.7000
  2   -187.9581605704  -0.343178761766 2.68591189  0.23509914  0.2421643 0.7000
                            ****Activating DIIS****
  3   -188.1923527934  -0.234192223059 2.57921617  0.22490830  0.1662005 0.7000
  4   -188.4076883852  -0.215335591809 6.42362523  0.56295473  0.0916809 0.0000
  5   -188.7748062077  -0.367117822412 0.39175782  0.03722639  0.0883869 0.0000
  6   -188.8058929609  -0.031086753243 0.29062594  0.02222478  0.0725238 0.0000
  7   -188.8267252889  -0.020832327958 0.54838598  0.04416327  0.0592742 0.0000
  8   -188.8585254625  -0.031800173600 0.38730476  0.03096630  0.0283989 0.0000
  9   -188.8708845550  -0.012359092515 0.10717654  0.00858600  0.0112047 0.0000
 10   -188.8728265602  -0.001942005216 0.11392146  0.00972895  0.0090962 0.0000
 11   -188.8743961011  -0.001569540955 0.10625787  0.00884474  0.0073722 0.0000
 12   -188.8754362965  -0.001040195388 0.08073708  0.00620342  0.0053120 0.0000
 13   -188.8760458938  -0.000609597281 0.07957763  0.00574970  0.0038134 0.0000
 14   -188.8764923128  -0.000446418991 0.05158015  0.00381642  0.0018284 0.0000
 15   -188.8766621736  -0.000169860802 0.02606809  0.00206214  0.0012542 0.0000
 16   -188.8767073716  -0.000045197969 0.01362043  0.00108693  0.0007001 0.0000
 17   -188.8767206920  -0.000013320376 0.00764705  0.00057839  0.0005500 0.0000
 18   -188.8767254791  -0.000004787114 0.00754347  0.00055220  0.0004577 0.0000
 19   -188.8767282270  -0.000002747981 0.00424942  0.00034764  0.0002626 0.0000
                 **** Energy Check signals convergence ****

               *****************************************************
               *                     SUCCESS                       *
               *           SCF CONVERGED AFTER  20 CYCLES          *
               *****************************************************


----------------
TOTAL SCF ENERGY
----------------

Total Energy       :         -188.87672876 Eh           -5139.59708 eV

Components:
Nuclear Repulsion  :            0.00000000 Eh               0.00000 eV
Electronic Energy  :         -188.87672876 Eh           -5139.59708 eV
One Electron Energy:         -295.74863840 Eh           -8047.72959 eV
Two Electron Energy:          106.87190964 Eh            2908.13251 eV

Virial components:
Potential Energy   :         -239.66526078 Eh           -6521.62330 eV
Kinetic Energy     :           50.78853202 Eh            1382.02622 eV
Virial Ratio       :            4.71888537


---------------
SCF CONVERGENCE
---------------

  Last Energy change         ...   -5.3731e-07  Tolerance :   1.0000e-06
  Last MAX-Density change    ...    1.0150e-03  Tolerance :   1.0000e-05
  Last RMS-Density change    ...    1.1899e-04  Tolerance :   1.0000e-06
  Last DIIS Error            ...    6.9042e-05  Tolerance :   1.0000e-06

             **** THE GBW FILE WAS UPDATED (50_Sn_atom50.gbw) ****
             **** DENSITY FILE WAS UPDATED (50_Sn_atom50.scfp) ****
             **** ENERGY FILE WAS UPDATED (50_Sn_atom50.en.tmp) ****
             **** THE GBW FILE WAS UPDATED (50_Sn_atom50.gbw) ****
             **** DENSITY FILE WAS UPDATED (50_Sn_atom50.scfp) ****
----------------
ORBITAL ENERGIES
----------------

  NO   OCC          E(Eh)            E(eV) 
   0   2.0000      -9.980845      -271.5926 
   1   2.0000      -7.806537      -212.4267 
   2   2.0000      -7.806537      -212.4267 
   3   2.0000      -7.801165      -212.2805 
   4   2.0000      -2.471348       -67.2488 
   5   2.0000      -1.532004       -41.6880 
   6   2.0000      -1.532004       -41.6880 
   7   2.0000      -1.514676       -41.2164 
   8   2.0000      -0.411684       -11.2025 
   9   2.0000      -0.179801        -4.8926 
  10   0.6667      -0.230034        -6.2595 
  11   0.6667      -0.230034        -6.2595 
  12   0.6667       0.562492        15.3062 
  13   0.0000       0.151157         4.1132 
  14   0.0000       0.151157         4.1132 
  15   0.0000       0.174196         4.7401 
  16   0.0000      31.497230       857.0832 
  17   0.0000      32.140216       874.5797 
  18   0.0000      32.140216       874.5797 
  19   0.0000      32.142513       874.6422 
  20   0.0000     108.560569      2954.0833 
CleanUpVectors: The p-vectors have cracked symmetry
CleanUpVectors: The p-vectors have cracked symmetry
CleanUpVectors: The p-vectors have cracked symmetry
CleanUpVectors: The p-vectors have cracked symmetry
CleanUpVectors: The p-vectors have cracked symmetry
CleanUpVectors: The p-vectors have cracked symmetry
CleanUpVectors: The p-vectors have cracked symmetry
CleanUpVectors: The p-vectors have cracked symmetry
CleanUpVectors: The p-vectors have cracked symmetry
CleanUpVectors: The p-vectors have cracked symmetry
CleanUpVectors: The p-vectors have cracked symmetry
CleanUpVectors: The p-vectors have cracked symmetry
CleanUpVectors: The p-vectors have cracked symmetry
CleanUpVectors: The p-vectors have cracked symmetry
--------------------------
ATOM BASIS FOR ELEMENT Sn
--------------------------
 NewGTO Sn
 S 10
    1       1577.071593100000         0.000348911863
    2        235.266010780000         0.001667852279
    3         38.206330645000        -0.007996215216
    4         13.097031765000         1.090088841442
    5         11.681492759000        -1.156642111253
    6          5.964760436100        -0.572664020827
    7          1.889107074000         1.216500445071
    8          0.885140806300         0.217656004581
    9          0.205001051500         0.002013555941
   10          0.076748551000        -0.000789352088
 P 19
    1        221.557674960000        -0.000222899319
    2         21.084021433000        -0.022277698112
    3          8.760013852100         0.197450493585
    4        221.557674960000         0.000007754670
    5         21.084021433000         0.000775041396
    6          8.760013852100        -0.006869305142
    7        221.557674960000         0.000022037235
    8         21.084021433000         0.002202514003
    9          8.760013852100        -0.019521203438
   10          2.591290972200        -0.488227200777
   11          1.342680115700        -0.528322737987
   12          0.677327358300        -0.201644066202
   13          2.591290972200         0.016985430423
   14          1.342680115700         0.018380354664
   15          0.677327358300         0.007015199586
   16          2.591290972200         0.048269226060
   17          1.342680115700         0.052233324223
   18          0.677327358300         0.019935806525
   19          0.294187567500         0.188361202183
 S 10
    1       1577.071593100000         0.000280665204
    2        235.266010780000         0.001341622771
    3         38.206330645000        -0.006432167017
    4         13.097031765000         0.876869031456
    5         11.681492759000        -0.951051550631
    6          5.964760436100        -0.470874265860
    7          1.889107074000         1.947412710378
    8          0.885140806300        -1.055753487741
    9          0.205001051500        -0.983835630991
   10          0.076748551000         0.222928143897
 P 19
    1        221.557674960000        -0.000014153772
    2         21.084021433000        -0.001414600340
    3          8.760013852100         0.012537809518
    4        221.557674960000        -0.000008889863
    5         21.084021433000        -0.000888498424
    6          8.760013852100         0.007874891363
    7        221.557674960000        -0.000083968012
    8         21.084021433000        -0.008392192587
    9          8.760013852100         0.074381229163
   10          2.591290972200        -0.043532668300
   11          1.342680115700        -0.047107777837
   12          0.677327358300        -0.017979547708
   13          2.591290972200        -0.027342498157
   14          1.342680115700        -0.029587994005
   15          0.677327358300        -0.011292800769
   16          2.591290972200        -0.258259895583
   17          1.342680115700        -0.279469425157
   18          0.677327358300        -0.106664633596
   19          0.294187567500         0.239859086006
 S 10
    1       1577.071593100000         0.002268317183
    2        235.266010780000         0.010842904428
    3         38.206330645000        -0.051984338455
    4         13.097031765000         7.086796159424
    5         11.681492759000        -6.070906238276
    6          5.964760436100        -3.005760850875
    7          1.889107074000         3.350453406189
    8          0.885140806300        -2.089488017869
    9          0.205001051500         0.629974044197
   10          0.076748551000        -0.247451207833
 P 19
    1        221.557674960000        -0.000084412758
    2         21.084021433000        -0.008436642771
    3          8.760013852100         0.074775197643
    4        221.557674960000         0.000003542093
    5         21.084021433000         0.000354014864
    6          8.760013852100        -0.003137685467
    7        221.557674960000         0.000013853730
    8         21.084021433000         0.001384612658
    9          8.760013852100        -0.012272024310
   10          2.591290972200        -0.259627797937
   11          1.342680115700        -0.280949666151
   12          0.677327358300        -0.107229594729
   13          2.591290972200         0.010894392713
   14          1.342680115700         0.011789092000
   15          0.677327358300         0.004499523259
   16          2.591290972200         0.042609832516
   17          1.342680115700         0.046109154394
   18          0.677327358300         0.017598404749
   19          0.294187567500         1.430513881789
 P 19
    1        221.557674960000        -0.000030028739
    2         21.084021433000        -0.003001225761
    3          8.760013852100         0.026600302459
    4        221.557674960000         0.000000749255
    5         21.084021433000         0.000074884333
    6          8.760013852100        -0.000663710786
    7        221.557674960000         0.000000280633
    8         21.084021433000         0.000028047873
    9          8.760013852100        -0.000248592399
   10          2.591290972200        -0.099464911131
   11          1.342680115700        -0.107633442174
   12          0.677327358300        -0.041080277979
   13          2.591290972200         0.002481773824
   14          1.342680115700         0.002685588881
   15          0.677327358300         0.001025004270
   16          2.591290972200         0.000929546604
   17          1.342680115700         0.001005885388
   18          0.677327358300         0.000383914613
   19          0.294187567500         0.932584638080
 P 19
    1        221.557674960000        -0.000032565794
    2         21.084021433000        -0.003254792064
    3          8.760013852100         0.028847697656
    4        221.557674960000        -0.000000622051
    5         21.084021433000        -0.000062170932
    6          8.760013852100         0.000551030051
    7        221.557674960000        -0.000012748855
    8         21.084021433000        -0.001274185815
    9          8.760013852100         0.011293295067
   10          2.591290972200        -0.108605191503
   11          1.342680115700        -0.117524365794
   12          0.677327358300        -0.044855330450
   13          2.591290972200        -0.002074506081
   14          1.342680115700        -0.002244874376
   15          0.677327358300        -0.000856797493
   16          2.591290972200        -0.042516754301
   17          1.342680115700        -0.046008432154
   18          0.677327358300        -0.017559962258
   19          0.294187567500         1.346869739900
 P 19
    1        221.557674960000        -0.001403063244
    2         21.084021433000        -0.140229317308
    3          8.760013852100         1.242872929625
    4        221.557674960000         0.000081312797
    5         21.084021433000         0.008126816840
    6          8.760013852100        -0.072029165146
    7        221.557674960000         0.000434428304
    8         21.084021433000         0.043418986820
    9          8.760013852100        -0.384828824571
   10          2.591290972200        -0.248102231613
   11          1.342680115700        -0.268477565564
   12          0.677327358300        -0.102469388712
   13          2.591290972200         0.014378458319
   14          1.342680115700         0.015559285625
   15          0.677327358300         0.005938486828
   16          2.591290972200         0.076819510579
   17          1.342680115700         0.083128293744
   18          0.677327358300         0.031727438480
   19          0.294187567500         0.410843301113
 end
  // -----------------------------------------------
  // The basis set
  // -----------------------------------------------
  BAS[ATNO] = new BFNGauss[NSH];
  // Basis function   1 L = s
  InitBFNGauss(BAS[ATNO][  0]);
  BAS[ATNO][  0].l  = 0;
  BAS[ATNO][  0].ng = 10;
  BAS[ATNO][  0].a[  0] =      1577.071593100000;     BAS[ATNO][  0].d[  0] =         0.000348911863;
  BAS[ATNO][  0].a[  1] =       235.266010780000;     BAS[ATNO][  0].d[  1] =         0.001667852279;
  BAS[ATNO][  0].a[  2] =        38.206330645000;     BAS[ATNO][  0].d[  2] =        -0.007996215216;
  BAS[ATNO][  0].a[  3] =        13.097031765000;     BAS[ATNO][  0].d[  3] =         1.090088841442;
  BAS[ATNO][  0].a[  4] =        11.681492759000;     BAS[ATNO][  0].d[  4] =        -1.156642111253;
  BAS[ATNO][  0].a[  5] =         5.964760436100;     BAS[ATNO][  0].d[  5] =        -0.572664020827;
  BAS[ATNO][  0].a[  6] =         1.889107074000;     BAS[ATNO][  0].d[  6] =         1.216500445071;
  BAS[ATNO][  0].a[  7] =         0.885140806300;     BAS[ATNO][  0].d[  7] =         0.217656004581;
  BAS[ATNO][  0].a[  8] =         0.205001051500;     BAS[ATNO][  0].d[  8] =         0.002013555941;
  BAS[ATNO][  0].a[  9] =         0.076748551000;     BAS[ATNO][  0].d[  9] =        -0.000789352088;

  // Basis function   2 L = p
  InitBFNGauss(BAS[ATNO][  1]);
  BAS[ATNO][  1].l  = 1;
  BAS[ATNO][  1].ng = 19;
  BAS[ATNO][  1].a[  0] =       221.557674960000;     BAS[ATNO][  1].d[  0] =         0.000222899319;
  BAS[ATNO][  1].a[  1] =        21.084021433000;     BAS[ATNO][  1].d[  1] =         0.022277698112;
  BAS[ATNO][  1].a[  2] =         8.760013852100;     BAS[ATNO][  1].d[  2] =        -0.197450493585;
  BAS[ATNO][  1].a[  3] =       221.557674960000;     BAS[ATNO][  1].d[  3] =        -0.000007754670;
  BAS[ATNO][  1].a[  4] =        21.084021433000;     BAS[ATNO][  1].d[  4] =        -0.000775041396;
  BAS[ATNO][  1].a[  5] =         8.760013852100;     BAS[ATNO][  1].d[  5] =         0.006869305142;
  BAS[ATNO][  1].a[  6] =       221.557674960000;     BAS[ATNO][  1].d[  6] =        -0.000022037235;
  BAS[ATNO][  1].a[  7] =        21.084021433000;     BAS[ATNO][  1].d[  7] =        -0.002202514003;
  BAS[ATNO][  1].a[  8] =         8.760013852100;     BAS[ATNO][  1].d[  8] =         0.019521203438;
  BAS[ATNO][  1].a[  9] =         2.591290972200;     BAS[ATNO][  1].d[  9] =         0.488227200777;
  BAS[ATNO][  1].a[ 10] =         1.342680115700;     BAS[ATNO][  1].d[ 10] =         0.528322737987;
  BAS[ATNO][  1].a[ 11] =         0.677327358300;     BAS[ATNO][  1].d[ 11] =         0.201644066202;
  BAS[ATNO][  1].a[ 12] =         2.591290972200;     BAS[ATNO][  1].d[ 12] =        -0.016985430423;
  BAS[ATNO][  1].a[ 13] =         1.342680115700;     BAS[ATNO][  1].d[ 13] =        -0.018380354664;
  BAS[ATNO][  1].a[ 14] =         0.677327358300;     BAS[ATNO][  1].d[ 14] =        -0.007015199586;
  BAS[ATNO][  1].a[ 15] =         2.591290972200;     BAS[ATNO][  1].d[ 15] =        -0.048269226060;
  BAS[ATNO][  1].a[ 16] =         1.342680115700;     BAS[ATNO][  1].d[ 16] =        -0.052233324223;
  BAS[ATNO][  1].a[ 17] =         0.677327358300;     BAS[ATNO][  1].d[ 17] =        -0.019935806525;
  BAS[ATNO][  1].a[ 18] =         0.294187567500;     BAS[ATNO][  1].d[ 18] =        -0.188361202183;

  // Basis function   3 L = s
  InitBFNGauss(BAS[ATNO][  2]);
  BAS[ATNO][  2].l  = 0;
  BAS[ATNO][  2].ng = 10;
  BAS[ATNO][  2].a[  0] =      1577.071593100000;     BAS[ATNO][  2].d[  0] =         0.000280665204;
  BAS[ATNO][  2].a[  1] =       235.266010780000;     BAS[ATNO][  2].d[  1] =         0.001341622771;
  BAS[ATNO][  2].a[  2] =        38.206330645000;     BAS[ATNO][  2].d[  2] =        -0.006432167017;
  BAS[ATNO][  2].a[  3] =        13.097031765000;     BAS[ATNO][  2].d[  3] =         0.876869031456;
  BAS[ATNO][  2].a[  4] =        11.681492759000;     BAS[ATNO][  2].d[  4] =        -0.951051550631;
  BAS[ATNO][  2].a[  5] =         5.964760436100;     BAS[ATNO][  2].d[  5] =        -0.470874265860;
  BAS[ATNO][  2].a[  6] =         1.889107074000;     BAS[ATNO][  2].d[  6] =         1.947412710378;
  BAS[ATNO][  2].a[  7] =         0.885140806300;     BAS[ATNO][  2].d[  7] =        -1.055753487741;
  BAS[ATNO][  2].a[  8] =         0.205001051500;     BAS[ATNO][  2].d[  8] =        -0.983835630991;
  BAS[ATNO][  2].a[  9] =         0.076748551000;     BAS[ATNO][  2].d[  9] =         0.222928143897;

  // Basis function   4 L = p
  InitBFNGauss(BAS[ATNO][  3]);
  BAS[ATNO][  3].l  = 1;
  BAS[ATNO][  3].ng = 19;
  BAS[ATNO][  3].a[  0] =       221.557674960000;     BAS[ATNO][  3].d[  0] =         0.000014153772;
  BAS[ATNO][  3].a[  1] =        21.084021433000;     BAS[ATNO][  3].d[  1] =         0.001414600340;
  BAS[ATNO][  3].a[  2] =         8.760013852100;     BAS[ATNO][  3].d[  2] =        -0.012537809518;
  BAS[ATNO][  3].a[  3] =       221.557674960000;     BAS[ATNO][  3].d[  3] =         0.000008889863;
  BAS[ATNO][  3].a[  4] =        21.084021433000;     BAS[ATNO][  3].d[  4] =         0.000888498424;
  BAS[ATNO][  3].a[  5] =         8.760013852100;     BAS[ATNO][  3].d[  5] =        -0.007874891363;
  BAS[ATNO][  3].a[  6] =       221.557674960000;     BAS[ATNO][  3].d[  6] =         0.000083968012;
  BAS[ATNO][  3].a[  7] =        21.084021433000;     BAS[ATNO][  3].d[  7] =         0.008392192587;
  BAS[ATNO][  3].a[  8] =         8.760013852100;     BAS[ATNO][  3].d[  8] =        -0.074381229163;
  BAS[ATNO][  3].a[  9] =         2.591290972200;     BAS[ATNO][  3].d[  9] =         0.043532668300;
  BAS[ATNO][  3].a[ 10] =         1.342680115700;     BAS[ATNO][  3].d[ 10] =         0.047107777837;
  BAS[ATNO][  3].a[ 11] =         0.677327358300;     BAS[ATNO][  3].d[ 11] =         0.017979547708;
  BAS[ATNO][  3].a[ 12] =         2.591290972200;     BAS[ATNO][  3].d[ 12] =         0.027342498157;
  BAS[ATNO][  3].a[ 13] =         1.342680115700;     BAS[ATNO][  3].d[ 13] =         0.029587994005;
  BAS[ATNO][  3].a[ 14] =         0.677327358300;     BAS[ATNO][  3].d[ 14] =         0.011292800769;
  BAS[ATNO][  3].a[ 15] =         2.591290972200;     BAS[ATNO][  3].d[ 15] =         0.258259895583;
  BAS[ATNO][  3].a[ 16] =         1.342680115700;     BAS[ATNO][  3].d[ 16] =         0.279469425157;
  BAS[ATNO][  3].a[ 17] =         0.677327358300;     BAS[ATNO][  3].d[ 17] =         0.106664633596;
  BAS[ATNO][  3].a[ 18] =         0.294187567500;     BAS[ATNO][  3].d[ 18] =        -0.239859086006;

  // Basis function   5 L = s
  InitBFNGauss(BAS[ATNO][  4]);
  BAS[ATNO][  4].l  = 0;
  BAS[ATNO][  4].ng = 10;
  BAS[ATNO][  4].a[  0] =      1577.071593100000;     BAS[ATNO][  4].d[  0] =         0.002268317183;
  BAS[ATNO][  4].a[  1] =       235.266010780000;     BAS[ATNO][  4].d[  1] =         0.010842904428;
  BAS[ATNO][  4].a[  2] =        38.206330645000;     BAS[ATNO][  4].d[  2] =        -0.051984338455;
  BAS[ATNO][  4].a[  3] =        13.097031765000;     BAS[ATNO][  4].d[  3] =         7.086796159424;
  BAS[ATNO][  4].a[  4] =        11.681492759000;     BAS[ATNO][  4].d[  4] =        -6.070906238276;
  BAS[ATNO][  4].a[  5] =         5.964760436100;     BAS[ATNO][  4].d[  5] =        -3.005760850875;
  BAS[ATNO][  4].a[  6] =         1.889107074000;     BAS[ATNO][  4].d[  6] =         3.350453406189;
  BAS[ATNO][  4].a[  7] =         0.885140806300;     BAS[ATNO][  4].d[  7] =        -2.089488017869;
  BAS[ATNO][  4].a[  8] =         0.205001051500;     BAS[ATNO][  4].d[  8] =         0.629974044197;
  BAS[ATNO][  4].a[  9] =         0.076748551000;     BAS[ATNO][  4].d[  9] =        -0.247451207833;

  // Basis function   6 L = p
  InitBFNGauss(BAS[ATNO][  5]);
  BAS[ATNO][  5].l  = 1;
  BAS[ATNO][  5].ng = 19;
  BAS[ATNO][  5].a[  0] =       221.557674960000;     BAS[ATNO][  5].d[  0] =        -0.000084412758;
  BAS[ATNO][  5].a[  1] =        21.084021433000;     BAS[ATNO][  5].d[  1] =        -0.008436642771;
  BAS[ATNO][  5].a[  2] =         8.760013852100;     BAS[ATNO][  5].d[  2] =         0.074775197643;
  BAS[ATNO][  5].a[  3] =       221.557674960000;     BAS[ATNO][  5].d[  3] =         0.000003542093;
  BAS[ATNO][  5].a[  4] =        21.084021433000;     BAS[ATNO][  5].d[  4] =         0.000354014864;
  BAS[ATNO][  5].a[  5] =         8.760013852100;     BAS[ATNO][  5].d[  5] =        -0.003137685467;
  BAS[ATNO][  5].a[  6] =       221.557674960000;     BAS[ATNO][  5].d[  6] =         0.000013853730;
  BAS[ATNO][  5].a[  7] =        21.084021433000;     BAS[ATNO][  5].d[  7] =         0.001384612658;
  BAS[ATNO][  5].a[  8] =         8.760013852100;     BAS[ATNO][  5].d[  8] =        -0.012272024310;
  BAS[ATNO][  5].a[  9] =         2.591290972200;     BAS[ATNO][  5].d[  9] =        -0.259627797937;
  BAS[ATNO][  5].a[ 10] =         1.342680115700;     BAS[ATNO][  5].d[ 10] =        -0.280949666151;
  BAS[ATNO][  5].a[ 11] =         0.677327358300;     BAS[ATNO][  5].d[ 11] =        -0.107229594729;
  BAS[ATNO][  5].a[ 12] =         2.591290972200;     BAS[ATNO][  5].d[ 12] =         0.010894392713;
  BAS[ATNO][  5].a[ 13] =         1.342680115700;     BAS[ATNO][  5].d[ 13] =         0.011789092000;
  BAS[ATNO][  5].a[ 14] =         0.677327358300;     BAS[ATNO][  5].d[ 14] =         0.004499523259;
  BAS[ATNO][  5].a[ 15] =         2.591290972200;     BAS[ATNO][  5].d[ 15] =         0.042609832516;
  BAS[ATNO][  5].a[ 16] =         1.342680115700;     BAS[ATNO][  5].d[ 16] =         0.046109154394;
  BAS[ATNO][  5].a[ 17] =         0.677327358300;     BAS[ATNO][  5].d[ 17] =         0.017598404749;
  BAS[ATNO][  5].a[ 18] =         0.294187567500;     BAS[ATNO][  5].d[ 18] =         1.430513881789;

  // Basis function   7 L = p
  InitBFNGauss(BAS[ATNO][  6]);
  BAS[ATNO][  6].l  = 1;
  BAS[ATNO][  6].ng = 19;
  BAS[ATNO][  6].a[  0] =       221.557674960000;     BAS[ATNO][  6].d[  0] =        -0.000030028739;
  BAS[ATNO][  6].a[  1] =        21.084021433000;     BAS[ATNO][  6].d[  1] =        -0.003001225761;
  BAS[ATNO][  6].a[  2] =         8.760013852100;     BAS[ATNO][  6].d[  2] =         0.026600302459;
  BAS[ATNO][  6].a[  3] =       221.557674960000;     BAS[ATNO][  6].d[  3] =         0.000000749255;
  BAS[ATNO][  6].a[  4] =        21.084021433000;     BAS[ATNO][  6].d[  4] =         0.000074884333;
  BAS[ATNO][  6].a[  5] =         8.760013852100;     BAS[ATNO][  6].d[  5] =        -0.000663710786;
  BAS[ATNO][  6].a[  6] =       221.557674960000;     BAS[ATNO][  6].d[  6] =         0.000000280633;
  BAS[ATNO][  6].a[  7] =        21.084021433000;     BAS[ATNO][  6].d[  7] =         0.000028047873;
  BAS[ATNO][  6].a[  8] =         8.760013852100;     BAS[ATNO][  6].d[  8] =        -0.000248592399;
  BAS[ATNO][  6].a[  9] =         2.591290972200;     BAS[ATNO][  6].d[  9] =        -0.099464911131;
  BAS[ATNO][  6].a[ 10] =         1.342680115700;     BAS[ATNO][  6].d[ 10] =        -0.107633442174;
  BAS[ATNO][  6].a[ 11] =         0.677327358300;     BAS[ATNO][  6].d[ 11] =        -0.041080277979;
  BAS[ATNO][  6].a[ 12] =         2.591290972200;     BAS[ATNO][  6].d[ 12] =         0.002481773824;
  BAS[ATNO][  6].a[ 13] =         1.342680115700;     BAS[ATNO][  6].d[ 13] =         0.002685588881;
  BAS[ATNO][  6].a[ 14] =         0.677327358300;     BAS[ATNO][  6].d[ 14] =         0.001025004270;
  BAS[ATNO][  6].a[ 15] =         2.591290972200;     BAS[ATNO][  6].d[ 15] =         0.000929546604;
  BAS[ATNO][  6].a[ 16] =         1.342680115700;     BAS[ATNO][  6].d[ 16] =         0.001005885388;
  BAS[ATNO][  6].a[ 17] =         0.677327358300;     BAS[ATNO][  6].d[ 17] =         0.000383914613;
  BAS[ATNO][  6].a[ 18] =         0.294187567500;     BAS[ATNO][  6].d[ 18] =         0.932584638080;

  // Basis function   8 L = p
  InitBFNGauss(BAS[ATNO][  7]);
  BAS[ATNO][  7].l  = 1;
  BAS[ATNO][  7].ng = 19;
  BAS[ATNO][  7].a[  0] =       221.557674960000;     BAS[ATNO][  7].d[  0] =        -0.000032565794;
  BAS[ATNO][  7].a[  1] =        21.084021433000;     BAS[ATNO][  7].d[  1] =        -0.003254792064;
  BAS[ATNO][  7].a[  2] =         8.760013852100;     BAS[ATNO][  7].d[  2] =         0.028847697656;
  BAS[ATNO][  7].a[  3] =       221.557674960000;     BAS[ATNO][  7].d[  3] =        -0.000000622051;
  BAS[ATNO][  7].a[  4] =        21.084021433000;     BAS[ATNO][  7].d[  4] =        -0.000062170932;
  BAS[ATNO][  7].a[  5] =         8.760013852100;     BAS[ATNO][  7].d[  5] =         0.000551030051;
  BAS[ATNO][  7].a[  6] =       221.557674960000;     BAS[ATNO][  7].d[  6] =        -0.000012748855;
  BAS[ATNO][  7].a[  7] =        21.084021433000;     BAS[ATNO][  7].d[  7] =        -0.001274185815;
  BAS[ATNO][  7].a[  8] =         8.760013852100;     BAS[ATNO][  7].d[  8] =         0.011293295067;
  BAS[ATNO][  7].a[  9] =         2.591290972200;     BAS[ATNO][  7].d[  9] =        -0.108605191503;
  BAS[ATNO][  7].a[ 10] =         1.342680115700;     BAS[ATNO][  7].d[ 10] =        -0.117524365794;
  BAS[ATNO][  7].a[ 11] =         0.677327358300;     BAS[ATNO][  7].d[ 11] =        -0.044855330450;
  BAS[ATNO][  7].a[ 12] =         2.591290972200;     BAS[ATNO][  7].d[ 12] =        -0.002074506081;
  BAS[ATNO][  7].a[ 13] =         1.342680115700;     BAS[ATNO][  7].d[ 13] =        -0.002244874376;
  BAS[ATNO][  7].a[ 14] =         0.677327358300;     BAS[ATNO][  7].d[ 14] =        -0.000856797493;
  BAS[ATNO][  7].a[ 15] =         2.591290972200;     BAS[ATNO][  7].d[ 15] =        -0.042516754301;
  BAS[ATNO][  7].a[ 16] =         1.342680115700;     BAS[ATNO][  7].d[ 16] =        -0.046008432154;
  BAS[ATNO][  7].a[ 17] =         0.677327358300;     BAS[ATNO][  7].d[ 17] =        -0.017559962258;
  BAS[ATNO][  7].a[ 18] =         0.294187567500;     BAS[ATNO][  7].d[ 18] =         1.346869739900;

  // Basis function   9 L = p
  InitBFNGauss(BAS[ATNO][  8]);
  BAS[ATNO][  8].l  = 1;
  BAS[ATNO][  8].ng = 19;
  BAS[ATNO][  8].a[  0] =       221.557674960000;     BAS[ATNO][  8].d[  0] =        -0.001403063244;
  BAS[ATNO][  8].a[  1] =        21.084021433000;     BAS[ATNO][  8].d[  1] =        -0.140229317308;
  BAS[ATNO][  8].a[  2] =         8.760013852100;     BAS[ATNO][  8].d[  2] =         1.242872929625;
  BAS[ATNO][  8].a[  3] =       221.557674960000;     BAS[ATNO][  8].d[  3] =         0.000081312797;
  BAS[ATNO][  8].a[  4] =        21.084021433000;     BAS[ATNO][  8].d[  4] =         0.008126816840;
  BAS[ATNO][  8].a[  5] =         8.760013852100;     BAS[ATNO][  8].d[  5] =        -0.072029165146;
  BAS[ATNO][  8].a[  6] =       221.557674960000;     BAS[ATNO][  8].d[  6] =         0.000434428304;
  BAS[ATNO][  8].a[  7] =        21.084021433000;     BAS[ATNO][  8].d[  7] =         0.043418986820;
  BAS[ATNO][  8].a[  8] =         8.760013852100;     BAS[ATNO][  8].d[  8] =        -0.384828824571;
  BAS[ATNO][  8].a[  9] =         2.591290972200;     BAS[ATNO][  8].d[  9] =        -0.248102231613;
  BAS[ATNO][  8].a[ 10] =         1.342680115700;     BAS[ATNO][  8].d[ 10] =        -0.268477565564;
  BAS[ATNO][  8].a[ 11] =         0.677327358300;     BAS[ATNO][  8].d[ 11] =        -0.102469388712;
  BAS[ATNO][  8].a[ 12] =         2.591290972200;     BAS[ATNO][  8].d[ 12] =         0.014378458319;
  BAS[ATNO][  8].a[ 13] =         1.342680115700;     BAS[ATNO][  8].d[ 13] =         0.015559285625;
  BAS[ATNO][  8].a[ 14] =         0.677327358300;     BAS[ATNO][  8].d[ 14] =         0.005938486828;
  BAS[ATNO][  8].a[ 15] =         2.591290972200;     BAS[ATNO][  8].d[ 15] =         0.076819510579;
  BAS[ATNO][  8].a[ 16] =         1.342680115700;     BAS[ATNO][  8].d[ 16] =         0.083128293744;
  BAS[ATNO][  8].a[ 17] =         0.677327358300;     BAS[ATNO][  8].d[ 17] =         0.031727438480;
  BAS[ATNO][  8].a[ 18] =         0.294187567500;     BAS[ATNO][  8].d[ 18] =         0.410843301113;

-------------------------------------------
RADIAL EXPECTATION VALUES <R**-3> TO <R**3>
-------------------------------------------
   0 :     0.000000     2.125079     1.389690     0.783369     0.665296     0.610694
   1 :     2.947660     1.826368     1.281321     0.861803     0.825021     0.939160
   2 :     2.947660     1.826368     1.281321     0.861803     0.825021     0.939160
   3 :     2.948603     1.826713     1.281437     0.861732     0.824931     0.939323
   4 :     0.000000     0.748190     0.745923     1.621289     3.000661     6.263058
   5 :     0.444942     0.402317     0.560116     2.035351     4.559057    11.527697
   6 :     0.000000     0.188204     0.336399     3.679652    15.034309    66.064553
   7 :     0.000000     0.676433     0.626074     2.575573     9.234762    40.415361
   8 :     0.000000     9.451292     2.483581     0.559514     0.581023     1.339687
   9 :     0.444942     0.402317     0.560116     2.035351     4.559057    11.527697
  10 :     0.447499     0.403856     0.561165     2.031727     4.544454    11.490045
  11 :     0.053015     0.079624     0.245131     4.603641    23.032730   124.152345
  12 :     0.058828     0.084640     0.251303     4.504453    22.050647   116.244320
  13 :     0.058828     0.084640     0.251303     4.504453    22.050647   116.244320
  14 :     0.065405     0.079329     0.223327     5.606795    35.728365   246.762095
  15 :     0.065405     0.079329     0.223327     5.606795    35.728365   246.762095
  16 :     0.068670     0.082730     0.228407     5.511238    34.760697   238.889957
  17 :    45.840456    10.471510     2.953440     0.448207     0.412401     1.213216
  18 :    45.840456    10.471510     2.953440     0.448207     0.412401     1.213216
  19 :    45.839505    10.471241     2.953366     0.448271     0.412679     1.214818
  20 :     0.000000    84.551271     7.192464     0.204417     0.088399     0.140695
Making the total density                ... o.k.
o.k.
Initializing the integrals              ... done
Making exponents                        ... done
Making rho(0)                           ... done (         0.126906940)
Integral calculation                    ... Two index integrals                     ... done
Solving the equation system             ... done
atomic density will be written to file 50_Sn_atom50.adf

-------
TIMINGS
-------

Total SCF time: 0 days 0 hours 0 min 0 sec 

Total time                  ....       0.586 sec
Sum of individual times     ....       0.199 sec  ( 34.1%)

Fock matrix formation       ....       0.140 sec  ( 23.9%)
Diagonalization             ....       0.025 sec  (  4.3%)
Density matrix formation    ....       0.000 sec  (  0.0%)
Population analysis         ....       0.000 sec  (  0.0%)
Initial guess               ....       0.000 sec  (  0.0%)
Orbital Transformation      ....       0.000 sec  (  0.0%)
Orbital Orthonormalization  ....       0.000 sec  (  0.0%)
DIIS solution               ....       0.034 sec  (  5.8%)

-------------------------   --------------------
FINAL SINGLE POINT ENERGY      -188.876728764354
-------------------------   --------------------


                            ***************************************
                            *     ORCA property calculations      *
                            ***************************************

                                    ---------------------
                                    Active property flags
                                    ---------------------
   (+) Dipole Moment


------------------------------------------------------------------------------
                       ORCA ELECTRIC PROPERTIES CALCULATION
------------------------------------------------------------------------------

Dipole Moment Calculation                       ... on
Quadrupole Moment Calculation                   ... off
Polarizability Calculation                      ... off
GBWName                                         ... 50_Sn_atom50.gbw
Electron density file                           ... 50_Sn_atom50.scfp
The origin for moment calculation is the CENTER OF MASS  = ( 0.000000,  0.000000  0.000000)

-------------
DIPOLE MOMENT
-------------
                                X             Y             Z
Electronic contribution:      0.00000       0.00000      -0.00000
Nuclear contribution   :      0.00000       0.00000       0.00000
                        -----------------------------------------
Total Dipole Moment    :      0.00000       0.00000      -0.00000
                        -----------------------------------------
Magnitude (a.u.)       :      0.00000
Magnitude (Debye)      :      0.00000



--------------------
Rotational spectrum 
--------------------
 
Rotational constants in cm-1:     0.000000     0.000000     0.000000 
Rotational constants in MHz :     0.000000     0.000000     0.000000 

 Dipole components along the rotational axes: 
x,y,z [a.u.] :     0.000000     0.000000    -0.000000 
x,y,z [Debye]:     0.000000     0.000000    -0.000000 

 

Timings for individual modules:

Sum of individual times         ...        0.817 sec (=   0.014 min)
GTO integral calculation        ...        0.210 sec (=   0.003 min)  25.7 %
SCF iterations                  ...        0.608 sec (=   0.010 min)  74.3 %
                             ****ORCA TERMINATED NORMALLY****
TOTAL RUN TIME: 0 days 0 hours 0 minutes 1 seconds 25 msec
