
                                 *****************
                                 * O   R   C   A *
                                 *****************

           --- An Ab Initio, DFT and Semiempirical electronic structure package ---

                  #######################################################
                  #                        -***-                        #
                  #          Department of theory and spectroscopy      #
                  #               Directorship: Frank Neese             #
                  #        Max Planck Institute fuer Kohlenforschung    #
                  #                Kaiser Wilhelm Platz 1               #
                  #                 D-45470 Muelheim/Ruhr               #
                  #                      Germany                        #
                  #                                                     #
                  #                  All rights reserved                #
                  #                        -***-                        #
                  #######################################################


                         Program Version 4.2.0 -  RELEASE  -


 With contributions from (in alphabetic order):
   Daniel Aravena         : Magnetic Suceptibility
   Michael Atanasov       : Ab Initio Ligand Field Theory (pilot matlab implementation)
   Alexander A. Auer      : GIAO ZORA, VPT2
   Ute Becker             : Parallelization
   Giovanni Bistoni       : ED, misc. LED, open-shell LED, HFLED
   Martin Brehm           : Molecular dynamics
   Dmytro Bykov           : SCF Hessian
   Vijay G. Chilkuri      : MRCI spin determinant printing, contributions to CSF-ICE
   Dipayan Datta          : RHF DLPNO-CCSD density
   Achintya Kumar Dutta   : EOM-CC, STEOM-CC
   Dmitry Ganyushin       : Spin-Orbit,Spin-Spin,Magnetic field MRCI
   Miquel Garcia          : C-PCM Hessian, Gaussian charge scheme
   Yang Guo               : DLPNO-NEVPT2, CIM, IAO-localization
   Andreas Hansen         : Spin unrestricted coupled pair/coupled cluster methods
   Benjamin Helmich-Paris : CASSCF linear response (MC-RPA)
   Lee Huntington         : MR-EOM, pCC
   Robert Izsak           : Overlap fitted RIJCOSX, COSX-SCS-MP3, EOM
   Christian Kollmar      : KDIIS, OOCD, Brueckner-CCSD(T), CCSD density
   Simone Kossmann        : Meta GGA functionals, TD-DFT gradient, OOMP2, MP2 Hessian
   Martin Krupicka        : AUTO-CI
   Lucas Lang             : DCDCAS
   Dagmar Lenk            : GEPOL surface, SMD
   Dimitrios Liakos       : Extrapolation schemes; Compound Job, initial MDCI parallelization
   Dimitrios Manganas     : Further ROCIS development; embedding schemes
   Dimitrios Pantazis     : SARC Basis sets
   Taras Petrenko         : DFT Hessian,TD-DFT gradient, ASA, ECA, R-Raman, ABS, FL, XAS/XES, NRVS
   Peter Pinski           : DLPNO-MP2, DLPNO-MP2 Gradient
   Christoph Reimann      : Effective Core Potentials
   Marius Retegan         : Local ZFS, SOC
   Christoph Riplinger    : Optimizer, TS searches, QM/MM, DLPNO-CCSD(T), (RO)-DLPNO pert. Triples
   Tobias Risthaus        : Range-separated hybrids, TD-DFT gradient, RPA, STAB
   Michael Roemelt        : Original ROCIS implementation
   Masaaki Saitow         : Open-shell DLPNO-CCSD energy and density
   Barbara Sandhoefer     : DKH picture change effects
   Avijit Sen             : IP-ROCIS
   Kantharuban Sivalingam : CASSCF convergence, NEVPT2, FIC-MRCI
   Bernardo de Souza      : ESD, SOC TD-DFT
   Georgi Stoychev        : AutoAux, RI-MP2 NMR
   Willem Van den Heuvel  : Paramagnetic NMR
   Boris Wezisla          : Elementary symmetry handling
   Frank Wennmohs         : Technical directorship


 We gratefully acknowledge several colleagues who have allowed us to
 interface, adapt or use parts of their codes:
   Stefan Grimme, W. Hujo, H. Kruse,             : VdW corrections, initial TS optimization,
                  C. Bannwarth                     DFT functionals, gCP, sTDA/sTD-DF
   Ed Valeev, F. Pavosevic, A. Kumar             : LibInt (2-el integral package), F12 methods
   Garnet Chan, S. Sharma, J. Yang, R. Olivares  : DMRG
   Ulf Ekstrom                                   : XCFun DFT Library
   Mihaly Kallay                                 : mrcc  (arbitrary order and MRCC methods)
   Andreas Klamt, Michael Diedenhofen            : otool_cosmo (COSMO solvation model)
   Jiri Pittner, Ondrej Demel                    : Mk-CCSD
   Frank Weinhold                                : gennbo (NPA and NBO analysis)
   Christopher J. Cramer and Donald G. Truhlar   : smd solvation model
   Lars Goerigk                                  : TD-DFT with DH, B97 family of functionals
   V. Asgeirsson, H. Jonsson                     : NEB implementation
   FAccTs GmbH                                   : IRC, NEB, NEB-TS, Multilevel, MM, QM/MM, CI optimization
   S Lehtola, MJT Oliveira, MAL Marques          : LibXC Library


 Your calculation uses the libint2 library for the computation of 2-el integrals
 For citations please refer to: http://libint.valeyev.net

 Your ORCA version has been built with support for libXC version: 4.2.3
 For citations please refer to: https://tddft.org/programs/libxc/

 This ORCA versions uses:
   CBLAS   interface :  Fast vector & matrix operations
   LAPACKE interface :  Fast linear algebra routines
   SCALAPACK package :  Parallel linear algebra routines


Setting NCore(Cs) from 36 to 46
----- Orbital basis set information -----
Your calculation utilizes the basis: def2-TZVP
   F. Weigend and R. Ahlrichs, Phys. Chem. Chem. Phys. 7, 3297 (2005).

cite the ECPs for Cs [Def2-ECP] as follows:
Ce-Yb(ecp-28): M. Dolg, H. Stoll, H.Preuss, J. Chem. Phys., 1989, 90, 1730-1734.
Y-Cd(ecp-28), Hf-Hg(ecp-46): D. Andrae,U. Haeussermann, M. Dolg, H. Stoll, H. Preuss, Theor. Chim. Acta, 1990, 77, 123-141.
In-Sb(ecp-28), Tl-Bi(ecp-46): B. Metz, H. Stoll, M. Dolg, J. Chem. Phys., 2000, 113, 2563-2569.
Te-Xe(ecp-28), Po-Rn(ecp-46): K. A. Peterson, D. Figgen, E. Goll, H. Stoll, M. Dolg, J. Chem. Phys., 2003, 119, 11113-11123.
Rb(ecp-28), Cs(ecp-46): T. Leininger, A. Nicklass, W. Kuechle, H. Stoll, M. Dolg, A. Bergner, Chem. Phys. Lett., 1996, 255, 274-280.
Sr(ecp-28), Ba(ecp-46): M. Kaupp, P. V. Schleyer, H. Stoll and H. Preuss, J. Chem. Phys., 1991, 94, 1360-1366.
La(ecp-46): M. Dolg, H. Stoll, A. Savin, H. Preuss, Theor. Chim. Acta, 1989, 75, 173-194.
Lu(ecp-28): X. Cao, M. Dolg, J. Chem. Phys., 2001, 115, 7348-7355.

ECP parameters for Cs [Def2-ECP] have been obtained from:
TURBOMOLE (7.0.2)

================================================================================
                                        WARNINGS
                       Please study these warnings very carefully!
================================================================================


WARNING: your system is open-shell and RHF/RKS was chosen
  ===> : WILL SWITCH to UHF/UKS


WARNING: MDCI localization with Augmented Hessian Foster-Boys
  ===> : Switching off randomization!

WARNING: Post HF methods need fully converged wavefunctions
  ===> : Setting SCFConvForced true
         You can overwrite this default with %scf ConvForced false 


INFO   : the flag for use of LIBINT has been found!

================================================================================
                                       INPUT FILE
================================================================================
NAME = 55_Cs.in
|  1> #
|  2> # 55_Cs CCSD(T)/Def2-TZVP
|  3> #
|  4> ! CCSD(T) Def2-TZVP tightscf
|  5> 
|  6> *xyz 0 2
|  7>  Cs 0.0 0.0 0.0
|  8> *
|  9> 
| 10> %maxcore 5000 
| 11> 
| 12> %pal
| 13> nprocs 24
| 14> end
| 15> 
| 16> %method
| 17> NewNCore Cs 46 end
| 18> end
| 19> 
| 20> 
| 21>                          ****END OF INPUT****
================================================================================

                       ****************************
                       * Single Point Calculation *
                       ****************************

---------------------------------
CARTESIAN COORDINATES (ANGSTROEM)
---------------------------------
  Cs     0.000000    0.000000    0.000000

----------------------------
CARTESIAN COORDINATES (A.U.)
----------------------------
  NO LB      ZA    FRAG     MASS         X           Y           Z
   0 Cs    9.0000*   0   132.905    0.000000    0.000000    0.000000
* core charge reduced due to ECP

--------------------------------
INTERNAL COORDINATES (ANGSTROEM)
--------------------------------
 Cs     0   0   0     0.000000000000     0.00000000     0.00000000

---------------------------
INTERNAL COORDINATES (A.U.)
---------------------------
 Cs     0   0   0     0.000000000000     0.00000000     0.00000000

---------------------
BASIS SET INFORMATION
---------------------
There are 1 groups of distinct atoms

 Group   1 Type Cs  : 7s6p3d contracted to 5s3p3d pattern {31111/411/111}

Atom   0Cs   basis set group =>   1
-------------------------
ECP PARAMETER INFORMATION
-------------------------

 Group 1, Type Cs ECP Def2-ECP (replacing 46 core electrons, lmax=3)

Atom   0Cs   ECP group =>   1



           ************************************************************
           *        Program running with 24 parallel MPI-processes    *
           *              working on a common directory               *
           ************************************************************
------------------------------------------------------------------------------
                           ORCA GTO INTEGRAL CALCULATION
------------------------------------------------------------------------------

                         BASIS SET STATISTICS AND STARTUP INFO

 # of primitive gaussian shells          ...   16
 # of primitive gaussian functions       ...   40
 # of contracted shells                  ...   11
 # of contracted basis functions         ...   29
 Highest angular momentum                ...    2
 Maximum contraction depth               ...    4
 Integral package used                   ... LIBINT
 Integral threshhold            Thresh   ...  2.500e-11
 Primitive cut-off              TCut     ...  2.500e-12


------------------------------ INTEGRAL EVALUATION ----------------------------


 * One electron integrals 

   ECP integrals                         ... done
 Pre-screening matrix                    ... done
 Shell pair data                         ... done (   0.000 sec)



           ************************************************************
           *        Program running with 24 parallel MPI-processes    *
           *              working on a common directory               *
           ************************************************************
-------------------------------------------------------------------------------
                                 ORCA SCF
-------------------------------------------------------------------------------

------------
SCF SETTINGS
------------
Hamiltonian:
 Ab initio Hamiltonian  Method          .... Hartree-Fock(GTOs)


General Settings:
 Integral files         IntName         .... 55_Cs
 Hartree-Fock type      HFTyp           .... UHF
 Total Charge           Charge          ....    0
 Multiplicity           Mult            ....    2
 Number of Electrons    NEL             ....    9
 Basis Dimension        Dim             ....   29
 Nuclear Repulsion      ENuc            ....      0.0000000000 Eh

Convergence Acceleration:
 DIIS                   CNVDIIS         .... on
   Start iteration      DIISMaxIt       ....    12
   Startup error        DIISStart       ....  0.200000
   # of expansion vecs  DIISMaxEq       ....     5
   Bias factor          DIISBfac        ....   1.050
   Max. coefficient     DIISMaxC        ....  10.000
 Newton-Raphson         CNVNR           .... off
 SOSCF                  CNVSOSCF        .... off
 Level Shifting         CNVShift        .... on
   Level shift para.    LevelShift      ....    0.2500
   Turn off err/grad.   ShiftErr        ....    0.0010
 Zerner damping         CNVZerner       .... off
 Static damping         CNVDamp         .... on
   Fraction old density DampFac         ....    0.7000
   Max. Damping (<1)    DampMax         ....    0.9800
   Min. Damping (>=0)   DampMin         ....    0.0000
   Turn off err/grad.   DampErr         ....    0.1000
 Fernandez-Rico         CNVRico         .... off

SCF Procedure:
 Maximum # iterations   MaxIter         ....   125
 SCF integral mode      SCFMode         .... Direct
   Integral package                     .... LIBINT
 Reset frequency        DirectResetFreq ....    20
 Integral Threshold     Thresh          ....  2.500e-11 Eh
 Primitive CutOff       TCut            ....  2.500e-12 Eh

Convergence Tolerance:
 Convergence Check Mode ConvCheckMode   .... Total+1el-Energy
 Convergence forced     ConvForced      .... 1
 Energy Change          TolE            ....  1.000e-08 Eh
 1-El. energy change                    ....  1.000e-05 Eh
 DIIS Error             TolErr          ....  5.000e-07


Diagonalization of the overlap matrix:
Smallest eigenvalue                        ... 3.102e-02
Time for diagonalization                   ...    0.001 sec
Threshold for overlap eigenvalues          ... 1.000e-08
Number of eigenvalues below threshold      ... 0
Time for construction of square roots      ...    0.107 sec
Total time needed                          ...    0.108 sec

-------------------
DFT GRID GENERATION
-------------------

General Integration Accuracy     IntAcc      ...  4.340
Radial Grid Type                 RadialGrid  ... Gauss-Chebyshev
Angular Grid (max. acc.)         AngularGrid ... Lebedev-110
Angular grid pruning method      GridPruning ... 3 (G Style)
Weight generation scheme         WeightScheme... Becke
Basis function cutoff            BFCut       ...    1.0000e-11
Integration weight cutoff        WCut        ...    1.0000e-14
Grids for H and He will be reduced by one unit

# of grid points (after initial pruning)     ...   3612 (   0.1 sec)
# of grid points (after weights+screening)   ...   3612 (   0.0 sec)
Grid point division into batches done        ...    0.0 sec
Reduced shell lists constructed in    0.0 sec

Total number of grid points                  ...     3612
Total number of batches                      ...       57
Average number of points per batch           ...       63
Average number of grid points per atom       ...     3612
Average number of shells per batch           ...     3.75 (34.09%)
Average number of basis functions per batch  ...    11.25 (38.79%)
Average number of large shells per batch     ...     3.00 (80.00%)
Average number of large basis fcns per batch ...     7.50 (66.67%)
Maximum spatial batch extension              ...  41.59, 64.86, 64.86 au
Average spatial batch extension              ...   2.13,  3.02,  3.41 au

Time for grid setup =    0.164 sec

------------------------------
INITIAL GUESS: MODEL POTENTIAL
------------------------------
Loading Hartree-Fock densities                     ... done
  calling /sw/apps/orca/orca_4_2_0_linux_x86-64_openmpi314/orca 55_Cs_atom55.inp > 55_Cs_atom55.out in order to generate an atomic fitting density for atom 0 (Cs with ECP) on-the-fly... 
    atom 0 (Cs), assumed electronic state with S=2: 1s2 2s2 2p6 3s2 3p6 4s2 3d10 4p6 5s2 4d10 5p6 6s1           ... done
Calculating cut-offs                               ... done
Setting up the integral package                    ... done
Initializing the effective Hamiltonian             ... done
Starting the Coulomb interaction                   ... done (   0.0 sec)
Reading the grid                                   ... done
Mapping shells                                     ... done
Starting the XC term evaluation                    ... done (   0.0 sec)
Transforming the Hamiltonian                       ... done (   0.0 sec)
Diagonalizing the Hamiltonian                      ... done (   0.0 sec)
Back transforming the eigenvectors                 ... done (   0.0 sec)
Now organizing SCF variables                       ... done
                      ------------------
                      INITIAL GUESS DONE (   1.3 sec)
                      ------------------
--------------
SCF ITERATIONS
--------------
ITER       Energy         Delta-E        Max-DP      RMS-DP      [F,P]     Damp
               ***  Starting incremental Fock matrix formation  ***
  0    -19.8112049126   0.000000000000 0.17855819  0.00661891  0.3387166 0.7000
  1    -19.8232475980  -0.012042685449 0.15359672  0.00572528  0.2437690 0.7000
                               ***Turning on DIIS***
  2    -19.8322629441  -0.009015346026 0.11541331  0.00433741  0.1732042 0.7000
  3    -19.8982172839  -0.065954339824 0.08831285  0.00339243  0.1229560 0.7000
  4    -19.9023524642  -0.004135180306 0.21927657  0.00882722  0.0868203 0.0000
  5    -19.8553920750   0.046960389233 0.05098408  0.00146934  0.0019785 0.0000
  6    -19.8576764383  -0.002284363314 0.05166571  0.00145911  0.0016292 0.0000
  7    -19.8577106906  -0.000034252331 0.04190868  0.00117249  0.0012623 0.0000
  8    -19.8594445251  -0.001733834506 0.09051406  0.00253342  0.0009610 0.0000
  9    -19.8584091299   0.001035395182 0.03857804  0.00108838  0.0003007 0.0000
 10    -19.8552779196   0.003131210340 0.00126476  0.00003574  0.0000108 0.0000
 11    -19.8552168604   0.000061059244 0.00028174  0.00000796  0.0000021 0.0000
                            ***DIIS convergence achieved***

               *****************************************************
               *                     SUCCESS                       *
               *           SCF CONVERGED AFTER  12 CYCLES          *
               *****************************************************


----------------
TOTAL SCF ENERGY
----------------

Total Energy       :          -19.85519709 Eh            -540.28738 eV

Components:
Nuclear Repulsion  :            0.00000000 Eh               0.00000 eV
Electronic Energy  :          -19.85519709 Eh            -540.28738 eV
One Electron Energy:          -32.87561643 Eh            -894.59100 eV
Two Electron Energy:           13.02041934 Eh             354.30362 eV

Virial components:
Potential Energy   :          -25.40753116 Eh            -691.37407 eV
Kinetic Energy     :            5.55233407 Eh             151.08669 eV
Virial Ratio       :            4.57600909


---------------
SCF CONVERGENCE
---------------

  Last Energy change         ...    1.9767e-05  Tolerance :   1.0000e-08
  Last MAX-Density change    ...    1.8255e-05  Tolerance :   1.0000e-07
  Last RMS-Density change    ...    5.1841e-07  Tolerance :   5.0000e-09
  Last DIIS Error            ...    1.6366e-07  Tolerance :   5.0000e-07

             **** THE GBW FILE WAS UPDATED (55_Cs.gbw) ****
             **** DENSITY FILE WAS UPDATED (55_Cs.scfp) ****
             **** ENERGY FILE WAS UPDATED (55_Cs.en.tmp) ****
----------------------
UHF SPIN CONTAMINATION
----------------------

Expectation value of <S**2>     :     0.750470
Ideal value S*(S+1) for S=0.5   :     0.750000
Deviation                       :     0.000470

             **** THE GBW FILE WAS UPDATED (55_Cs.gbw) ****
             **** DENSITY FILE WAS UPDATED (55_Cs.scfp) ****
----------------
ORBITAL ENERGIES
----------------
                 SPIN UP ORBITALS
  NO   OCC          E(Eh)            E(eV) 
   0   1.0000      -1.317847       -35.8604 
   1   1.0000      -0.679634       -18.4938 
   2   1.0000      -0.679634       -18.4938 
   3   1.0000      -0.679634       -18.4938 
   4   1.0000      -0.128891        -3.5073 
   5   0.0000       0.015795         0.4298 
   6   0.0000       0.015795         0.4298 
   7   0.0000       0.015795         0.4298 
   8   0.0000       0.043241         1.1766 
   9   0.0000       0.043241         1.1766 
  10   0.0000       0.043241         1.1766 
  11   0.0000       0.043241         1.1766 
  12   0.0000       0.043241         1.1766 
  13   0.0000       0.049765         1.3542 
  14   0.0000       0.130676         3.5559 
  15   0.0000       0.130676         3.5559 
  16   0.0000       0.130676         3.5559 
  17   0.0000       0.130676         3.5559 
  18   0.0000       0.130676         3.5559 
  19   0.0000       0.366875         9.9832 
  20   0.0000       0.366875         9.9832 
  21   0.0000       0.366875         9.9832 
  22   0.0000       0.485698        13.2165 
  23   0.0000       0.485698        13.2165 
  24   0.0000       0.485698        13.2165 
  25   0.0000       0.485698        13.2165 
  26   0.0000       0.485698        13.2165 
  27   0.0000       0.639330        17.3970 
  28   0.0000      20.020883       544.7959 

                 SPIN DOWN ORBITALS
  NO   OCC          E(Eh)            E(eV) 
   0   1.0000      -1.314928       -35.7810 
   1   1.0000      -0.678069       -18.4512 
   2   1.0000      -0.678069       -18.4512 
   3   1.0000      -0.678069       -18.4512 
   4   0.0000       0.008765         0.2385 
   5   0.0000       0.038719         1.0536 
   6   0.0000       0.038719         1.0536 
   7   0.0000       0.038719         1.0536 
   8   0.0000       0.050235         1.3670 
   9   0.0000       0.050235         1.3670 
  10   0.0000       0.050235         1.3670 
  11   0.0000       0.050235         1.3670 
  12   0.0000       0.050235         1.3670 
  13   0.0000       0.073374         1.9966 
  14   0.0000       0.142086         3.8664 
  15   0.0000       0.142086         3.8664 
  16   0.0000       0.142086         3.8664 
  17   0.0000       0.142086         3.8664 
  18   0.0000       0.142086         3.8664 
  19   0.0000       0.385032        10.4773 
  20   0.0000       0.385032        10.4773 
  21   0.0000       0.385032        10.4773 
  22   0.0000       0.488731        13.2990 
  23   0.0000       0.488731        13.2990 
  24   0.0000       0.488731        13.2990 
  25   0.0000       0.488731        13.2990 
  26   0.0000       0.488731        13.2990 
  27   0.0000       0.651271        17.7220 
  28   0.0000      20.021618       544.8159 

                    ********************************
                    * MULLIKEN POPULATION ANALYSIS *
                    ********************************

--------------------------------------------
MULLIKEN ATOMIC CHARGES AND SPIN POPULATIONS
--------------------------------------------
   0 Cs:    0.000000    1.000000
Sum of atomic charges         :    0.0000000
Sum of atomic spin populations:    1.0000000

-----------------------------------------------------
MULLIKEN REDUCED ORBITAL CHARGES AND SPIN POPULATIONS
-----------------------------------------------------
CHARGE
  0 Css       :     3.000000  s :     3.000000
      pz      :     2.000000  p :     6.000000
      px      :     2.000000
      py      :     2.000000
      dz2     :     0.000000  d :     0.000000
      dxz     :     0.000000
      dyz     :     0.000000
      dx2y2   :     0.000000
      dxy     :     0.000000

SPIN
  0 Css       :     1.000000  s :     1.000000
      pz      :     0.000000  p :     0.000000
      px      :    -0.000000
      py      :     0.000000
      dz2     :     0.000000  d :     0.000000
      dxz     :     0.000000
      dyz     :    -0.000000
      dx2y2   :     0.000000
      dxy     :    -0.000000


                     *******************************
                     * LOEWDIN POPULATION ANALYSIS *
                     *******************************

-------------------------------------------
LOEWDIN ATOMIC CHARGES AND SPIN POPULATIONS
-------------------------------------------
   0 Cs:    0.000000    1.000000

----------------------------------------------------
LOEWDIN REDUCED ORBITAL CHARGES AND SPIN POPULATIONS
----------------------------------------------------
CHARGE
  0 Css       :     3.000000  s :     3.000000
      pz      :     2.000000  p :     6.000000
      px      :     2.000000
      py      :     2.000000
      dz2     :     0.000000  d :     0.000000
      dxz     :     0.000000
      dyz     :     0.000000
      dx2y2   :     0.000000
      dxy     :     0.000000

SPIN
  0 Css       :     1.000000  s :     1.000000
      pz      :     0.000000  p :     0.000000
      px      :    -0.000000
      py      :     0.000000
      dz2     :     0.000000  d :     0.000000
      dxz     :     0.000000
      dyz     :    -0.000000
      dx2y2   :     0.000000
      dxy     :    -0.000000


                      *****************************
                      * MAYER POPULATION ANALYSIS *
                      *****************************

  NA   - Mulliken gross atomic population
  ZA   - Total nuclear charge
  QA   - Mulliken gross atomic charge
  VA   - Mayer's total valence
  BVA  - Mayer's bonded valence
  FA   - Mayer's free valence

  ATOM       NA         ZA         QA         VA         BVA        FA
  0 Cs     9.0000     9.0000     0.0000     1.0009     0.0000     1.0009

  Mayer bond orders larger than 0.100000


-------
TIMINGS
-------

Total SCF time: 0 days 0 hours 0 min 9 sec 

Total time                  ....       9.206 sec
Sum of individual times     ....       8.574 sec  ( 93.1%)

Fock matrix formation       ....       1.762 sec  ( 19.1%)
Diagonalization             ....       0.069 sec  (  0.8%)
Density matrix formation    ....       0.002 sec  (  0.0%)
Population analysis         ....       5.165 sec  ( 56.1%)
Initial guess               ....       1.174 sec  ( 12.8%)
Orbital Transformation      ....       0.000 sec  (  0.0%)
Orbital Orthonormalization  ....       0.000 sec  (  0.0%)
DIIS solution               ....       0.239 sec  (  2.6%)


           ************************************************************
           *        Program running with 24 parallel MPI-processes    *
           *              working on a common directory               *
           ************************************************************


------------------------------------------------------------------------------- 
                              ORCA-MATRIX DRIVEN CI                            
------------------------------------------------------------------------------- 

--------------------------------
AUTOMATIC CHOICE OF INCORE LEVEL
--------------------------------

Memory available                           ...   2500.00 MB
Memory needed for S+T                      ...      0.20 MB
Memory needed for J+K                      ...      0.40 MB
Memory needed for DIIS                     ...      2.77 MB
Memory needed for 3-ext                    ...      0.53 MB
Memory needed for 4-ext                    ...      1.32 MB
Memory needed for triples                  ...      0.53 MB
 -> Final InCoreLevel    ... 5
 -> check shows that triples correction can be computed


Wavefunction type
-----------------
Correlation treatment                      ...      CCSD     
Single excitations                         ... ON
Orbital optimization                       ... OFF
Calculation of Z vector                    ... OFF
Calculation of Brueckner orbitals          ... OFF
Perturbative triple excitations            ... ON
Calculation of F12 correction              ... OFF
Frozen core treatment                      ... chemical core (0 el)
Reference Wavefunction                     ... UHF
  Alpha-MOs occ    :     0 ...    4 (  5 MO's/  5 electrons)
  Beta-MOs occ     :     0 ...    3 (  4 MO's/  4 electrons)
  Alpha-MOs virt   :     5 ...   28 ( 24 MO's              )
  Beta-MOs virt    :     4 ...   28 ( 25 MO's              )
Number of AO's                             ...     29
Number of electrons                        ...      9
Number of correlated electrons             ...      9

Algorithmic settings
--------------------
Integral transformation                    ... AO direct full transformation
K(C) Formation                             ... FULL-MO TRAFO
Maximum number of iterations               ...        50
Convergence tolerance (max. residuum)      ... 1.000e-05
Level shift for amplitude update           ... 2.000e-01
Maximum number of DIIS vectors             ...         7
DIIS turned on at iteration                ...         0
Damping before turning on DIIS             ...     0.500
Damping after turning on DIIS              ...     0.000
Pair specific amplitude update             ... OFF
Natural orbital iterations                 ... OFF
Perturbative natural orbital generation    ... OFF
Printlevel                                 ... 2

Memory handling:
----------------
Maximum memory for working arrays          ...   2500 MB
Data storage in matrix containers          ... UNCOMPRESSED
Data type for integral storage             ... DOUBLE
In-Core Storage of quantities:
   Amplitudes+Sigma Vector      ... YES
   J+K operators                ... YES
   DIIS vectors                 ... YES
   3-external integrals         ... YES
   4-external integrals         ... YES


Initializing the integral package          ... done
Warning: reference  - re-canonicalizations have been set to INT 1 VIRT 1

--------------------------
UNRESTRICTED FOCK OPERATOR
--------------------------

<ss|ss>:          120 b            0 skpd (  0.0%)    0.000 s ( 0.000 ms/b)
<ss|sp>:          225 b            0 skpd (  0.0%)    0.000 s ( 0.000 ms/b)
<ss|sd>:          225 b            0 skpd (  0.0%)    0.000 s ( 0.000 ms/b)
<ss|pp>:           90 b            0 skpd (  0.0%)    0.000 s ( 0.001 ms/b)
<ss|pd>:          135 b            0 skpd (  0.0%)    0.000 s ( 0.000 ms/b)
<ss|dd>:           90 b            0 skpd (  0.0%)    0.000 s ( 0.000 ms/b)
<sp|sp>:          120 b            0 skpd (  0.0%)    0.000 s ( 0.001 ms/b)
<sp|sd>:          225 b            0 skpd (  0.0%)    0.000 s ( 0.000 ms/b)
<sp|pp>:           90 b            0 skpd (  0.0%)    0.000 s ( 0.001 ms/b)
<sp|pd>:          135 b            0 skpd (  0.0%)    0.000 s ( 0.001 ms/b)
<sp|dd>: done
<sd|sd>:          120 b            0 skpd (  0.0%)    0.000 s ( 0.000 ms/b)
<sd|pp>:           90 b            0 skpd (  0.0%)    0.000 s ( 0.001 ms/b)
<sd|pd>: done
<sd|dd>: done
<pp|pp>:           21 b            0 skpd (  0.0%)    0.000 s ( 0.007 ms/b)
<pp|pd>:           54 b            0 skpd (  0.0%)    0.000 s ( 0.002 ms/b)
<pp|dd>:           36 b            0 skpd (  0.0%)    0.000 s ( 0.004 ms/b)
<pd|pd>:           45 b            0 skpd (  0.0%)    0.000 s ( 0.005 ms/b)
<pd|dd>: done
<dd|dd>: done
Recanonicalizing the internal orbitals
Recanonicalizing the virtual orbitals
Time needed for Fock operator              ...            0.240 sec
Reference energy                           ...    -19.855195711
Warning: for UHF the TrafoType has to be JK
Warning: for UHF the K(C)-option cannot be MO but must be AOX

-------------------------------
PARTIAL EXCHANGE TRANSFORMATION
-------------------------------

Transformation type                        ... two-operators
Generation of integrals (i,mue|j,nue)      ... ON
Generation of integrals (mue,kappa|nue,tau)... ON
Generation of integrals (i,mue|a,nue)      ... ON
Dimension of the basis                     ...   29
Number of internal alpha-MOs               ...    5 (   0-   4)
Number of internal beta-MOs                ...    4 (   0-   3)
Number of external alpha-MOs               ...   24 (   5-  28)
Number of external beta-MOs                ...   25 (   4-  28)
Pair cutoff                                ... 0.000e+00 Eh
Number of AO pairs in the trafo            ...  435
Total Number of distinct AO pairs          ...  435
Memory devoted for trafo                   ... 2500.0 MB 
Max. Number of MO pairs treated together   ... 389631      
Number Format for Storage                  ... Double (8 Byte)
Integral package used                      ... LIBINT

Starting integral evaluation:
    ... done with AO integral generation
Closing buffer AOK[aa] ( 0.00 GB; CompressionRatio= 0.00)
Closing buffer AOK[bb] ( 0.00 GB; CompressionRatio= 0.00)
Closing buffer AOK[ab] ( 0.00 GB; CompressionRatio= 0.00)
Closing buffer AOK[ba] ( 0.00 GB; CompressionRatio= 0.00)
Collecting buffer AOK 
Closing buffer IAAO1[aa] ( 0.00 GB; CompressionRatio= 0.00)
Closing buffer IAAO1[bb] ( 0.00 GB; CompressionRatio= 0.00)
Closing buffer IAAO1[ab] ( 0.00 GB; CompressionRatio= 0.00)
Closing buffer IAAO1[ba] ( 0.00 GB; CompressionRatio= 0.00)
Closing buffer IAAO2[aa] ( 0.00 GB; CompressionRatio= 0.00)
Closing buffer IAAO2[bb] ( 0.00 GB; CompressionRatio= 0.00)
Closing buffer IAAO2[ab] ( 0.00 GB; CompressionRatio= 0.00)
Closing buffer IAAO2[ba] ( 0.00 GB; CompressionRatio= 0.00)
Collecting buffer IAAO 
Closing buffer PRQS    ( 0.00 GB; CompressionRatio= 0.00)
Collecting buffer PRQS 
Number of alpha/alpha MO pairs in trafo    ...   15
Number of beta /beta  MO pairs in trafo    ...   10
Number of alpha/ beta MO pairs in trafo    ...   20
------------------------
SORTING OF (i,mue|j,nue)
------------------------

SORTING OF ALPHA/ALPHA PAIRS
IBATCH = 1 of  1
Closing buffer KAO[aa] ( 0.00 GB; CompressionRatio= 1.00)
Collecting buffer KAO 
SORTING OF BETA /BETA  PAIRS
IBATCH = 1 of  1
Closing buffer KAO[bb] ( 0.00 GB; CompressionRatio= 1.00)
Collecting buffer KAO 
SORTING OF ALPHA/BETA  PAIRS
IBATCH = 1 of  1
Closing buffer KAO[ab] ( 0.00 GB; CompressionRatio= 0.998219584570)
Collecting buffer KAO[ab] 
------------------------
SORTING OF (i,mue|a,nue)
------------------------

Number of alpha/alpha (i,a) pairs in trafo  ...  120
Number of beta /beta  (i,a) pairs in trafo  ...  100
Number of alpha/ beta (i,a) pairs in trafo  ...  125
Number of beta /alpha (i,a) pairs in trafo  ...   96
Setting up the alpha/alpha list             ... done
Setting up the beta /beta  list             ... done
Setting up the alpha/beta  list             ... done
Setting up the beta /alpha list             ... done
    ... Now sorting (i,mue|a,nue)integrals
    ... Integrals (i,b|a,c) will be made on the fly
SORTING OF ALPHA/ALPHA PAIRS
IBATCH = 1 of  1
Closing buffer IPAQ[aa]  0.00 GB; CompressionRatio= 1.00)
SORTING OF BETA /BETA  PAIRS
IBATCH = 1 of  1
Closing buffer IPAQ[bb]( 0.00 GB; CompressionRatio= 1.00)
SORTING OF ALPHA/BETA  PAIRS (NMatSort_ab=6)
IBATCH = 1 of  1
Closing buffer IPAQ[ab]( 0.00 GB; CompressionRatio= 1.00)
SORTING OF BETA/ALPHA  PAIRS
IBATCH = 1 of  1
Closing buffer IPAQ[ba]( 0.00 GB; CompressionRatio= 1.00)
N(AO-Batches) Done                         ...         0 
N(AO-Batches) Skipped                      ...         0 
N(IJ)-pairs Skipped                        ...         0 
TOTAL TIME for half transformation         ...     1.592 sec
AO-integral generation                     ...     0.000 sec
Half transformation                        ...     0.000 sec
K-integral sorting                         ...     0.685 sec
<ss|**>: 
------------------------------
PARTIAL COULOMB TRANSFORMATION
------------------------------

Transformation type                        ... two-operators
Dimension of the basis                     ...   29
Number of internal alpha-MOs               ...    5 (0-4)
Number of internal beta-MOs                ...    4 (0-3)
Pair cutoff                                ... 0.000e+00 Eh
Number of AO pairs included in the trafo   ...  435
Total Number of distinct AO pairs          ...  435
Memory devoted for trafo                   ... 2500.0 MB 
Max. Number of MO pairs treated together   ... 753287      
Max. Number of MOs treated per batch       ... 25975      
Number Format for Storage                  ... Double (8 Byte)
AO-integral source                         ... DIRECT
Integral package used                      ... LIBINT

Starting integral evaluation:
<sp|**>:          990 b        0 skpd     0.001 s (  0.001 ms/b)
<sd|**>:          990 b        0 skpd     0.006 s (  0.006 ms/b)
<pp|**>:          990 b        0 skpd     0.011 s (  0.011 ms/b)
         396 b        0 skpd     0.008 s (  0.019 ms/b)
<pd|**>:          594 b        0 skpd     0.028 s (  0.048 ms/b)
<dd|**>:          396 b        0 skpd     0.021 s (  0.054 ms/b)
Closing buffer AOJ[aa] ( 0.00 GB; CompressionRatio= 0.91)
Closing buffer AOJ[bb] ( 0.00 GB; CompressionRatio= 0.00)
Collecting buffer AOJ 
    ... done with AO integral generation
Number of Alpha-MO pairs included          ...   15
Number of Beta-MO pairs included           ...   10
    ... Now sorting integrals
SORTING ALPHA/ALPHA PAIRS
IBATCH = 1 of  1
Closing buffer JAO[aa] ( 0.00 GB; CompressionRatio= 1.00)
SORTING BETA/BETA PAIRS
IBATCH = 1 of  1
Closing buffer JAO[bb] ( 0.00 GB; CompressionRatio= 1.00)
Collecting buffer JAO 
TOTAL TIME for half transformation         ...     0.306 sec
AO-integral generation                     ...     0.029 sec
Half transformation                        ...     0.047 sec
J-integral sorting                         ...     0.094 sec

-------------------------- SECOND HALF TRANSFORMATION -------------------------
Formation of (ij|kl),(ij|ka), (ij|ab)      ... ok (     0.133 sec)
Formation of (ik|jl),(ik|ja), (ia|jb)      ... ok (     0.205 sec)


-----------------------
SPIN UNRESTRICTED GUESS
-----------------------

Entering MDCI_UHF_Guess, Tailored=0
Spin-components of the MP2 energy:
EMP2(aa)=     -0.018483644
EMP2(bb)=     -0.013317987
EMP2(ab)=     -0.072540058

Initial guess performed in     0.002 sec
E(0)                                       ...    -19.855195711
E(MP2)                                     ...     -0.104341689
Initial E(tot)                             ...    -19.959537400
<T|T>                                      ...      0.051569462
Number of pairs included                   ... 36

------------------------------------------------
                  UHF COUPLED CLUSTER ITERATIONS
------------------------------------------------

Number of amplitudes to be optimized       ...        16862

Iter       E(tot)           E(Corr)          Delta-E          Residual     Time      <S|S>**1/2
  0    -19.959537400     -0.104341689     -0.000000000      0.007942580    0.06      0.000000277
                           *** Turning on DIIS ***
  1    -19.963573380     -0.108377669     -0.004035980      0.004596821    0.02      0.015526779
  2    -19.965291784     -0.110096073     -0.001718404      0.003278668    0.02      0.027627104
  3    -19.965525731     -0.110330019     -0.000233946      0.002251247    0.02      0.034836721
  4    -19.965644716     -0.110449005     -0.000118985      0.001020467    0.02      0.042677270
  5    -19.965727207     -0.110531496     -0.000082491      0.000129474    0.02      0.048194287
  6    -19.965733341     -0.110537630     -0.000006134      0.000007404    0.02      0.048910010
               --- The Coupled-Cluster iterations have converged ---

----------------------
COUPLED CLUSTER ENERGY
----------------------

E(0)                                       ...    -19.855195711
E(CORR)                                    ...     -0.110537630
E(TOT)                                     ...    -19.965733341
Singles norm <S|S>**1/2                    ...      0.048910010 ( 0.041347460, 0.007562550)  
T1 diagnostic                              ...      0.016303337                              

------------------
LARGEST AMPLITUDES
------------------
   4a-> 13a  -1a-> -1a       0.071010
   3a-> 24a   3b-> 26b       0.026624
   1a-> 25a   2b-> 24b       0.025501
   2a-> 26a   1b-> 25b       0.020532
   3a-> 16a   3b-> 26b       0.019694
   3b-> 26b   1b-> 23b       0.018798
   3b-> 23b   1b-> 26b       0.018798
   1a-> 23a   2b-> 22b       0.018500
   3a-> 24a   3b-> 15b       0.018304
   3a-> 25a   1a-> 24a       0.017531
   3a-> 24a   1a-> 25a       0.017531
   1a-> 26a   2b-> 25b       0.017473
   3a-> 23a   3b-> 23b       0.017028
   3a-> 22a   3b-> 23b       0.016928
   2a-> 23a   1b-> 23b       0.016437
   4a-> 27a  -1a-> -1a       0.016247

----------------------
UHF TRIPLES CORRECTION (Algorithm 1)
----------------------

Multiplier for the singles contribution    ...      1.000000000

SPIN-CASE Alpha-Alpha-Alpha:
10% done
20% done
30% done
40% done
50% done
60% done
70% done
80% done
90% done


SPIN-CASE Beta-Beta-Beta:
10% done
20% done
30% done
40% done
50% done
60% done
70% done
80% done
90% done


SPIN-CASE Alpha-Alpha-Beta:
10% done
20% done
30% done
40% done
50% done
60% done
70% done
80% done
90% done


SPIN-CASE Beta-Beta-Alpha:
10% done
20% done
30% done
40% done
50% done
60% done
70% done
80% done
90% done


Triples Correction (T)                     ...     -0.001265847
    alpha-alpha-alpha ... -0.000051882 (  4.1%)
    alpha-alpha-beta  ... -0.000702444 ( 55.5%)
    alpha-beta -beta  ... -0.000494191 ( 39.0%)
    beta -beta -beta  ... -0.000017330 (  1.4%)
Scaling of triples based on CCSD energies (Peterson et al. Molecular Physics 113, 1551 (2015))
E(T*) = f*E(T) where f = E(F12-CCSD)/E(CCSD) 
f = CCSD (with F12)/ CCSD (without F12)    ...      1.000000000
Scaled triples correction (T)              ...     -0.001265847

Final correlation energy                   ...     -0.111803476
E(CCSD)                                    ...    -19.965733341
E(CCSD(T))                                 ...    -19.966999187



        !!!!!!!!!!!!!!!!!!!!!!!!!!!!!!!!!!!!!!!!!!!!!!!!!!!!!!!!!!!!!!!!!!!!!!!!!! 
        !  Warning: Densities are linearized densities                           !
        !!!!!!!!!!!!!!!!!!!!!!!!!!!!!!!!!!!!!!!!!!!!!!!!!!!!!!!!!!!!!!!!!!!!!!!!!! 

NORM  =      1.064700080 sqrt=     1.031843050
W(HF) =      0.939231638
------------------------------------------------------------------------------
                           ORCA POPULATION ANALYSIS
------------------------------------------------------------------------------
Input electron density              ... 55_Cs.mdcip
Input spin density                  ... 55_Cs.mdcir
BaseName (.gbw .S,...)              ... 55_Cs

                    ********************************
                    * MULLIKEN POPULATION ANALYSIS *
                    ********************************

------------------------------------------
MULLIKEN ATOMIC CHARGES AND SPIN DENSITIES
------------------------------------------
   0 Cs:   -0.000000    1.000000
Sum of atomic charges       :   -0.0000000
Sum of atomic spin densities:    1.0000000

---------------------------------------------------
MULLIKEN REDUCED ORBITAL CHARGES AND SPIN DENSITIES
---------------------------------------------------
CHARGE
  0 Css       :     2.989021  s :     2.989021
      pz      :     1.972097  p :     5.916292
      px      :     1.972097
      py      :     1.972097
      dz2     :     0.018937  d :     0.094687
      dxz     :     0.018937
      dyz     :     0.018937
      dx2y2   :     0.018937
      dxy     :     0.018937

SPIN
  0 Css       :     0.990357  s :     0.990357
      pz      :     0.003454  p :     0.010363
      px      :     0.003454
      py      :     0.003454
      dz2     :    -0.000144  d :    -0.000720
      dxz     :    -0.000144
      dyz     :    -0.000144
      dx2y2   :    -0.000144
      dxy     :    -0.000144


                     *******************************
                     * LOEWDIN POPULATION ANALYSIS *
                     *******************************

-----------------------------------------
LOEWDIN ATOMIC CHARGES AND SPIN DENSITIES
-----------------------------------------
   0 Cs:    0.000000    1.000000

--------------------------------------------------
LOEWDIN REDUCED ORBITAL CHARGES AND SPIN DENSITIES
--------------------------------------------------
CHARGE
  0 Css       :     2.989021  s :     2.989021
      pz      :     1.972097  p :     5.916292
      px      :     1.972097
      py      :     1.972097
      dz2     :     0.018937  d :     0.094687
      dxz     :     0.018937
      dyz     :     0.018937
      dx2y2   :     0.018937
      dxy     :     0.018937

SPIN
  0 Css       :     0.990357  s :     0.990357
      pz      :     0.003454  p :     0.010363
      px      :     0.003454
      py      :     0.003454
      dz2     :    -0.000144  d :    -0.000720
      dxz     :    -0.000144
      dyz     :    -0.000144
      dx2y2   :    -0.000144
      dxy     :    -0.000144


                      *****************************
                      * MAYER POPULATION ANALYSIS *
                      *****************************

  NA   - Mulliken gross atomic population
  ZA   - Total nuclear charge
  QA   - Mulliken gross atomic charge
  VA   - Mayer's total valence
  BVA  - Mayer's bonded valence
  FA   - Mayer's free valence

  ATOM       NA         ZA         QA         VA         BVA        FA
  0 Cs     9.0000     9.0000    -0.0000     1.4446     0.0000     1.4446





------------------------------------------------------------------------------- 
                                     TIMINGS                                   
------------------------------------------------------------------------------- 


Total execution time                   ...        3.162 sec

Fock Matrix Formation                  ...        0.240 sec (  7.6%)
Initial Guess                          ...        0.002 sec (  0.1%)
DIIS Solver                            ...        0.011 sec (  0.3%)
State Vector Update                    ...        0.001 sec (  0.0%)
Sigma-vector construction              ...        0.177 sec (  5.6%)
  <D|H|D>(2-ext)                       ...        0.002 sec (  1.1% of sigma)
  <D|H|D>(4-ext)                       ...        0.091 sec ( 51.4% of sigma)
  <S|H|0>                              ...        0.003 sec (  1.6% of sigma)
  <D|H|S>(1-ext)                       ...        0.002 sec (  1.4% of sigma)
  Fock-dressing                        ...        0.016 sec (  9.2% of sigma)
  (ij|ab),(ia|jb)-dressing             ...        0.043 sec ( 24.1% of sigma)
Total Time for computing (T)           ...        0.008 sec (  0.3% of ALL)
  I/O of integral and amplitudes       ...        0.002 sec ( 23.3% of (T))
  N**6 triples energy contributions    ...        0.002 sec ( 28.4% of (T))


-------------------------   --------------------
FINAL SINGLE POINT ENERGY       -19.966999187447
-------------------------   --------------------


                            ***************************************
                            *     ORCA property calculations      *
                            ***************************************

                                    ---------------------
                                    Active property flags
                                    ---------------------
   (+) Dipole Moment


------------------------------------------------------------------------------
                       ORCA ELECTRIC PROPERTIES CALCULATION
------------------------------------------------------------------------------

Dipole Moment Calculation                       ... on
Quadrupole Moment Calculation                   ... off
Polarizability Calculation                      ... off
GBWName                                         ... 55_Cs.gbw
Electron density file                           ... 55_Cs.scfp
The origin for moment calculation is the CENTER OF MASS  = ( 0.000000,  0.000000  0.000000)

-------------
DIPOLE MOMENT
-------------
                                X             Y             Z
Electronic contribution:     -0.00000      -0.00000       0.00000
Nuclear contribution   :      0.00000       0.00000       0.00000
                        -----------------------------------------
Total Dipole Moment    :     -0.00000      -0.00000       0.00000
                        -----------------------------------------
Magnitude (a.u.)       :      0.00000
Magnitude (Debye)      :      0.00000



--------------------
Rotational spectrum 
--------------------
 
Rotational constants in cm-1:     0.000000     0.000000     0.000000 
Rotational constants in MHz :     0.000000     0.000000     0.000000 

 Dipole components along the rotational axes: 
x,y,z [a.u.] :    -0.000000    -0.000000     0.000000 
x,y,z [Debye]:    -0.000000    -0.000000     0.000000 

 

                           *** MDCI DENSITY ***

------------------------------------------------------------------------------
                       ORCA ELECTRIC PROPERTIES CALCULATION
------------------------------------------------------------------------------

Dipole Moment Calculation                       ... on
Quadrupole Moment Calculation                   ... off
Polarizability Calculation                      ... off
GBWName                                         ... 55_Cs.gbw
Electron density file                           ... 55_Cs.mdcip
The origin for moment calculation is the CENTER OF MASS  = ( 0.000000,  0.000000  0.000000)

-------------
DIPOLE MOMENT
-------------
                                X             Y             Z
Electronic contribution:      0.00000      -0.00000       0.00000
Nuclear contribution   :      0.00000       0.00000       0.00000
                        -----------------------------------------
Total Dipole Moment    :      0.00000      -0.00000       0.00000
                        -----------------------------------------
Magnitude (a.u.)       :      0.00000
Magnitude (Debye)      :      0.00000



--------------------
Rotational spectrum 
--------------------
 
Rotational constants in cm-1:     0.000000     0.000000     0.000000 
Rotational constants in MHz :     0.000000     0.000000     0.000000 

 Dipole components along the rotational axes: 
x,y,z [a.u.] :     0.000000    -0.000000     0.000000 
x,y,z [Debye]:     0.000000    -0.000000     0.000000 

 

Timings for individual modules:

Sum of individual times         ...       13.954 sec (=   0.233 min)
GTO integral calculation        ...        0.820 sec (=   0.014 min)   5.9 %
SCF iterations                  ...        9.571 sec (=   0.160 min)  68.6 %
MDCI module                     ...        3.562 sec (=   0.059 min)  25.5 %
                             ****ORCA TERMINATED NORMALLY****
TOTAL RUN TIME: 0 days 0 hours 0 minutes 14 seconds 698 msec
