
                                 *****************
                                 * O   R   C   A *
                                 *****************

           --- An Ab Initio, DFT and Semiempirical electronic structure package ---

                  #######################################################
                  #                        -***-                        #
                  #          Department of theory and spectroscopy      #
                  #               Directorship: Frank Neese             #
                  #        Max Planck Institute fuer Kohlenforschung    #
                  #                Kaiser Wilhelm Platz 1               #
                  #                 D-45470 Muelheim/Ruhr               #
                  #                      Germany                        #
                  #                                                     #
                  #                  All rights reserved                #
                  #                        -***-                        #
                  #######################################################


                         Program Version 4.2.0 -  RELEASE  -


 With contributions from (in alphabetic order):
   Daniel Aravena         : Magnetic Suceptibility
   Michael Atanasov       : Ab Initio Ligand Field Theory (pilot matlab implementation)
   Alexander A. Auer      : GIAO ZORA, VPT2
   Ute Becker             : Parallelization
   Giovanni Bistoni       : ED, misc. LED, open-shell LED, HFLED
   Martin Brehm           : Molecular dynamics
   Dmytro Bykov           : SCF Hessian
   Vijay G. Chilkuri      : MRCI spin determinant printing, contributions to CSF-ICE
   Dipayan Datta          : RHF DLPNO-CCSD density
   Achintya Kumar Dutta   : EOM-CC, STEOM-CC
   Dmitry Ganyushin       : Spin-Orbit,Spin-Spin,Magnetic field MRCI
   Miquel Garcia          : C-PCM Hessian, Gaussian charge scheme
   Yang Guo               : DLPNO-NEVPT2, CIM, IAO-localization
   Andreas Hansen         : Spin unrestricted coupled pair/coupled cluster methods
   Benjamin Helmich-Paris : CASSCF linear response (MC-RPA)
   Lee Huntington         : MR-EOM, pCC
   Robert Izsak           : Overlap fitted RIJCOSX, COSX-SCS-MP3, EOM
   Christian Kollmar      : KDIIS, OOCD, Brueckner-CCSD(T), CCSD density
   Simone Kossmann        : Meta GGA functionals, TD-DFT gradient, OOMP2, MP2 Hessian
   Martin Krupicka        : AUTO-CI
   Lucas Lang             : DCDCAS
   Dagmar Lenk            : GEPOL surface, SMD
   Dimitrios Liakos       : Extrapolation schemes; Compound Job, initial MDCI parallelization
   Dimitrios Manganas     : Further ROCIS development; embedding schemes
   Dimitrios Pantazis     : SARC Basis sets
   Taras Petrenko         : DFT Hessian,TD-DFT gradient, ASA, ECA, R-Raman, ABS, FL, XAS/XES, NRVS
   Peter Pinski           : DLPNO-MP2, DLPNO-MP2 Gradient
   Christoph Reimann      : Effective Core Potentials
   Marius Retegan         : Local ZFS, SOC
   Christoph Riplinger    : Optimizer, TS searches, QM/MM, DLPNO-CCSD(T), (RO)-DLPNO pert. Triples
   Tobias Risthaus        : Range-separated hybrids, TD-DFT gradient, RPA, STAB
   Michael Roemelt        : Original ROCIS implementation
   Masaaki Saitow         : Open-shell DLPNO-CCSD energy and density
   Barbara Sandhoefer     : DKH picture change effects
   Avijit Sen             : IP-ROCIS
   Kantharuban Sivalingam : CASSCF convergence, NEVPT2, FIC-MRCI
   Bernardo de Souza      : ESD, SOC TD-DFT
   Georgi Stoychev        : AutoAux, RI-MP2 NMR
   Willem Van den Heuvel  : Paramagnetic NMR
   Boris Wezisla          : Elementary symmetry handling
   Frank Wennmohs         : Technical directorship


 We gratefully acknowledge several colleagues who have allowed us to
 interface, adapt or use parts of their codes:
   Stefan Grimme, W. Hujo, H. Kruse,             : VdW corrections, initial TS optimization,
                  C. Bannwarth                     DFT functionals, gCP, sTDA/sTD-DF
   Ed Valeev, F. Pavosevic, A. Kumar             : LibInt (2-el integral package), F12 methods
   Garnet Chan, S. Sharma, J. Yang, R. Olivares  : DMRG
   Ulf Ekstrom                                   : XCFun DFT Library
   Mihaly Kallay                                 : mrcc  (arbitrary order and MRCC methods)
   Andreas Klamt, Michael Diedenhofen            : otool_cosmo (COSMO solvation model)
   Jiri Pittner, Ondrej Demel                    : Mk-CCSD
   Frank Weinhold                                : gennbo (NPA and NBO analysis)
   Christopher J. Cramer and Donald G. Truhlar   : smd solvation model
   Lars Goerigk                                  : TD-DFT with DH, B97 family of functionals
   V. Asgeirsson, H. Jonsson                     : NEB implementation
   FAccTs GmbH                                   : IRC, NEB, NEB-TS, Multilevel, MM, QM/MM, CI optimization
   S Lehtola, MJT Oliveira, MAL Marques          : LibXC Library


 Your calculation uses the libint2 library for the computation of 2-el integrals
 For citations please refer to: http://libint.valeyev.net

 Your ORCA version has been built with support for libXC version: 4.2.3
 For citations please refer to: https://tddft.org/programs/libxc/

 This ORCA versions uses:
   CBLAS   interface :  Fast vector & matrix operations
   LAPACKE interface :  Fast linear algebra routines
   SCALAPACK package :  Parallel linear algebra routines


----- Orbital basis set information -----
Your calculation utilizes the basis: def2-SVP
   F. Weigend and R. Ahlrichs, Phys. Chem. Chem. Phys. 7, 3297 (2005).

----- AuxJ basis set information -----
Your calculation utilizes the auxiliary basis: def2/J
   F. Weigend, Phys. Chem. Chem. Phys. 8, 1057 (2006).

================================================================================
                                        WARNINGS
                       Please study these warnings very carefully!
================================================================================


INFO   : the flag for use of LIBINT has been found!

================================================================================
                                       INPUT FILE
================================================================================
NAME = 56_Ba_atom56.inp
|  1> # input to generate an atomic fitting density for Ba
|  2> # this file is use internally by ORCA
|  3> #
|  4> # atomic ground state (S=1): 1s2 2s2 2p6 3s2 3p6 4s2 3d10 4p6 5s2 4d10 5p6 6s2 
|  5> #
|  6> ! RHF AllowRHF def2-SVP def2/J  NoMulliken NoLoewdin NoMayer NoPrintMOs 
|  7> 
|  8> %output print[p_atomdensfit] 2 end
|  9> 
| 10> %scf
| 11>   guess hcore
| 12>   maxiter 1000
| 13>   maxdisk 500000
| 14>   SCFMode Conventional
| 15>   lshift 1.000000
| 16>   hftyp rohf
| 17>   rohf_case sahf
| 18>   rohf_numop   2
| 19>   rohf_norb[1] 1
| 20>   rohf_nel[1]  2
| 21> end
| 22> 
| 23> %basis
| 24>   NewECP 56
| 25>     N_core 46
| 26>     lmax f
| 27>     s 3
| 28>       1       9.5269860000    427.8458160000  2
| 29>       2       4.4875100000    204.4175300000  2
| 30>       3       3.5894650000     33.4731740000  2
| 31>     p 3
| 32>       1       8.3159300000    293.6058640000  2
| 33>       2       4.2922170000    294.1933160000  2
| 34>       3       3.5894650000     33.4731740000  2
| 35>     d 3
| 36>       1       5.9161080000    112.5504020000  2
| 37>       2       2.8748420000    181.7826210000  2
| 38>       3       3.5894650000     33.4731740000  2
| 39>     f 1
| 40>       1       3.5894650000    -33.4731740000  2
| 41>   end
| 42>   NewGTO 56
| 43>     s 2 
| 44>      1       6.0000000000     -1.3541492382
| 45>      2       4.9822082226      2.3335596784
| 46>     s 1 
| 47>      1       2.1451943914      1.0000000000
| 48>     s 1 
| 49>      1       0.4148617410      1.0000000000
| 50>     s 1 
| 51>      1       0.1921475702      1.0000000000
| 52>     s 1 
| 53>      1       0.0484658903      1.0000000000
| 54>     s 1 
| 55>      1       0.0201382989      1.0000000000
| 56>     p 4 
| 57>      1       5.5000000000     -0.7557615693
| 58>      2       4.9017938336      1.1484911917
| 59>      3       2.6142685062     -0.7799032231
| 60>      4       0.4790339498      1.1653421903
| 61>     p 1 
| 62>      1       0.1941513875      1.0000000000
| 63>     p 1 
| 64>      1       0.0349176220      1.0000000000
| 65>     p 1 
| 66>      1       0.0163200657      1.0000000000
| 67>   end
| 68>   NewAuxGTO 56
| 69>     S 1
| 70>      1 1310.72 1.0
| 71>     S 1
| 72>      1  655.36 1.0
| 73>     S 1
| 74>      1  327.68 1.0
| 75>     S 1
| 76>      1  163.84 1.0
| 77>     S 1
| 78>      1   81.82 1.0
| 79>     S 1
| 80>      1   40.96 1.0
| 81>     S 1
| 82>      1   20.48 1.0
| 83>     S 1
| 84>      1   10.24 1.0
| 85>     S 1
| 86>      1    5.12 1.0
| 87>     S 1
| 88>      1    2.56 1.0
| 89>     S 1
| 90>      1    1.28 1.0
| 91>     S 1
| 92>      1    0.64 1.0
| 93>     S 1
| 94>      1    0.32 1.0
| 95>     S 1
| 96>      1    0.16 1.0
| 97>     S 1
| 98>      1    0.08 1.0
| 99>     S 1
|100>      1    0.04 1.0
|101>     S 1
|102>      1    0.02 1.0
|103>     S 1
|104>      1    0.01 1.0
|105>   end
|106> end
|107> 
|108> * xyz 0 1
|109> 56  0.0 0.0 0.0
|110> *
|111> 
|112> 
|113>                          ****END OF INPUT****
================================================================================

                       ****************************
                       * Single Point Calculation *
                       ****************************

---------------------------------
CARTESIAN COORDINATES (ANGSTROEM)
---------------------------------
  Ba     0.000000    0.000000    0.000000

----------------------------
CARTESIAN COORDINATES (A.U.)
----------------------------
  NO LB      ZA    FRAG     MASS         X           Y           Z
   0 Ba   10.0000*   0   137.330    0.000000    0.000000    0.000000
* core charge reduced due to ECP

--------------------------------
INTERNAL COORDINATES (ANGSTROEM)
--------------------------------
 Ba     0   0   0     0.000000000000     0.00000000     0.00000000

---------------------------
INTERNAL COORDINATES (A.U.)
---------------------------
 Ba     0   0   0     0.000000000000     0.00000000     0.00000000

---------------------
BASIS SET INFORMATION
---------------------
There are 1 groups of distinct atoms

 Group   1 Type Ba  : 7s7p contracted to 6s4p pattern {211111/4111}

Atom   0Ba   basis set group =>   1
---------------------------------
AUXILIARY/J BASIS SET INFORMATION
---------------------------------
There are 1 groups of distinct atoms

 Group   1 Type Ba  : 18s contracted to 18s pattern {111111111111111111}

Atom   0Ba   basis set group =>   1
-------------------------
ECP PARAMETER INFORMATION
-------------------------

 Group 1, Type Ba ECP (replacing 46 core electrons, lmax=3)

Atom   0Ba   ECP group =>   1

------------------------------------------------------------------------------
                           ORCA GTO INTEGRAL CALCULATION
------------------------------------------------------------------------------

                         BASIS SET STATISTICS AND STARTUP INFO

 # of primitive gaussian shells          ...   14
 # of primitive gaussian functions       ...   28
 # of contracted shells                  ...   10
 # of contracted basis functions         ...   18
 Highest angular momentum                ...    1
 Maximum contraction depth               ...    4
 Integral package used                   ... LIBINT
 Integral threshhold            Thresh   ...  1.000e-10
 Primitive cut-off              TCut     ...  1.000e-11
 Storage cut-off                TCutStore... -1.000e+00
 Buffer length                           ... 1048576 integrals/buffer
 Generate file with integrals 4 distinct ...false


------------------------------ INTEGRAL EVALUATION ----------------------------


 * One electron integrals 

   ECP integrals                         ... done
 Pre-screening matrix                    ... done
 Shell pair data                         ... done (   0.000 sec)
 Statistics run                          ... done
 Maximum amount of storage needed        ...     0 MB
 Maximum amount of storage dedicated     ... 500000 MB
 Beginning two electron integral evaluation:
 Starting repulsion integrals
  <ss|ss>  ...          231 b.         0 skpd (  0.0%)     0.000 s. (  0.000 ms/b)
  <ss|sp>  ...          504 b.         0 skpd (  0.0%)     0.000 s. (  0.000 ms/b)
  <ss|pp>  ...          210 b.         0 skpd (  0.0%)     0.000 s. (  0.001 ms/b)
  <sp|sp>  ...          300 b.         0 skpd (  0.0%)     0.000 s. (  0.000 ms/b)
  <sp|pp>  ...          240 b.         0 skpd (  0.0%)     0.000 s. (  0.001 ms/b)
  <pp|pp>  ...           55 b.         0 skpd (  0.0%)     0.000 s. (  0.005 ms/b)


                                      INTEGRAL STATISTICS

Integral type statistics:
 Number of integrals retained            ...      14706 
 One   Center Integrals retained         ...      14706 (100.0%)
 Two   Center Integrals retained         ...          0 (  0.0%)
 Three Center Integrals retained         ...          0 (  0.0%)
 Four  Center Integrals retained         ...          0 (  0.0%)

Storage statistics:
 Number of char integrals                ...          0 (  0.0%)
 Number of short int integrals           ...          0 (  0.0%)
 Number of double/float integrals        ...      14706 (100.0%)
 Amount of memory used                   ...          0 MB
 Amount of memory estimated              ...          0 MB ( 94.7%)

Prescreening statistics:
 Total number of shell quadruples        ...       1540 
 Number of skipped shell quadruples      ...          0 (  0.0%)
 # of negligible batches done            ...          0 (  0.0%)

Timings:
 Total evaluation time               ...     0.154 sec (   0.003 min)
 One electron matrix time            ...     0.012 sec (   0.000 min) =  7.9%
 Schwartz matrix evaluation time     ...     0.070 sec (   0.001 min) = 45.6%
 Statistics run                      ...     0.000 sec (   0.000 min) =  0.1%
 Repulsion integral time             ...     0.001 sec (   0.000 min) =  0.6%

-------------------------------------------------------------------------------
                                 ORCA SCF
-------------------------------------------------------------------------------

------------
SCF SETTINGS
------------
Hamiltonian:
 Ab initio Hamiltonian  Method          .... Hartree-Fock(GTOs)


General Settings:
 Integral files         IntName         .... 56_Ba_atom56
 Hartree-Fock type      HFTyp           .... ROHF
 Total Charge           Charge          ....    0
 Multiplicity           Mult            ....    1
 Number of Electrons    NEL             ....   10
 Basis Dimension        Dim             ....   18
 Nuclear Repulsion      ENuc            ....      0.0000000000 Eh

Convergence Acceleration:
 DIIS                   CNVDIIS         .... on
   Start iteration      DIISMaxIt       ....    12
   Startup error        DIISStart       ....  0.200000
   # of expansion vecs  DIISMaxEq       ....     5
   Bias factor          DIISBfac        ....   1.050
   Max. coefficient     DIISMaxC        ....  10.000
 Newton-Raphson         CNVNR           .... off
 SOSCF                  CNVSOSCF        .... off
 Level Shifting         CNVShift        .... on
   Level shift para.    LevelShift      ....    1.0000
   Turn off err/grad.   ShiftErr        ....    0.0010
 Zerner damping         CNVZerner       .... off
 Static damping         CNVDamp         .... on
   Fraction old density DampFac         ....    0.7000
   Max. Damping (<1)    DampMax         ....    0.9800
   Min. Damping (>=0)   DampMin         ....    0.0000
   Turn off err/grad.   DampErr         ....    0.1000
 Fernandez-Rico         CNVRico         .... off

SCF Procedure:
 Maximum # iterations   MaxIter         ....  1000
 SCF integral mode      SCFMode         .... Conventional
 Integral Threshold     Thresh          ....  1.000e-10 Eh
 Primitive CutOff       TCut            ....  1.000e-11 Eh
 Integral Buffer length BufferLength    .... 1048576
 Integral index format  IndFormat       ....     0
 Integral value format  ValFormat       ....     0
 Integral Storage       Thresh          ....  1.000e-10 Eh

Convergence Tolerance:
 Convergence Check Mode ConvCheckMode   .... Total+1el-Energy
 Convergence forced     ConvForced      .... 0
 Energy Change          TolE            ....  1.000e-06 Eh
 1-El. energy change                    ....  1.000e-03 Eh
 DIIS Error             TolErr          ....  1.000e-06


Diagonalization of the overlap matrix:
Smallest eigenvalue                        ... 1.474e-02
Time for diagonalization                   ...    0.000 sec
Threshold for overlap eigenvalues          ... 1.000e-08
Number of eigenvalues below threshold      ... 0
Time for construction of square roots      ...    0.002 sec
Total time needed                          ...    0.002 sec

--------------------
INITIAL GUESS: HCORE
--------------------
AVERAGE-CONFIGURATION (SAHF) CASE FOUND

-------------------
FINAL ROHF SETTINGS
-------------------
Number of operators             ... 2
  operator   0:   4 orbitals   8 electrons n(mue)= 2.000
  operator   1:   1 orbitals   2 electrons n(mue)= 2.000
Vector coupling coefficients a and b (Zerner convention):
   1.000    1.000           1.000    1.000 
   1.000    1.000           1.000    1.000 

                      -----------------
                      INTIAL GUESS DONE 
                      -----------------

 InCore treatment chosen:
   Memory dedicated               ...    1024 MB
   Memory needed                  ...      0 MB
   Number of tiny    integrals    ...       0
   Number of small   integrals    ...       0
   Number of regular integrals    ...   14706

--------------
SCF ITERATIONS
--------------
ITER       Energy         Delta-E        Max-DP      RMS-DP      [F,P]     Damp
  0    -23.8591908270   0.000000000000 1.53392397  0.10318512  0.4889203 0.7000
  1    -24.3256814770  -0.466490650045 1.63407148  0.11375915  0.2970212 0.7000
                            ****Activating DIIS****
  2    -24.5638127765  -0.238131299541 1.52753899  0.10281402  0.1935673 0.7000
  3    -24.7440897111  -0.180276934528 3.99626037  0.25906029  0.0681546 0.0000
  4    -25.0508860104  -0.306796299284 0.20200543  0.01029212  0.0446794 0.0000
  5    -25.0591322325  -0.008246222180 0.28437852  0.01389790  0.0415827 0.0000
  6    -25.0681413613  -0.009009128773 0.44206311  0.02024367  0.0368820 0.0000
  7    -25.0782680357  -0.010126674373 0.74953849  0.03362906  0.0299080 0.0000
  8    -25.0913465849  -0.013078549228 0.35283525  0.01625751  0.0142836 0.0000
  9    -25.0945728554  -0.003226270512 0.09854598  0.00483195  0.0040868 0.0000
 10    -25.0948677546  -0.000294899228 0.02694561  0.00138242  0.0014154 0.0000
 11    -25.0948911209  -0.000023366225 0.00130448  0.00011336  0.0007578 0.0000
 12    -25.0948940643  -0.000002943468 0.00226902  0.00014802  0.0004585 0.0000
                 **** Energy Check signals convergence ****

               *****************************************************
               *                     SUCCESS                       *
               *           SCF CONVERGED AFTER  13 CYCLES          *
               *****************************************************


----------------
TOTAL SCF ENERGY
----------------

Total Energy       :          -25.09489484 Eh            -682.86680 eV

Components:
Nuclear Repulsion  :            0.00000000 Eh               0.00000 eV
Electronic Energy  :          -25.09489484 Eh            -682.86680 eV
One Electron Energy:          -41.13132350 Eh           -1119.24021 eV
Two Electron Energy:           16.03642866 Eh             436.37341 eV

Virial components:
Potential Energy   :          -32.37684753 Eh            -881.01881 eV
Kinetic Energy     :            7.28195269 Eh             198.15201 eV
Virial Ratio       :            4.44617658


---------------
SCF CONVERGENCE
---------------

  Last Energy change         ...   -7.7623e-07  Tolerance :   1.0000e-06
  Last MAX-Density change    ...    4.3718e-04  Tolerance :   1.0000e-05
  Last RMS-Density change    ...    4.1882e-05  Tolerance :   1.0000e-06
  Last DIIS Error            ...    1.3883e-04  Tolerance :   1.0000e-06

             **** THE GBW FILE WAS UPDATED (56_Ba_atom56.gbw) ****
             **** DENSITY FILE WAS UPDATED (56_Ba_atom56.scfp) ****
             **** ENERGY FILE WAS UPDATED (56_Ba_atom56.en.tmp) ****
             **** THE GBW FILE WAS UPDATED (56_Ba_atom56.gbw) ****
             **** DENSITY FILE WAS UPDATED (56_Ba_atom56.scfp) ****
----------------
ORBITAL ENERGIES
----------------

  NO   OCC          E(Eh)            E(eV) 
   0   2.0000      -1.558788       -42.4168 
   1   2.0000      -0.911648       -24.8072 
   2   2.0000      -0.911648       -24.8072 
   3   2.0000      -0.911648       -24.8072 
   4   2.0000      -0.235276        -6.4022 
   5   0.0000       0.015141         0.4120 
   6   0.0000       0.015141         0.4120 
   7   0.0000       0.015141         0.4120 
   8   0.0000       0.092209         2.5091 
   9   0.0000       0.092910         2.5282 
  10   0.0000       0.092910         2.5282 
  11   0.0000       0.092910         2.5282 
  12   0.0000       0.808602        22.0032 
  13   0.0000       5.394538       146.7929 
  14   0.0000       5.394538       146.7929 
  15   0.0000       5.394538       146.7929 
  16   0.0000      26.067388       709.3297 
  17   0.0000     256.578058      6981.8439 
--------------------------
ATOM BASIS FOR ELEMENT Ba
--------------------------
 NewGTO Ba
 S 7
    1          6.000000000000        -0.592296692785
    2          4.982208222600         1.020684900114
    3          2.145194391400        -0.996675451620
    4          0.414861741000         1.020004577031
    5          0.192147570200         0.424785532841
    6          0.048465890300        -0.147892939948
    7          0.020138298900        -0.122593317712
 S 7
    1          6.000000000000        -0.051800620392
    2          4.982208222600         0.089266260802
    3          2.145194391400        -0.097474494163
    4          0.414861741000         0.189304648249
    5          0.192147570200         0.251537485943
    6          0.048465890300        -0.675317499297
    7          0.020138298900        -0.531282949096
 S 7
    1          6.000000000000        -0.132332524916
    2          4.982208222600         0.228044173843
    3          2.145194391400        -0.228583290808
    4          0.414861741000         0.132437027050
    5          0.192147570200         0.875863299485
    6          0.048465890300        -2.858859097893
    7          0.020138298900         2.295307325615
 S 7
    1          6.000000000000        -0.744679012819
    2          4.982208222600         1.283280209185
    3          2.145194391400        -1.345342950143
    4          0.414861741000         4.074205943177
    5          0.192147570200        -4.629173453538
    6          0.048465890300         2.377881464627
    7          0.020138298900        -0.999541311272
 S 7
    1          6.000000000000        -3.449367454562
    2          4.982208222600         5.944178515102
    3          2.145194391400        -3.771926216220
    4          0.414861741000         1.868990514909
    5          0.192147570200        -1.319070648467
    6          0.048465890300         0.482970195574
    7          0.020138298900        -0.200040361472
 S 7
    1          6.000000000000        -3.214328833424
    2          4.982208222600         5.539144392066
    3          2.145194391400        -1.800551875107
    4          0.414861741000         0.692084294901
    5          0.192147570200        -0.480322293508
    6          0.048465890300         0.175603231782
    7          0.020138298900        -0.072866739819
 P 7
    1          5.500000000000        -0.445859706630
    2          4.901793833600         0.677549595797
    3          2.614268506200        -0.460102016795
    4          0.479033949800         0.687490801592
    5          0.194151387500         0.452107848099
    6          0.034917622000         0.026790656540
    7          0.016320065700        -0.009283246800
 P 7
    1          5.500000000000        -0.061684335917
    2          4.901793833600         0.093738447870
    3          2.614268506200        -0.063654748204
    4          0.479033949800         0.095113805788
    5          0.194151387500         0.108230990492
    6          0.034917622000        -0.103844782768
    7          0.016320065700        -0.928811781048
 P 7
    1          5.500000000000        -0.112263573453
    2          4.901793833600         0.170601060569
    3          2.614268506200        -0.115849662552
    4          0.479033949800         0.173104169216
    5          0.194151387500         0.282584285652
    6          0.034917622000        -2.014292723103
    7          0.016320065700         1.664351595650
 P 7
    1          5.500000000000        -1.311295076958
    2          4.901793833600         1.992706306832
    3          2.614268506200        -1.353182403680
    4          0.479033949800         2.021943876462
    5          0.194151387500        -2.024901970291
    6          0.034917622000         0.969228027058
    7          0.016320065700        -0.544236043260
 end
  // -----------------------------------------------
  // The basis set
  // -----------------------------------------------
  BAS[ATNO] = new BFNGauss[NSH];
  // Basis function   1 L = s
  InitBFNGauss(BAS[ATNO][  0]);
  BAS[ATNO][  0].l  = 0;
  BAS[ATNO][  0].ng = 7;
  BAS[ATNO][  0].a[  0] =         6.000000000000;     BAS[ATNO][  0].d[  0] =        -0.592296692785;
  BAS[ATNO][  0].a[  1] =         4.982208222600;     BAS[ATNO][  0].d[  1] =         1.020684900114;
  BAS[ATNO][  0].a[  2] =         2.145194391400;     BAS[ATNO][  0].d[  2] =        -0.996675451620;
  BAS[ATNO][  0].a[  3] =         0.414861741000;     BAS[ATNO][  0].d[  3] =         1.020004577031;
  BAS[ATNO][  0].a[  4] =         0.192147570200;     BAS[ATNO][  0].d[  4] =         0.424785532841;
  BAS[ATNO][  0].a[  5] =         0.048465890300;     BAS[ATNO][  0].d[  5] =        -0.147892939948;
  BAS[ATNO][  0].a[  6] =         0.020138298900;     BAS[ATNO][  0].d[  6] =        -0.122593317712;

  // Basis function   2 L = s
  InitBFNGauss(BAS[ATNO][  1]);
  BAS[ATNO][  1].l  = 0;
  BAS[ATNO][  1].ng = 7;
  BAS[ATNO][  1].a[  0] =         6.000000000000;     BAS[ATNO][  1].d[  0] =         0.051800620392;
  BAS[ATNO][  1].a[  1] =         4.982208222600;     BAS[ATNO][  1].d[  1] =        -0.089266260802;
  BAS[ATNO][  1].a[  2] =         2.145194391400;     BAS[ATNO][  1].d[  2] =         0.097474494163;
  BAS[ATNO][  1].a[  3] =         0.414861741000;     BAS[ATNO][  1].d[  3] =        -0.189304648249;
  BAS[ATNO][  1].a[  4] =         0.192147570200;     BAS[ATNO][  1].d[  4] =        -0.251537485943;
  BAS[ATNO][  1].a[  5] =         0.048465890300;     BAS[ATNO][  1].d[  5] =         0.675317499297;
  BAS[ATNO][  1].a[  6] =         0.020138298900;     BAS[ATNO][  1].d[  6] =         0.531282949096;

  // Basis function   3 L = s
  InitBFNGauss(BAS[ATNO][  2]);
  BAS[ATNO][  2].l  = 0;
  BAS[ATNO][  2].ng = 7;
  BAS[ATNO][  2].a[  0] =         6.000000000000;     BAS[ATNO][  2].d[  0] =         0.132332524916;
  BAS[ATNO][  2].a[  1] =         4.982208222600;     BAS[ATNO][  2].d[  1] =        -0.228044173843;
  BAS[ATNO][  2].a[  2] =         2.145194391400;     BAS[ATNO][  2].d[  2] =         0.228583290808;
  BAS[ATNO][  2].a[  3] =         0.414861741000;     BAS[ATNO][  2].d[  3] =        -0.132437027050;
  BAS[ATNO][  2].a[  4] =         0.192147570200;     BAS[ATNO][  2].d[  4] =        -0.875863299485;
  BAS[ATNO][  2].a[  5] =         0.048465890300;     BAS[ATNO][  2].d[  5] =         2.858859097893;
  BAS[ATNO][  2].a[  6] =         0.020138298900;     BAS[ATNO][  2].d[  6] =        -2.295307325615;

  // Basis function   4 L = s
  InitBFNGauss(BAS[ATNO][  3]);
  BAS[ATNO][  3].l  = 0;
  BAS[ATNO][  3].ng = 7;
  BAS[ATNO][  3].a[  0] =         6.000000000000;     BAS[ATNO][  3].d[  0] =         0.744679012819;
  BAS[ATNO][  3].a[  1] =         4.982208222600;     BAS[ATNO][  3].d[  1] =        -1.283280209185;
  BAS[ATNO][  3].a[  2] =         2.145194391400;     BAS[ATNO][  3].d[  2] =         1.345342950143;
  BAS[ATNO][  3].a[  3] =         0.414861741000;     BAS[ATNO][  3].d[  3] =        -4.074205943177;
  BAS[ATNO][  3].a[  4] =         0.192147570200;     BAS[ATNO][  3].d[  4] =         4.629173453538;
  BAS[ATNO][  3].a[  5] =         0.048465890300;     BAS[ATNO][  3].d[  5] =        -2.377881464627;
  BAS[ATNO][  3].a[  6] =         0.020138298900;     BAS[ATNO][  3].d[  6] =         0.999541311272;

  // Basis function   5 L = s
  InitBFNGauss(BAS[ATNO][  4]);
  BAS[ATNO][  4].l  = 0;
  BAS[ATNO][  4].ng = 7;
  BAS[ATNO][  4].a[  0] =         6.000000000000;     BAS[ATNO][  4].d[  0] =        -3.449367454562;
  BAS[ATNO][  4].a[  1] =         4.982208222600;     BAS[ATNO][  4].d[  1] =         5.944178515102;
  BAS[ATNO][  4].a[  2] =         2.145194391400;     BAS[ATNO][  4].d[  2] =        -3.771926216220;
  BAS[ATNO][  4].a[  3] =         0.414861741000;     BAS[ATNO][  4].d[  3] =         1.868990514909;
  BAS[ATNO][  4].a[  4] =         0.192147570200;     BAS[ATNO][  4].d[  4] =        -1.319070648467;
  BAS[ATNO][  4].a[  5] =         0.048465890300;     BAS[ATNO][  4].d[  5] =         0.482970195574;
  BAS[ATNO][  4].a[  6] =         0.020138298900;     BAS[ATNO][  4].d[  6] =        -0.200040361472;

  // Basis function   6 L = s
  InitBFNGauss(BAS[ATNO][  5]);
  BAS[ATNO][  5].l  = 0;
  BAS[ATNO][  5].ng = 7;
  BAS[ATNO][  5].a[  0] =         6.000000000000;     BAS[ATNO][  5].d[  0] =        -3.214328833424;
  BAS[ATNO][  5].a[  1] =         4.982208222600;     BAS[ATNO][  5].d[  1] =         5.539144392066;
  BAS[ATNO][  5].a[  2] =         2.145194391400;     BAS[ATNO][  5].d[  2] =        -1.800551875107;
  BAS[ATNO][  5].a[  3] =         0.414861741000;     BAS[ATNO][  5].d[  3] =         0.692084294901;
  BAS[ATNO][  5].a[  4] =         0.192147570200;     BAS[ATNO][  5].d[  4] =        -0.480322293508;
  BAS[ATNO][  5].a[  5] =         0.048465890300;     BAS[ATNO][  5].d[  5] =         0.175603231782;
  BAS[ATNO][  5].a[  6] =         0.020138298900;     BAS[ATNO][  5].d[  6] =        -0.072866739819;

  // Basis function   7 L = p
  InitBFNGauss(BAS[ATNO][  6]);
  BAS[ATNO][  6].l  = 1;
  BAS[ATNO][  6].ng = 7;
  BAS[ATNO][  6].a[  0] =         5.500000000000;     BAS[ATNO][  6].d[  0] =        -0.445859706630;
  BAS[ATNO][  6].a[  1] =         4.901793833600;     BAS[ATNO][  6].d[  1] =         0.677549595797;
  BAS[ATNO][  6].a[  2] =         2.614268506200;     BAS[ATNO][  6].d[  2] =        -0.460102016795;
  BAS[ATNO][  6].a[  3] =         0.479033949800;     BAS[ATNO][  6].d[  3] =         0.687490801592;
  BAS[ATNO][  6].a[  4] =         0.194151387500;     BAS[ATNO][  6].d[  4] =         0.452107848099;
  BAS[ATNO][  6].a[  5] =         0.034917622000;     BAS[ATNO][  6].d[  5] =         0.026790656540;
  BAS[ATNO][  6].a[  6] =         0.016320065700;     BAS[ATNO][  6].d[  6] =        -0.009283246800;

  // Basis function   8 L = p
  InitBFNGauss(BAS[ATNO][  7]);
  BAS[ATNO][  7].l  = 1;
  BAS[ATNO][  7].ng = 7;
  BAS[ATNO][  7].a[  0] =         5.500000000000;     BAS[ATNO][  7].d[  0] =         0.061684335917;
  BAS[ATNO][  7].a[  1] =         4.901793833600;     BAS[ATNO][  7].d[  1] =        -0.093738447870;
  BAS[ATNO][  7].a[  2] =         2.614268506200;     BAS[ATNO][  7].d[  2] =         0.063654748204;
  BAS[ATNO][  7].a[  3] =         0.479033949800;     BAS[ATNO][  7].d[  3] =        -0.095113805788;
  BAS[ATNO][  7].a[  4] =         0.194151387500;     BAS[ATNO][  7].d[  4] =        -0.108230990492;
  BAS[ATNO][  7].a[  5] =         0.034917622000;     BAS[ATNO][  7].d[  5] =         0.103844782768;
  BAS[ATNO][  7].a[  6] =         0.016320065700;     BAS[ATNO][  7].d[  6] =         0.928811781048;

  // Basis function   9 L = p
  InitBFNGauss(BAS[ATNO][  8]);
  BAS[ATNO][  8].l  = 1;
  BAS[ATNO][  8].ng = 7;
  BAS[ATNO][  8].a[  0] =         5.500000000000;     BAS[ATNO][  8].d[  0] =         0.112263573453;
  BAS[ATNO][  8].a[  1] =         4.901793833600;     BAS[ATNO][  8].d[  1] =        -0.170601060569;
  BAS[ATNO][  8].a[  2] =         2.614268506200;     BAS[ATNO][  8].d[  2] =         0.115849662552;
  BAS[ATNO][  8].a[  3] =         0.479033949800;     BAS[ATNO][  8].d[  3] =        -0.173104169216;
  BAS[ATNO][  8].a[  4] =         0.194151387500;     BAS[ATNO][  8].d[  4] =        -0.282584285652;
  BAS[ATNO][  8].a[  5] =         0.034917622000;     BAS[ATNO][  8].d[  5] =         2.014292723103;
  BAS[ATNO][  8].a[  6] =         0.016320065700;     BAS[ATNO][  8].d[  6] =        -1.664351595650;

  // Basis function  10 L = p
  InitBFNGauss(BAS[ATNO][  9]);
  BAS[ATNO][  9].l  = 1;
  BAS[ATNO][  9].ng = 7;
  BAS[ATNO][  9].a[  0] =         5.500000000000;     BAS[ATNO][  9].d[  0] =         1.311295076958;
  BAS[ATNO][  9].a[  1] =         4.901793833600;     BAS[ATNO][  9].d[  1] =        -1.992706306832;
  BAS[ATNO][  9].a[  2] =         2.614268506200;     BAS[ATNO][  9].d[  2] =         1.353182403680;
  BAS[ATNO][  9].a[  3] =         0.479033949800;     BAS[ATNO][  9].d[  3] =        -2.021943876462;
  BAS[ATNO][  9].a[  4] =         0.194151387500;     BAS[ATNO][  9].d[  4] =         2.024901970291;
  BAS[ATNO][  9].a[  5] =         0.034917622000;     BAS[ATNO][  9].d[  5] =        -0.969228027058;
  BAS[ATNO][  9].a[  6] =         0.016320065700;     BAS[ATNO][  9].d[  6] =         0.544236043260;

-------------------------------------------
RADIAL EXPECTATION VALUES <R**-3> TO <R**3>
-------------------------------------------
   0 :     0.000000     0.457305     0.647203     1.754647     3.911761    13.324230
   1 :     0.000000     0.056380     0.223348     5.054520    28.772229   183.612006
   2 :     0.000000     0.043063     0.168497     7.614454    66.501826   629.284480
   3 :     0.000000     0.249412     0.427188     3.384874    16.774455   115.538490
   4 :     0.000000     2.080497     1.300390     0.937951     1.436152     5.441141
   5 :     0.000000    19.395974     3.535093     0.387978     0.275602     0.746600
   6 :     0.223192     0.337825     0.555999     1.974533     4.296915    10.342650
   7 :     0.223192     0.337825     0.555999     1.974533     4.296915    10.342650
   8 :     0.223192     0.337825     0.555999     1.974533     4.296915    10.342650
   9 :     0.005977     0.023573     0.138513     8.183616    73.813797   723.658678
  10 :     0.005977     0.023573     0.138513     8.183616    73.813797   723.658678
  11 :     0.005977     0.023573     0.138513     8.183616    73.813797   723.658678
  12 :     0.015036     0.039681     0.165035     8.092799    80.592547   915.513790
  13 :     0.015036     0.039681     0.165035     8.092799    80.592547   915.513790
  14 :     0.015036     0.039681     0.165035     8.092799    80.592547   915.513790
  15 :     0.450020     0.350720     0.469353     3.171599    15.275223   112.874999
  16 :     0.450020     0.350720     0.469353     3.171599    15.275223   112.874999
  17 :     0.450020     0.350720     0.469353     3.171599    15.275223   112.874999
Making the total density                ... o.k.
o.k.
Initializing the integrals              ... done
Making exponents                        ... done
Making rho(0)                           ... done (         0.000024941)
Integral calculation                    ... Two index integrals                     ... done
Solving the equation system             ... done
atomic density will be written to file 56_Ba_atom56.adf

-------
TIMINGS
-------

Total SCF time: 0 days 0 hours 0 min 0 sec 

Total time                  ....       0.516 sec
Sum of individual times     ....       0.163 sec  ( 31.6%)

Fock matrix formation       ....       0.120 sec  ( 23.3%)
Diagonalization             ....       0.019 sec  (  3.7%)
Density matrix formation    ....       0.000 sec  (  0.0%)
Population analysis         ....       0.000 sec  (  0.0%)
Initial guess               ....       0.000 sec  (  0.1%)
Orbital Transformation      ....       0.000 sec  (  0.0%)
Orbital Orthonormalization  ....       0.000 sec  (  0.0%)
DIIS solution               ....       0.024 sec  (  4.6%)

-------------------------   --------------------
FINAL SINGLE POINT ENERGY       -25.094894840571
-------------------------   --------------------


                            ***************************************
                            *     ORCA property calculations      *
                            ***************************************

                                    ---------------------
                                    Active property flags
                                    ---------------------
   (+) Dipole Moment


------------------------------------------------------------------------------
                       ORCA ELECTRIC PROPERTIES CALCULATION
------------------------------------------------------------------------------

Dipole Moment Calculation                       ... on
Quadrupole Moment Calculation                   ... off
Polarizability Calculation                      ... off
GBWName                                         ... 56_Ba_atom56.gbw
Electron density file                           ... 56_Ba_atom56.scfp
The origin for moment calculation is the CENTER OF MASS  = ( 0.000000,  0.000000  0.000000)

-------------
DIPOLE MOMENT
-------------
                                X             Y             Z
Electronic contribution:      0.00000      -0.00000      -0.00000
Nuclear contribution   :      0.00000       0.00000       0.00000
                        -----------------------------------------
Total Dipole Moment    :      0.00000      -0.00000      -0.00000
                        -----------------------------------------
Magnitude (a.u.)       :      0.00000
Magnitude (Debye)      :      0.00000



--------------------
Rotational spectrum 
--------------------
 
Rotational constants in cm-1:     0.000000     0.000000     0.000000 
Rotational constants in MHz :     0.000000     0.000000     0.000000 

 Dipole components along the rotational axes: 
x,y,z [a.u.] :     0.000000    -0.000000    -0.000000 
x,y,z [Debye]:     0.000000    -0.000000    -0.000000 

 

Timings for individual modules:

Sum of individual times         ...        0.753 sec (=   0.013 min)
GTO integral calculation        ...        0.212 sec (=   0.004 min)  28.2 %
SCF iterations                  ...        0.541 sec (=   0.009 min)  71.8 %
                             ****ORCA TERMINATED NORMALLY****
TOTAL RUN TIME: 0 days 0 hours 0 minutes 0 seconds 951 msec
