
                                 *****************
                                 * O   R   C   A *
                                 *****************

           --- An Ab Initio, DFT and Semiempirical electronic structure package ---

                  #######################################################
                  #                        -***-                        #
                  #          Department of theory and spectroscopy      #
                  #               Directorship: Frank Neese             #
                  #        Max Planck Institute fuer Kohlenforschung    #
                  #                Kaiser Wilhelm Platz 1               #
                  #                 D-45470 Muelheim/Ruhr               #
                  #                      Germany                        #
                  #                                                     #
                  #                  All rights reserved                #
                  #                        -***-                        #
                  #######################################################


                         Program Version 4.2.0 -  RELEASE  -


 With contributions from (in alphabetic order):
   Daniel Aravena         : Magnetic Suceptibility
   Michael Atanasov       : Ab Initio Ligand Field Theory (pilot matlab implementation)
   Alexander A. Auer      : GIAO ZORA, VPT2
   Ute Becker             : Parallelization
   Giovanni Bistoni       : ED, misc. LED, open-shell LED, HFLED
   Martin Brehm           : Molecular dynamics
   Dmytro Bykov           : SCF Hessian
   Vijay G. Chilkuri      : MRCI spin determinant printing, contributions to CSF-ICE
   Dipayan Datta          : RHF DLPNO-CCSD density
   Achintya Kumar Dutta   : EOM-CC, STEOM-CC
   Dmitry Ganyushin       : Spin-Orbit,Spin-Spin,Magnetic field MRCI
   Miquel Garcia          : C-PCM Hessian, Gaussian charge scheme
   Yang Guo               : DLPNO-NEVPT2, CIM, IAO-localization
   Andreas Hansen         : Spin unrestricted coupled pair/coupled cluster methods
   Benjamin Helmich-Paris : CASSCF linear response (MC-RPA)
   Lee Huntington         : MR-EOM, pCC
   Robert Izsak           : Overlap fitted RIJCOSX, COSX-SCS-MP3, EOM
   Christian Kollmar      : KDIIS, OOCD, Brueckner-CCSD(T), CCSD density
   Simone Kossmann        : Meta GGA functionals, TD-DFT gradient, OOMP2, MP2 Hessian
   Martin Krupicka        : AUTO-CI
   Lucas Lang             : DCDCAS
   Dagmar Lenk            : GEPOL surface, SMD
   Dimitrios Liakos       : Extrapolation schemes; Compound Job, initial MDCI parallelization
   Dimitrios Manganas     : Further ROCIS development; embedding schemes
   Dimitrios Pantazis     : SARC Basis sets
   Taras Petrenko         : DFT Hessian,TD-DFT gradient, ASA, ECA, R-Raman, ABS, FL, XAS/XES, NRVS
   Peter Pinski           : DLPNO-MP2, DLPNO-MP2 Gradient
   Christoph Reimann      : Effective Core Potentials
   Marius Retegan         : Local ZFS, SOC
   Christoph Riplinger    : Optimizer, TS searches, QM/MM, DLPNO-CCSD(T), (RO)-DLPNO pert. Triples
   Tobias Risthaus        : Range-separated hybrids, TD-DFT gradient, RPA, STAB
   Michael Roemelt        : Original ROCIS implementation
   Masaaki Saitow         : Open-shell DLPNO-CCSD energy and density
   Barbara Sandhoefer     : DKH picture change effects
   Avijit Sen             : IP-ROCIS
   Kantharuban Sivalingam : CASSCF convergence, NEVPT2, FIC-MRCI
   Bernardo de Souza      : ESD, SOC TD-DFT
   Georgi Stoychev        : AutoAux, RI-MP2 NMR
   Willem Van den Heuvel  : Paramagnetic NMR
   Boris Wezisla          : Elementary symmetry handling
   Frank Wennmohs         : Technical directorship


 We gratefully acknowledge several colleagues who have allowed us to
 interface, adapt or use parts of their codes:
   Stefan Grimme, W. Hujo, H. Kruse,             : VdW corrections, initial TS optimization,
                  C. Bannwarth                     DFT functionals, gCP, sTDA/sTD-DF
   Ed Valeev, F. Pavosevic, A. Kumar             : LibInt (2-el integral package), F12 methods
   Garnet Chan, S. Sharma, J. Yang, R. Olivares  : DMRG
   Ulf Ekstrom                                   : XCFun DFT Library
   Mihaly Kallay                                 : mrcc  (arbitrary order and MRCC methods)
   Andreas Klamt, Michael Diedenhofen            : otool_cosmo (COSMO solvation model)
   Jiri Pittner, Ondrej Demel                    : Mk-CCSD
   Frank Weinhold                                : gennbo (NPA and NBO analysis)
   Christopher J. Cramer and Donald G. Truhlar   : smd solvation model
   Lars Goerigk                                  : TD-DFT with DH, B97 family of functionals
   V. Asgeirsson, H. Jonsson                     : NEB implementation
   FAccTs GmbH                                   : IRC, NEB, NEB-TS, Multilevel, MM, QM/MM, CI optimization
   S Lehtola, MJT Oliveira, MAL Marques          : LibXC Library


 Your calculation uses the libint2 library for the computation of 2-el integrals
 For citations please refer to: http://libint.valeyev.net

 Your ORCA version has been built with support for libXC version: 4.2.3
 For citations please refer to: https://tddft.org/programs/libxc/

 This ORCA versions uses:
   CBLAS   interface :  Fast vector & matrix operations
   LAPACKE interface :  Fast linear algebra routines
   SCALAPACK package :  Parallel linear algebra routines


----- Orbital basis set information -----
Your calculation utilizes the basis: def2-TZVP
   F. Weigend and R. Ahlrichs, Phys. Chem. Chem. Phys. 7, 3297 (2005).

cite the ECPs for Pr [Def2-ECP] as follows:
Ce-Yb(ecp-28): M. Dolg, H. Stoll, H.Preuss, J. Chem. Phys., 1989, 90, 1730-1734.
Y-Cd(ecp-28), Hf-Hg(ecp-46): D. Andrae,U. Haeussermann, M. Dolg, H. Stoll, H. Preuss, Theor. Chim. Acta, 1990, 77, 123-141.
In-Sb(ecp-28), Tl-Bi(ecp-46): B. Metz, H. Stoll, M. Dolg, J. Chem. Phys., 2000, 113, 2563-2569.
Te-Xe(ecp-28), Po-Rn(ecp-46): K. A. Peterson, D. Figgen, E. Goll, H. Stoll, M. Dolg, J. Chem. Phys., 2003, 119, 11113-11123.
Rb(ecp-28), Cs(ecp-46): T. Leininger, A. Nicklass, W. Kuechle, H. Stoll, M. Dolg, A. Bergner, Chem. Phys. Lett., 1996, 255, 274-280.
Sr(ecp-28), Ba(ecp-46): M. Kaupp, P. V. Schleyer, H. Stoll and H. Preuss, J. Chem. Phys., 1991, 94, 1360-1366.
La(ecp-46): M. Dolg, H. Stoll, A. Savin, H. Preuss, Theor. Chim. Acta, 1989, 75, 173-194.
Lu(ecp-28): X. Cao, M. Dolg, J. Chem. Phys., 2001, 115, 7348-7355.

ECP parameters for Pr [Def2-ECP] have been obtained from:
TURBOMOLE (7.0.2)

================================================================================
                                        WARNINGS
                       Please study these warnings very carefully!
================================================================================


WARNING: your system is open-shell and RHF/RKS was chosen
  ===> : WILL SWITCH to UHF/UKS


WARNING: MDCI localization with Augmented Hessian Foster-Boys
  ===> : Switching off randomization!

WARNING: Post HF methods need fully converged wavefunctions
  ===> : Setting SCFConvForced true
         You can overwrite this default with %scf ConvForced false 


INFO   : the flag for use of LIBINT has been found!

================================================================================
                                       INPUT FILE
================================================================================
NAME = 59_Pr.in
|  1> #
|  2> # 59_Pr CCSD(T)/Def2-TZVP
|  3> #
|  4> ! CCSD(T) Def2-TZVP tightscf
|  5> 
|  6> *xyz 0 4
|  7>  Pr 0.0 0.0 0.0
|  8> *
|  9> 
| 10> %maxcore 5000 
| 11> 
| 12> %pal
| 13> nprocs 24
| 14> end
| 15> 
| 16> 
| 17>                          ****END OF INPUT****
================================================================================

                       ****************************
                       * Single Point Calculation *
                       ****************************

---------------------------------
CARTESIAN COORDINATES (ANGSTROEM)
---------------------------------
  Pr     0.000000    0.000000    0.000000

----------------------------
CARTESIAN COORDINATES (A.U.)
----------------------------
  NO LB      ZA    FRAG     MASS         X           Y           Z
   0 Pr   31.0000*   0   140.908    0.000000    0.000000    0.000000
* core charge reduced due to ECP

--------------------------------
INTERNAL COORDINATES (ANGSTROEM)
--------------------------------
 Pr     0   0   0     0.000000000000     0.00000000     0.00000000

---------------------------
INTERNAL COORDINATES (A.U.)
---------------------------
 Pr     0   0   0     0.000000000000     0.00000000     0.00000000

---------------------
BASIS SET INFORMATION
---------------------
There are 1 groups of distinct atoms

 Group   1 Type Pr  : 14s14p10d8f1g contracted to 10s7p5d4f1g pattern {5111111111/6311111/61111/5111/1}

Atom   0Pr   basis set group =>   1
-------------------------
ECP PARAMETER INFORMATION
-------------------------

 Group 1, Type Pr ECP Def2-ECP (replacing 28 core electrons, lmax=5)

Atom   0Pr   ECP group =>   1


Checking for AutoStart:
The File: 59_Pr.gbw exists
Trying to determine its content:
     ... Fine, the file contains calculation information
     ... Fine, the calculation information was read
     ... Fine, the file contains a basis set
     ... Fine, the basis set was read
     ... Fine, the file contains ECP parameters
     ... Fine, ECP parameters were read
     ... Fine, the file contains a geometry
     ... Fine, the geometry was read
     ... Fine, the file contains a set of orbitals
     ... Fine, the orbitals can be read
     => possible old guess file was deleted
     => GBW file was renamed to GES file
     => GES file is set as startup file
     => Guess is set to MORead
     ... now leaving AutoStart



           ************************************************************
           *        Program running with 24 parallel MPI-processes    *
           *              working on a common directory               *
           ************************************************************
------------------------------------------------------------------------------
                           ORCA GTO INTEGRAL CALCULATION
------------------------------------------------------------------------------

                         BASIS SET STATISTICS AND STARTUP INFO

 # of primitive gaussian shells          ...   47
 # of primitive gaussian functions       ...  171
 # of contracted shells                  ...   27
 # of contracted basis functions         ...   93
 Highest angular momentum                ...    4
 Maximum contraction depth               ...    6
 Integral package used                   ... LIBINT
 Integral threshhold            Thresh   ...  2.500e-11
 Primitive cut-off              TCut     ...  2.500e-12


------------------------------ INTEGRAL EVALUATION ----------------------------


 * One electron integrals 

   ECP integrals                         ... done
 Pre-screening matrix                    ... done
 Shell pair data                         ... done (   0.000 sec)



           ************************************************************
           *        Program running with 24 parallel MPI-processes    *
           *              working on a common directory               *
           ************************************************************
-------------------------------------------------------------------------------
                                 ORCA SCF
-------------------------------------------------------------------------------

------------
SCF SETTINGS
------------
Hamiltonian:
 Ab initio Hamiltonian  Method          .... Hartree-Fock(GTOs)


General Settings:
 Integral files         IntName         .... 59_Pr
 Hartree-Fock type      HFTyp           .... UHF
 Total Charge           Charge          ....    0
 Multiplicity           Mult            ....    4
 Number of Electrons    NEL             ....   31
 Basis Dimension        Dim             ....   93
 Nuclear Repulsion      ENuc            ....      0.0000000000 Eh

Convergence Acceleration:
 DIIS                   CNVDIIS         .... on
   Start iteration      DIISMaxIt       ....    12
   Startup error        DIISStart       ....  0.200000
   # of expansion vecs  DIISMaxEq       ....     5
   Bias factor          DIISBfac        ....   1.050
   Max. coefficient     DIISMaxC        ....  10.000
 Newton-Raphson         CNVNR           .... off
 SOSCF                  CNVSOSCF        .... off
 Level Shifting         CNVShift        .... on
   Level shift para.    LevelShift      ....    0.2500
   Turn off err/grad.   ShiftErr        ....    0.0010
 Zerner damping         CNVZerner       .... off
 Static damping         CNVDamp         .... on
   Fraction old density DampFac         ....    0.7000
   Max. Damping (<1)    DampMax         ....    0.9800
   Min. Damping (>=0)   DampMin         ....    0.0000
   Turn off err/grad.   DampErr         ....    0.1000
 Fernandez-Rico         CNVRico         .... off

SCF Procedure:
 Maximum # iterations   MaxIter         ....   125
 SCF integral mode      SCFMode         .... Direct
   Integral package                     .... LIBINT
 Reset frequency        DirectResetFreq ....    20
 Integral Threshold     Thresh          ....  2.500e-11 Eh
 Primitive CutOff       TCut            ....  2.500e-12 Eh

Convergence Tolerance:
 Convergence Check Mode ConvCheckMode   .... Total+1el-Energy
 Convergence forced     ConvForced      .... 1
 Energy Change          TolE            ....  1.000e-08 Eh
 1-El. energy change                    ....  1.000e-05 Eh
 DIIS Error             TolErr          ....  5.000e-07


Diagonalization of the overlap matrix:
Smallest eigenvalue                        ... 1.233e-03
Time for diagonalization                   ...    0.003 sec
Threshold for overlap eigenvalues          ... 1.000e-08
Number of eigenvalues below threshold      ... 0
Time for construction of square roots      ...    0.011 sec
Total time needed                          ...    0.014 sec

---------------------
INITIAL GUESS: MOREAD
---------------------
Guess MOs are being read from file: 59_Pr.ges
Input Geometry matches current geometry (good)
Input basis set matches current basis set (good)
MOs were renormalized
MOs were reorthogonalized (Cholesky)
                      ------------------
                      INITIAL GUESS DONE (   0.0 sec)
                      ------------------
--------------
SCF ITERATIONS
--------------
ITER       Energy         Delta-E        Max-DP      RMS-DP      [F,P]     Damp
               ***  Starting incremental Fock matrix formation  ***
  0   -515.1220866506   0.000000000000 0.00367453  0.00009330  0.0068273 0.7000
  1   -515.1223647871  -0.000278136589 0.00406973  0.00011029  0.0064094 0.7000
                               ***Turning on DIIS***
  2   -515.1227189050  -0.000354117815 0.01449547  0.00038685  0.0064405 0.0000
  3   -515.1365664239  -0.013847518976 0.02013822  0.00035536  0.0065995 0.0000
  4   -515.1363800066   0.000186417315 0.02211434  0.00034380  0.0068812 0.0000
  5   -515.1359328944   0.000447112275 0.02442099  0.00034416  0.0070108 0.0000
  6   -515.1334074750   0.002525419304 0.02613932  0.00034288  0.0070936 0.0000
  7   -515.1150250820   0.018382393038 0.01556522  0.00021149  0.0071557 0.0000
  8   -515.0853528225   0.029672259536 0.00384944  0.00005862  0.0071298 0.0000
  9   -515.0844750028   0.000877819688 0.00838245  0.00011240  0.0070054 0.0000
 10   -515.0894914968  -0.005016494033 0.00506956  0.00007296  0.0070748 0.0000
 11   -515.1005975593  -0.011106062531 0.01133845  0.00014202  0.0070542 0.0000
 12   -515.1221286558  -0.021531096477 0.01343193  0.00017904  0.0070867 0.0000
 13   -515.1382663083  -0.016137652506 0.01145155  0.00019856  0.0070838 0.0000
 14   -515.1402381986  -0.001971890310 0.00772461  0.00015863  0.0070512 0.0000
 15   -515.1326009320   0.007637266640 0.00227746  0.00005067  0.0077360 0.0000
 16   -515.1248545906   0.007746341358 0.00231198  0.00004102  0.0077600 0.0000
 17   -515.1149407591   0.009913831514 0.01005162  0.00015778  0.0080160 0.0000
 18   -515.1059041328   0.009036626372 0.01164688  0.00023080  0.0090004 0.0000
 19   -515.0950179430   0.010886189746 0.00334252  0.00006575  0.0106845 0.0000
               *** Restarting incremental Fock matrix formation ***
                                   *** Resetting DIIS ***
 20   -515.1359702750  -0.040952332028 0.03347976  0.00068664  0.0109539 0.0000
 21   -515.1495622189  -0.013591943827 0.03681119  0.00074079  0.0157332 0.0000
 22   -515.1448176899   0.004744528995 0.02279774  0.00047942  0.0205859 0.0000
 23   -515.1408046604   0.004013029456 0.01212098  0.00022141  0.0185678 0.0000
 24   -515.1538651783  -0.013060517873 0.00762743  0.00013491  0.0174194 0.0000
 25   -515.1294138185   0.024451359821 0.01589858  0.00034196  0.0165430 0.0000
 26   -515.1373334328  -0.007919614373 0.06238317  0.00132248  0.0186801 0.0000
 27   -515.1582098310  -0.020876398130 0.05093042  0.00088951  0.0259535 0.0000
 28   -515.1849161628  -0.026706331838 0.01416644  0.00032787  0.0298660 0.0000
 29   -515.1941821286  -0.009265965773 0.04059800  0.00065098  0.0308618 0.0000
 30   -515.1666846749   0.027497453646 0.01980082  0.00033148  0.0287769 0.0000
 31   -515.1612384026   0.005446272331 0.04371440  0.00077599  0.0274862 0.0000
 32   -515.1679839894  -0.006745586747 0.10497476  0.00150916  0.0301585 0.0000
 33   -515.1873380171  -0.019354027739 0.12741444  0.00165158  0.0335208 0.0000
 34   -515.2120046402  -0.024666623075 0.11600606  0.00146306  0.0334406 0.0000
 35   -515.1441083364   0.067896303723 0.16875956  0.00210707  0.0304683 0.0000
 36   -515.0963970431   0.047711293335 0.14053979  0.00192630  0.0231630 0.0000
 37   -515.1168999849  -0.020502941746 0.08698405  0.00138662  0.0146878 0.0000
 38   -515.2238413473  -0.106941362438 0.02734774  0.00054440  0.0078078 0.0000
 39   -515.2266863851  -0.002845037776 0.02132166  0.00044523  0.0052028 0.0000
               *** Restarting incremental Fock matrix formation ***
                                   *** Resetting DIIS ***
 40   -515.2642874878  -0.037601102756 0.01005984  0.00024487  0.0046059 0.0000
 41   -515.2692080493  -0.004920561438 0.00769640  0.00019181  0.0048198 0.0000
 42   -515.2589245271   0.010283522193 0.00820405  0.00023276  0.0048028 0.0000
 43   -515.2710665690  -0.012142041891 0.00672517  0.00017850  0.0049131 0.0000
 44   -515.3021019898  -0.031035420834 0.00367232  0.00007949  0.0050385 0.0000
 45   -515.3263468026  -0.024244812772 0.00164951  0.00003314  0.0050775 0.0000
 46   -515.3339799782  -0.007633175650 0.00124012  0.00002550  0.0051022 0.0000
 47   -515.3220811894   0.011898788865 0.00307033  0.00008049  0.0051510 0.0000
 48   -515.3110402721   0.011040917222 0.00431324  0.00010371  0.0053371 0.0000
 49   -515.3146401122  -0.003599840059 0.00331980  0.00006970  0.0055787 0.0000
 50   -515.3268876300  -0.012247517837 0.00147391  0.00002771  0.0057302 0.0000
 51   -515.3235708071   0.003316822966 0.00234520  0.00005233  0.0057759 0.0000
 52   -515.3211733128   0.002397494213 0.00307353  0.00006862  0.0059069 0.0000
 53   -515.3272049487  -0.006031635808 0.00298392  0.00006212  0.0060577 0.0000
 54   -515.3363741022  -0.009169153594 0.00258403  0.00005064  0.0061762 0.0000
 55   -515.3252574922   0.011116610064 0.00431204  0.00009195  0.0062598 0.0000
 56   -515.3200173566   0.005240135603 0.00496429  0.00010216  0.0064676 0.0000
 57   -515.3443858450  -0.024368488442 0.00189160  0.00003384  0.0066912 0.0000
 58   -515.3591326979  -0.014746852900 0.00111736  0.00001942  0.0067022 0.0000
 59   -515.3456635806   0.013469117344 0.00346795  0.00007334  0.0067210 0.0000
               *** Restarting incremental Fock matrix formation ***
                                   *** Resetting DIIS ***
 60   -515.2705719525   0.075091628034 0.01228795  0.00025900  0.0069093 0.0000
 61   -515.2879135166  -0.017341564059 0.01095916  0.00020617  0.0075718 0.0000
 62   -515.3889385598  -0.101025043234 0.00272404  0.00008136  0.0079350 0.0000
 63   -515.4108513138  -0.021912753946 0.00163947  0.00004032  0.0076383 0.0000
 64   -515.4142420742  -0.003390760409 0.00116459  0.00002360  0.0075416 0.0000
 65   -515.3167979259   0.097444148261 0.01232902  0.00026458  0.0074974 0.0000
 66   -515.2927256109   0.024072315001 0.01367362  0.00025654  0.0081632 0.0000
 67   -515.3441211423  -0.051395531386 0.00516823  0.00008557  0.0086588 0.0000
 68   -515.4630144225  -0.118893280182 0.00990837  0.00022815  0.0086824 0.0000
 69   -515.4178438778   0.045170544684 0.00166695  0.00003610  0.0081030 0.0000
 70   -515.3507914899   0.067052387900 0.00747692  0.00016227  0.0081578 0.0000
 71   -515.2964306675   0.054360822463 0.01465599  0.00028296  0.0085510 0.0000
 72   -515.3029035394  -0.006472871995 0.01384020  0.00024566  0.0091010 0.0000
 73   -515.4402951416  -0.137391602166 0.00483499  0.00015262  0.0094618 0.0000
 74   -515.4755909815  -0.035295839910 0.00614933  0.00012497  0.0090041 0.0000
 75   -515.4136493142   0.061941667323 0.00356377  0.00009106  0.0087565 0.0000
 76   -515.3145842826   0.099065031583 0.01662210  0.00033129  0.0090107 0.0000
 77   -515.2963595223   0.018224760356 0.01725459  0.00030910  0.0096853 0.0000
 78   -515.3735950389  -0.077235516629 0.00530967  0.00008771  0.0101257 0.0000
 79   -515.5325163275  -0.158921288560 0.01448473  0.00031690  0.0100634 0.0000
               *** Restarting incremental Fock matrix formation ***
                                   *** Resetting DIIS ***
 80   -515.2784309896   0.254085337819 0.01777407  0.00037923  0.0094114 0.0000
 81   -515.2780087652   0.000422224463 0.02149321  0.00039777  0.0102639 0.0000
 82   -515.3286446486  -0.050635883407 0.01579674  0.00027323  0.0107341 0.0000
 83   -515.5080465876  -0.179401939052 0.00719330  0.00021235  0.0108914 0.0000
 84   -515.5278944166  -0.019847828930 0.00559620  0.00010935  0.0104075 0.0000
 85   -515.4574948634   0.070399553157 0.00512378  0.00011898  0.0102805 0.0000
 86   -515.3228128496   0.134682013825 0.02141654  0.00043423  0.0105182 0.0000
 87   -515.2894865234   0.033326326172 0.02220293  0.00041393  0.0110878 0.0000
 88   -515.3381535551  -0.048667031708 0.01401434  0.00024642  0.0113613 0.0000
 89   -515.5004903608  -0.162336805695 0.00856216  0.00024485  0.0113417 0.0000
 90   -515.4890392260   0.011451134814 0.00301886  0.00005748  0.0109859 0.0000
 91   -515.3926487508   0.096390475170 0.01222761  0.00027428  0.0109943 0.0000
 92   -515.3242334022   0.068415348654 0.02059352  0.00042448  0.0112567 0.0000
 93   -515.2773659035   0.046867498690 0.02347098  0.00048415  0.0114189 0.0000
 94   -515.2856994716  -0.008333568078 0.02082012  0.00044206  0.0113797 0.0000
 95   -515.2585886497   0.027110821843 0.02249387  0.00052732  0.0110938 0.0000
 96   -515.2054580612   0.053130588552 0.02712439  0.00074557  0.0106054 0.0000
 97   -515.2501823961  -0.044724334967 0.02029865  0.00062620  0.0095581 0.0000
 98   -515.1941496012   0.056032794937 0.03159369  0.00094737  0.0082047 0.0000
 99   -515.3307736534  -0.136624052176 0.00753386  0.00022102  0.0058273 0.0000
               *** Restarting incremental Fock matrix formation ***
                                   *** Resetting DIIS ***
100   -515.3160299209   0.014743732467 0.00791423  0.00019552  0.0051572 0.0000
101   -515.3262430859  -0.010213165001 0.00814969  0.00021101  0.0045363 0.0000
102   -515.3413280837  -0.015084997836 0.01386972  0.00039313  0.0039495 0.0000
103   -515.3403433424   0.000984741319 0.01126187  0.00032909  0.0028331 0.0000
104   -515.3432412063  -0.002897863835 0.00935534  0.00027991  0.0020054 0.0000
105   -515.3373076238   0.005933582436 0.00638028  0.00019496  0.0016449 0.0000
106   -515.3380487732  -0.000741149357 0.00519173  0.00016666  0.0012956 0.0000
107   -515.3348432399   0.003205533317 0.00860035  0.00026834  0.0009872 0.0000
108   -515.3220153653   0.012827874561 0.00280452  0.00008768  0.0008626 0.0000
109   -515.3207992064   0.001216158867 0.00201495  0.00006285  0.0008641 0.0000
110   -515.3211284746  -0.000329268145 0.00238948  0.00007224  0.0008638 0.0000
111   -515.3214605874  -0.000332112873 0.00276648  0.00008406  0.0008614 0.0000
112   -515.3232021245  -0.001741537079 0.00296169  0.00009972  0.0008581 0.0000
113   -515.3229393120   0.000262812539 0.00261126  0.00009805  0.0008530 0.0000
114   -515.3228912915   0.000048020444 0.00235718  0.00010197  0.0008473 0.0000
115   -515.3229954368  -0.000104145209 0.00265973  0.00011621  0.0008411 0.0000
116   -515.3230749677  -0.000079530950 0.00327668  0.00013470  0.0008333 0.0000
117   -515.3230206470   0.000054320747 0.00404495  0.00015789  0.0008227 0.0000
118   -515.3226234633   0.000397183632 0.00453863  0.00016888  0.0008074 0.0000
119   -515.3224328988   0.000190564558 0.00580715  0.00020945  0.0007869 0.0000
               *** Restarting incremental Fock matrix formation ***
                                   *** Resetting DIIS ***
120   -515.3213092896   0.001123609149 0.00097941  0.00003436  0.0007584 0.0000
121   -515.3216701524  -0.000360862805 0.00107982  0.00003971  0.0007551 0.0000
122   -515.3216460845   0.000024067887 0.00141766  0.00005222  0.0007526 0.0000
123   -515.3216947648  -0.000048680265 0.00228866  0.00008409  0.0007512 0.0000
124   -515.3213745263   0.000320238510 0.00485024  0.00017672  0.0007477 0.0000

               *****************************************************
               *                      ERROR                        *
               *        SCF NOT CONVERGED AFTER 125 CYCLES         *
               *****************************************************


---------------
SCF CONVERGENCE
---------------

  Last Energy change         ...    3.2024e-04  Tolerance :   1.0000e-08
  Last MAX-Density change    ...    4.8502e-03  Tolerance :   1.0000e-07
  Last RMS-Density change    ...    1.7672e-04  Tolerance :   5.0000e-09
  Last DIIS Error            ...    7.4768e-04  Tolerance :   5.0000e-07

     --------------------------------------------------------------------
                                      ERROR
     This wavefunction IS NOT CONVERGED! 
     But SCFConvergence was forced (by user or by method)
     Aborting ...
     --------------------------------------------------------------------



ORCA finished by error termination in SCF
Calling Command: mpirun -np 24  /sw/apps/orca/orca_4_2_0_linux_x86-64_openmpi314/orca_scf_mpi 59_Pr.gbw b 59_Pr 
[file orca_tools/qcmsg.cpp, line 458]: 
  .... aborting the run

