
                                 *****************
                                 * O   R   C   A *
                                 *****************

           --- An Ab Initio, DFT and Semiempirical electronic structure package ---

                  #######################################################
                  #                        -***-                        #
                  #          Department of theory and spectroscopy      #
                  #               Directorship: Frank Neese             #
                  #        Max Planck Institute fuer Kohlenforschung    #
                  #                Kaiser Wilhelm Platz 1               #
                  #                 D-45470 Muelheim/Ruhr               #
                  #                      Germany                        #
                  #                                                     #
                  #                  All rights reserved                #
                  #                        -***-                        #
                  #######################################################


                         Program Version 4.2.0 -  RELEASE  -


 With contributions from (in alphabetic order):
   Daniel Aravena         : Magnetic Suceptibility
   Michael Atanasov       : Ab Initio Ligand Field Theory (pilot matlab implementation)
   Alexander A. Auer      : GIAO ZORA, VPT2
   Ute Becker             : Parallelization
   Giovanni Bistoni       : ED, misc. LED, open-shell LED, HFLED
   Martin Brehm           : Molecular dynamics
   Dmytro Bykov           : SCF Hessian
   Vijay G. Chilkuri      : MRCI spin determinant printing, contributions to CSF-ICE
   Dipayan Datta          : RHF DLPNO-CCSD density
   Achintya Kumar Dutta   : EOM-CC, STEOM-CC
   Dmitry Ganyushin       : Spin-Orbit,Spin-Spin,Magnetic field MRCI
   Miquel Garcia          : C-PCM Hessian, Gaussian charge scheme
   Yang Guo               : DLPNO-NEVPT2, CIM, IAO-localization
   Andreas Hansen         : Spin unrestricted coupled pair/coupled cluster methods
   Benjamin Helmich-Paris : CASSCF linear response (MC-RPA)
   Lee Huntington         : MR-EOM, pCC
   Robert Izsak           : Overlap fitted RIJCOSX, COSX-SCS-MP3, EOM
   Christian Kollmar      : KDIIS, OOCD, Brueckner-CCSD(T), CCSD density
   Simone Kossmann        : Meta GGA functionals, TD-DFT gradient, OOMP2, MP2 Hessian
   Martin Krupicka        : AUTO-CI
   Lucas Lang             : DCDCAS
   Dagmar Lenk            : GEPOL surface, SMD
   Dimitrios Liakos       : Extrapolation schemes; Compound Job, initial MDCI parallelization
   Dimitrios Manganas     : Further ROCIS development; embedding schemes
   Dimitrios Pantazis     : SARC Basis sets
   Taras Petrenko         : DFT Hessian,TD-DFT gradient, ASA, ECA, R-Raman, ABS, FL, XAS/XES, NRVS
   Peter Pinski           : DLPNO-MP2, DLPNO-MP2 Gradient
   Christoph Reimann      : Effective Core Potentials
   Marius Retegan         : Local ZFS, SOC
   Christoph Riplinger    : Optimizer, TS searches, QM/MM, DLPNO-CCSD(T), (RO)-DLPNO pert. Triples
   Tobias Risthaus        : Range-separated hybrids, TD-DFT gradient, RPA, STAB
   Michael Roemelt        : Original ROCIS implementation
   Masaaki Saitow         : Open-shell DLPNO-CCSD energy and density
   Barbara Sandhoefer     : DKH picture change effects
   Avijit Sen             : IP-ROCIS
   Kantharuban Sivalingam : CASSCF convergence, NEVPT2, FIC-MRCI
   Bernardo de Souza      : ESD, SOC TD-DFT
   Georgi Stoychev        : AutoAux, RI-MP2 NMR
   Willem Van den Heuvel  : Paramagnetic NMR
   Boris Wezisla          : Elementary symmetry handling
   Frank Wennmohs         : Technical directorship


 We gratefully acknowledge several colleagues who have allowed us to
 interface, adapt or use parts of their codes:
   Stefan Grimme, W. Hujo, H. Kruse,             : VdW corrections, initial TS optimization,
                  C. Bannwarth                     DFT functionals, gCP, sTDA/sTD-DF
   Ed Valeev, F. Pavosevic, A. Kumar             : LibInt (2-el integral package), F12 methods
   Garnet Chan, S. Sharma, J. Yang, R. Olivares  : DMRG
   Ulf Ekstrom                                   : XCFun DFT Library
   Mihaly Kallay                                 : mrcc  (arbitrary order and MRCC methods)
   Andreas Klamt, Michael Diedenhofen            : otool_cosmo (COSMO solvation model)
   Jiri Pittner, Ondrej Demel                    : Mk-CCSD
   Frank Weinhold                                : gennbo (NPA and NBO analysis)
   Christopher J. Cramer and Donald G. Truhlar   : smd solvation model
   Lars Goerigk                                  : TD-DFT with DH, B97 family of functionals
   V. Asgeirsson, H. Jonsson                     : NEB implementation
   FAccTs GmbH                                   : IRC, NEB, NEB-TS, Multilevel, MM, QM/MM, CI optimization
   S Lehtola, MJT Oliveira, MAL Marques          : LibXC Library


 Your calculation uses the libint2 library for the computation of 2-el integrals
 For citations please refer to: http://libint.valeyev.net

 Your ORCA version has been built with support for libXC version: 4.2.3
 For citations please refer to: https://tddft.org/programs/libxc/

 This ORCA versions uses:
   CBLAS   interface :  Fast vector & matrix operations
   LAPACKE interface :  Fast linear algebra routines
   SCALAPACK package :  Parallel linear algebra routines


----- Orbital basis set information -----
Your calculation utilizes the basis: def2-TZVP
   F. Weigend and R. Ahlrichs, Phys. Chem. Chem. Phys. 7, 3297 (2005).

cite the ECPs for Nd [Def2-ECP] as follows:
Ce-Yb(ecp-28): M. Dolg, H. Stoll, H.Preuss, J. Chem. Phys., 1989, 90, 1730-1734.
Y-Cd(ecp-28), Hf-Hg(ecp-46): D. Andrae,U. Haeussermann, M. Dolg, H. Stoll, H. Preuss, Theor. Chim. Acta, 1990, 77, 123-141.
In-Sb(ecp-28), Tl-Bi(ecp-46): B. Metz, H. Stoll, M. Dolg, J. Chem. Phys., 2000, 113, 2563-2569.
Te-Xe(ecp-28), Po-Rn(ecp-46): K. A. Peterson, D. Figgen, E. Goll, H. Stoll, M. Dolg, J. Chem. Phys., 2003, 119, 11113-11123.
Rb(ecp-28), Cs(ecp-46): T. Leininger, A. Nicklass, W. Kuechle, H. Stoll, M. Dolg, A. Bergner, Chem. Phys. Lett., 1996, 255, 274-280.
Sr(ecp-28), Ba(ecp-46): M. Kaupp, P. V. Schleyer, H. Stoll and H. Preuss, J. Chem. Phys., 1991, 94, 1360-1366.
La(ecp-46): M. Dolg, H. Stoll, A. Savin, H. Preuss, Theor. Chim. Acta, 1989, 75, 173-194.
Lu(ecp-28): X. Cao, M. Dolg, J. Chem. Phys., 2001, 115, 7348-7355.

ECP parameters for Nd [Def2-ECP] have been obtained from:
TURBOMOLE (7.0.2)

================================================================================
                                        WARNINGS
                       Please study these warnings very carefully!
================================================================================


WARNING: your system is open-shell and RHF/RKS was chosen
  ===> : WILL SWITCH to UHF/UKS


WARNING: MDCI localization with Augmented Hessian Foster-Boys
  ===> : Switching off randomization!

WARNING: Post HF methods need fully converged wavefunctions
  ===> : Setting SCFConvForced true
         You can overwrite this default with %scf ConvForced false 


INFO   : the flag for use of LIBINT has been found!

================================================================================
                                       INPUT FILE
================================================================================
NAME = 60_Nd.in
|  1> #
|  2> # 60_Nd CCSD(T)/Def2-TZVP
|  3> #
|  4> ! CCSD(T) Def2-TZVP tightscf
|  5> 
|  6> *xyz 0 5
|  7>  Nd 0.0 0.0 0.0
|  8> *
|  9> 
| 10> %maxcore 5000 
| 11> 
| 12> %pal
| 13> nprocs 24
| 14> end
| 15> 
| 16> 
| 17>                          ****END OF INPUT****
================================================================================

                       ****************************
                       * Single Point Calculation *
                       ****************************

---------------------------------
CARTESIAN COORDINATES (ANGSTROEM)
---------------------------------
  Nd     0.000000    0.000000    0.000000

----------------------------
CARTESIAN COORDINATES (A.U.)
----------------------------
  NO LB      ZA    FRAG     MASS         X           Y           Z
   0 Nd   32.0000*   0   144.240    0.000000    0.000000    0.000000
* core charge reduced due to ECP

--------------------------------
INTERNAL COORDINATES (ANGSTROEM)
--------------------------------
 Nd     0   0   0     0.000000000000     0.00000000     0.00000000

---------------------------
INTERNAL COORDINATES (A.U.)
---------------------------
 Nd     0   0   0     0.000000000000     0.00000000     0.00000000

---------------------
BASIS SET INFORMATION
---------------------
There are 1 groups of distinct atoms

 Group   1 Type Nd  : 14s14p10d8f1g contracted to 10s7p5d4f1g pattern {5111111111/6311111/61111/5111/1}

Atom   0Nd   basis set group =>   1
-------------------------
ECP PARAMETER INFORMATION
-------------------------

 Group 1, Type Nd ECP Def2-ECP (replacing 28 core electrons, lmax=5)

Atom   0Nd   ECP group =>   1


Checking for AutoStart:
The File: 60_Nd.gbw exists
Trying to determine its content:
     ... Fine, the file contains calculation information
     ... Fine, the calculation information was read
     ... Fine, the file contains a basis set
     ... Fine, the basis set was read
     ... Fine, the file contains ECP parameters
     ... Fine, ECP parameters were read
     ... Fine, the file contains a geometry
     ... Fine, the geometry was read
     ... Fine, the file contains a set of orbitals
     ... Fine, the orbitals can be read
     => possible old guess file was deleted
     => GBW file was renamed to GES file
     => GES file is set as startup file
     => Guess is set to MORead
     ... now leaving AutoStart



           ************************************************************
           *        Program running with 24 parallel MPI-processes    *
           *              working on a common directory               *
           ************************************************************
------------------------------------------------------------------------------
                           ORCA GTO INTEGRAL CALCULATION
------------------------------------------------------------------------------

                         BASIS SET STATISTICS AND STARTUP INFO

 # of primitive gaussian shells          ...   47
 # of primitive gaussian functions       ...  171
 # of contracted shells                  ...   27
 # of contracted basis functions         ...   93
 Highest angular momentum                ...    4
 Maximum contraction depth               ...    6
 Integral package used                   ... LIBINT
 Integral threshhold            Thresh   ...  2.500e-11
 Primitive cut-off              TCut     ...  2.500e-12


------------------------------ INTEGRAL EVALUATION ----------------------------


 * One electron integrals 

   ECP integrals                         ... done
 Pre-screening matrix                    ... done
 Shell pair data                         ... done (   0.000 sec)



           ************************************************************
           *        Program running with 24 parallel MPI-processes    *
           *              working on a common directory               *
           ************************************************************
-------------------------------------------------------------------------------
                                 ORCA SCF
-------------------------------------------------------------------------------

------------
SCF SETTINGS
------------
Hamiltonian:
 Ab initio Hamiltonian  Method          .... Hartree-Fock(GTOs)


General Settings:
 Integral files         IntName         .... 60_Nd
 Hartree-Fock type      HFTyp           .... UHF
 Total Charge           Charge          ....    0
 Multiplicity           Mult            ....    5
 Number of Electrons    NEL             ....   32
 Basis Dimension        Dim             ....   93
 Nuclear Repulsion      ENuc            ....      0.0000000000 Eh

Convergence Acceleration:
 DIIS                   CNVDIIS         .... on
   Start iteration      DIISMaxIt       ....    12
   Startup error        DIISStart       ....  0.200000
   # of expansion vecs  DIISMaxEq       ....     5
   Bias factor          DIISBfac        ....   1.050
   Max. coefficient     DIISMaxC        ....  10.000
 Newton-Raphson         CNVNR           .... off
 SOSCF                  CNVSOSCF        .... off
 Level Shifting         CNVShift        .... on
   Level shift para.    LevelShift      ....    0.2500
   Turn off err/grad.   ShiftErr        ....    0.0010
 Zerner damping         CNVZerner       .... off
 Static damping         CNVDamp         .... on
   Fraction old density DampFac         ....    0.7000
   Max. Damping (<1)    DampMax         ....    0.9800
   Min. Damping (>=0)   DampMin         ....    0.0000
   Turn off err/grad.   DampErr         ....    0.1000
 Fernandez-Rico         CNVRico         .... off

SCF Procedure:
 Maximum # iterations   MaxIter         ....   125
 SCF integral mode      SCFMode         .... Direct
   Integral package                     .... LIBINT
 Reset frequency        DirectResetFreq ....    20
 Integral Threshold     Thresh          ....  2.500e-11 Eh
 Primitive CutOff       TCut            ....  2.500e-12 Eh

Convergence Tolerance:
 Convergence Check Mode ConvCheckMode   .... Total+1el-Energy
 Convergence forced     ConvForced      .... 1
 Energy Change          TolE            ....  1.000e-08 Eh
 1-El. energy change                    ....  1.000e-05 Eh
 DIIS Error             TolErr          ....  5.000e-07


Diagonalization of the overlap matrix:
Smallest eigenvalue                        ... 1.299e-03
Time for diagonalization                   ...    0.002 sec
Threshold for overlap eigenvalues          ... 1.000e-08
Number of eigenvalues below threshold      ... 0
Time for construction of square roots      ...    0.011 sec
Total time needed                          ...    0.013 sec

---------------------
INITIAL GUESS: MOREAD
---------------------
Guess MOs are being read from file: 60_Nd.ges
Input Geometry matches current geometry (good)
Input basis set matches current basis set (good)
MOs were renormalized
MOs were reorthogonalized (Cholesky)
                      ------------------
                      INITIAL GUESS DONE (   0.0 sec)
                      ------------------
--------------
SCF ITERATIONS
--------------
ITER       Energy         Delta-E        Max-DP      RMS-DP      [F,P]     Damp
               ***  Starting incremental Fock matrix formation  ***
  0   -559.3757759087   0.000000000000 0.01095426  0.00020692  0.0243649 0.7000
  1   -559.3769415545  -0.001165645893 0.01410126  0.00021733  0.0114734 0.7000
                               ***Turning on DIIS***
  2   -559.3783097953  -0.001368240711 0.04959298  0.00081697  0.0126835 0.0000
  3   -558.8356996025   0.542610192736 0.01412774  0.00027202  0.0202086 0.0000
  4   -558.6857006557   0.149998946833 0.01293893  0.00018469  0.0166589 0.0000
  5   -558.6493087282   0.036391927441 0.00702010  0.00010175  0.0168406 0.0000
  6   -558.6839195784  -0.034610850171 0.00333708  0.00005558  0.0173301 0.0000
  7   -559.4033899788  -0.719470400414 0.06339736  0.00113662  0.0165324 0.0000
  8   -558.8340308839   0.569359094965 0.01409266  0.00024330  0.0247118 0.0000
  9   -557.9270842774   0.906946606418 0.05341373  0.00089546  0.0246783 0.0000
 10   -558.0288845457  -0.101800268271 0.02244636  0.00036247  0.0267059 0.0000
 11   -558.3878186018  -0.358934056051 0.00479089  0.00011555  0.0249361 0.0000
 12   -558.9879458541  -0.600127252357 0.03069037  0.00061097  0.0192387 0.0000
 13   -558.6776520124   0.310293841751 0.00833806  0.00013710  0.0204312 0.0000
 14   -558.5460572484   0.131594764011 0.02149476  0.00029800  0.0193379 0.0000
 15   -558.1328669889   0.413190259491 0.02357036  0.00042185  0.0221368 0.0000
 16   -558.3041705592  -0.171303570307 0.00336120  0.00008703  0.0274457 0.0000
 17   -558.8031508786  -0.498980319373 0.03727491  0.00065497  0.0238788 0.0000
 18   -559.0601807550  -0.257029876406 0.04760014  0.00079512  0.0233929 0.0000
 19   -559.2081818263  -0.148001071385 0.07064233  0.00105253  0.0310162 0.0000
               *** Restarting incremental Fock matrix formation ***
                                   *** Resetting DIIS ***
 20   -559.4276438580  -0.219462031635 0.09850381  0.00158846  0.0375661 0.0000
 21   -558.6029404321   0.824703425913 0.04448420  0.00064457  0.0452990 0.0000
 22   -556.6071498891   1.995790542998 0.07480793  0.00138498  0.0423396 0.0000
 23   -556.4576907272   0.149459161840 0.03153691  0.00043901  0.0699604 0.0000
 24   -556.6897016364  -0.232010909217 0.01870555  0.00028178  0.0631564 0.0000
 25   -559.0815354699  -2.391833833451 0.15941743  0.00286203  0.0593048 0.0000
 26   -559.5532989932  -0.471763523285 0.12470263  0.00202569  0.0436188 0.0000
 27   -559.6175916974  -0.064292704264 0.13434519  0.00171792  0.0323479 0.0000
 28   -559.5326999913   0.084891706188 0.11057338  0.00121106  0.0162263 0.0000
 29   -559.5571589232  -0.024458931990 0.08142090  0.00083469  0.0066080 0.0000
 30   -559.5156936151   0.041465308171 0.04964694  0.00050697  0.0028907 0.0000
 31   -559.5285833369  -0.012889721784 0.03351229  0.00033449  0.0028060 0.0000
 32   -559.5442552172  -0.015671880319 0.03309227  0.00034445  0.0026788 0.0000
 33   -559.5325006021   0.011754615085 0.02690068  0.00031640  0.0023737 0.0000
 34   -559.5451676045  -0.012667002453 0.01074058  0.00016724  0.0020481 0.0000
 35   -559.5515861567  -0.006418552150 0.00297389  0.00010039  0.0017800 0.0000
 36   -559.5563345748  -0.004748418142 0.00281868  0.00008363  0.0015504 0.0000
 37   -559.5588882876  -0.002553712808 0.00299352  0.00007363  0.0014009 0.0000
 38   -559.5585733344   0.000314953235 0.00241419  0.00008091  0.0013747 0.0000
 39   -559.5591522243  -0.000578889842 0.00361824  0.00011964  0.0013505 0.0000
               *** Restarting incremental Fock matrix formation ***
                                   *** Resetting DIIS ***
 40   -559.5589304385   0.000221785775 0.00039809  0.00001434  0.0013213 0.0000
 41   -559.5593175291  -0.000387090661 0.00046720  0.00001571  0.0012580 0.0000
 42   -559.5587945437   0.000522985456 0.00063225  0.00002069  0.0012812 0.0000
 43   -559.5593628871  -0.000568343372 0.00113230  0.00003653  0.0012548 0.0000
 44   -559.5584692940   0.000893593100 0.00220023  0.00007090  0.0011840 0.0000
 45   -559.5589986084  -0.000529314423 0.00109097  0.00003586  0.0010723 0.0000
 46   -559.5590927543  -0.000094145886 0.00166304  0.00005419  0.0010050 0.0000
 47   -559.5592114852  -0.000118730961 0.00072461  0.00002517  0.0009533 0.0000
 48   -559.5594686340  -0.000257148771 0.00121648  0.00004025  0.0009685 0.0000
 49   -559.5594115272   0.000057106838 0.00051473  0.00001759  0.0009685 0.0000
 50   -559.5593957793   0.000015747863 0.00057807  0.00001206  0.0009667 0.0000
 51   -559.5594774020  -0.000081622676 0.00087385  0.00001161  0.0009568 0.0000
 52   -559.5593749664   0.000102435613 0.00048894  0.00000687  0.0009560 0.0000
 53   -559.5594569501  -0.000081983784 0.00045149  0.00001114  0.0009588 0.0000
 54   -559.5595592183  -0.000102268164 0.00093636  0.00001393  0.0009537 0.0000
 55   -559.5595489664   0.000010251946 0.00070217  0.00000945  0.0009495 0.0000
 56   -559.5595696948  -0.000020728455 0.00081385  0.00001074  0.0009481 0.0000
 57   -559.5595864546  -0.000016759753 0.00035701  0.00000525  0.0009480 0.0000
 58   -559.5595367067   0.000049747877 0.00156800  0.00002164  0.0009470 0.0000
 59   -559.5595750667  -0.000038360024 0.00013353  0.00000234  0.0010600 0.0000
               *** Restarting incremental Fock matrix formation ***
                                   *** Resetting DIIS ***
 60   -559.5595073662   0.000067700485 0.00170434  0.00003108  0.0010375 0.0000
 61   -559.5595624781  -0.000055111895 0.00190009  0.00003325  0.0013235 0.0000
 62   -559.5597487756  -0.000186297481 0.00116724  0.00001432  0.0016541 0.0000
 63   -559.5598087453  -0.000059969658 0.00083581  0.00000921  0.0017879 0.0000
 64   -559.5599300710  -0.000121325697 0.00060305  0.00000942  0.0018793 0.0000
 65   -559.5597474954   0.000182575608 0.00167540  0.00002963  0.0018365 0.0000
 66   -559.5598672694  -0.000119774015 0.00131027  0.00002215  0.0021102 0.0000
 67   -559.5600819694  -0.000214700073 0.00063796  0.00001192  0.0023454 0.0000
 68   -559.5599582650   0.000123704444 0.00098649  0.00001411  0.0023518 0.0000
 69   -559.5598140347   0.000144230277 0.00203051  0.00003654  0.0025044 0.0000
 70   -559.5598841969  -0.000070162225 0.00260589  0.00004637  0.0028753 0.0000
 71   -559.5605727655  -0.000688568529 0.00125378  0.00002278  0.0033556 0.0000
 72   -559.5606873805  -0.000114615047 0.00083062  0.00001016  0.0034043 0.0000
 73   -559.5607628414  -0.000075460921 0.00085049  0.00001325  0.0034671 0.0000
 74   -559.5604927077   0.000270133794 0.00347108  0.00005722  0.0036040 0.0000
 75   -559.5610991930  -0.000606485301 0.00218084  0.00002720  0.0041670 0.0000
 76   -559.5613873591  -0.000288166192 0.00102179  0.00001627  0.0044315 0.0000
 77   -559.5610455132   0.000341845941 0.00111936  0.00002012  0.0044623 0.0000
 78   -559.5608577773   0.000187735871 0.00121147  0.00002057  0.0046766 0.0000
 79   -559.5602244394   0.000633337982 0.00305677  0.00005105  0.0048895 0.0000
               *** Restarting incremental Fock matrix formation ***
                                   *** Resetting DIIS ***
 80   -559.5599232813   0.000301158066 0.00862375  0.00015059  0.0054069 0.0000
 81   -559.5615677579  -0.001644476576 0.00824297  0.00014008  0.0069311 0.0000
 82   -559.5683872498  -0.006819491900 0.00826081  0.00012522  0.0083872 0.0000
 83   -559.5688631707  -0.000475920985 0.00450783  0.00006500  0.0076647 0.0000
 84   -559.5689190043  -0.000055833553 0.00259485  0.00004276  0.0071273 0.0000
 85   -559.5640679235   0.004851080824 0.00471700  0.00007983  0.0067052 0.0000
 86   -559.5594909202   0.004577003275 0.01551531  0.00025006  0.0074256 0.0000
 87   -559.5645488141  -0.005057893892 0.00954954  0.00013681  0.0097658 0.0000
 88   -559.5732723878  -0.008723573692 0.00485711  0.00008094  0.0111974 0.0000
 89   -559.5756519020  -0.002379514261 0.00481105  0.00006943  0.0110286 0.0000
 90   -559.5760717521  -0.000419850018 0.00268267  0.00004143  0.0105631 0.0000
 91   -559.5682160167   0.007855735410 0.01442517  0.00022902  0.0101976 0.0000
 92   -559.5696802880  -0.001464271352 0.00874918  0.00013473  0.0121655 0.0000
 93   -559.5670691493   0.002611138662 0.00690335  0.00009629  0.0134588 0.0000
 94   -559.5645659943   0.002503155016 0.00911840  0.00016748  0.0143654 0.0000
 95   -559.5702970228  -0.005731028503 0.00833098  0.00013354  0.0159744 0.0000
 96   -559.5905427199  -0.020245697082 0.00922506  0.00014955  0.0172533 0.0000
 97   -559.5930096265  -0.002466906551 0.00070557  0.00002147  0.0163229 0.0000
 98   -559.5925522944   0.000457332101 0.00689342  0.00013505  0.0164409 0.0000
 99   -559.5866671069   0.005885187477 0.01866905  0.00034890  0.0175793 0.0000
               *** Restarting incremental Fock matrix formation ***
                                   *** Resetting DIIS ***
100   -559.5654268107   0.021240296209 0.02871994  0.00057884  0.0204648 0.0000
101   -559.5787604069  -0.013333596179 0.02127470  0.00043507  0.0248451 0.0000
102   -559.6498115358  -0.071051128980 0.02429252  0.00042164  0.0278322 0.0000
103   -559.6413421469   0.008469388967 0.01244996  0.00021635  0.0262371 0.0000
104   -559.6324141194   0.008928027468 0.00690687  0.00014119  0.0249832 0.0000
105   -559.5977656061   0.034648513329 0.02509232  0.00047592  0.0239671 0.0000
106   -559.5779104280   0.019855178100 0.04095262  0.00084126  0.0268938 0.0000
107   -559.6062112519  -0.028300823945 0.03148645  0.00053215  0.0312258 0.0000
108   -559.6522525064  -0.046041254519 0.01306311  0.00022490  0.0334447 0.0000
109   -559.7263368236  -0.074084317173 0.02260048  0.00048400  0.0341949 0.0000
110   -559.7068915134   0.019445310212 0.01232270  0.00022810  0.0330187 0.0000
111   -559.6205785555   0.086312957944 0.03380805  0.00068252  0.0321143 0.0000
112   -559.5956925244   0.024886031014 0.05447176  0.00091958  0.0340781 0.0000
113   -559.6017151583  -0.006022633862 0.05886750  0.00091625  0.0355172 0.0000
114   -559.6081507771  -0.006435618807 0.05903359  0.00090498  0.0351008 0.0000
115   -559.5147767020   0.093374075107 0.08879802  0.00151744  0.0330550 0.0000
116   -559.4735068750   0.041269826998 0.11425473  0.00188471  0.0268472 0.0000
117   -559.4934667096  -0.019959834551 0.09490907  0.00144249  0.0170742 0.0000
118   -559.5899508064  -0.096484096868 0.03869003  0.00063642  0.0083292 0.0000
119   -559.6196820611  -0.029731254672 0.01637567  0.00034207  0.0047718 0.0000
               *** Restarting incremental Fock matrix formation ***
                                   *** Resetting DIIS ***
120   -559.6308483580  -0.011166296934 0.00739480  0.00016038  0.0029257 0.0000
121   -559.6312819913  -0.000433633294 0.00632503  0.00013809  0.0021197 0.0000
122   -559.6301444825   0.001137508783 0.00710989  0.00016967  0.0016740 0.0000
123   -559.6276918370   0.002452645536 0.00868541  0.00022529  0.0012806 0.0000
124   -559.6293298527  -0.001638015729 0.00694883  0.00017414  0.0011461 0.0000

               *****************************************************
               *                      ERROR                        *
               *        SCF NOT CONVERGED AFTER 125 CYCLES         *
               *****************************************************


---------------
SCF CONVERGENCE
---------------

  Last Energy change         ...   -1.6380e-03  Tolerance :   1.0000e-08
  Last MAX-Density change    ...    6.9488e-03  Tolerance :   1.0000e-07
  Last RMS-Density change    ...    1.7414e-04  Tolerance :   5.0000e-09
  Last DIIS Error            ...    1.1461e-03  Tolerance :   5.0000e-07

     --------------------------------------------------------------------
                                      ERROR
     This wavefunction IS NOT CONVERGED! 
     But SCFConvergence was forced (by user or by method)
     Aborting ...
     --------------------------------------------------------------------



ORCA finished by error termination in SCF
Calling Command: mpirun -np 24  /sw/apps/orca/orca_4_2_0_linux_x86-64_openmpi314/orca_scf_mpi 60_Nd.gbw b 60_Nd 
[file orca_tools/qcmsg.cpp, line 458]: 
  .... aborting the run

