
                                 *****************
                                 * O   R   C   A *
                                 *****************

           --- An Ab Initio, DFT and Semiempirical electronic structure package ---

                  #######################################################
                  #                        -***-                        #
                  #          Department of theory and spectroscopy      #
                  #               Directorship: Frank Neese             #
                  #        Max Planck Institute fuer Kohlenforschung    #
                  #                Kaiser Wilhelm Platz 1               #
                  #                 D-45470 Muelheim/Ruhr               #
                  #                      Germany                        #
                  #                                                     #
                  #                  All rights reserved                #
                  #                        -***-                        #
                  #######################################################


                         Program Version 4.2.0 -  RELEASE  -


 With contributions from (in alphabetic order):
   Daniel Aravena         : Magnetic Suceptibility
   Michael Atanasov       : Ab Initio Ligand Field Theory (pilot matlab implementation)
   Alexander A. Auer      : GIAO ZORA, VPT2
   Ute Becker             : Parallelization
   Giovanni Bistoni       : ED, misc. LED, open-shell LED, HFLED
   Martin Brehm           : Molecular dynamics
   Dmytro Bykov           : SCF Hessian
   Vijay G. Chilkuri      : MRCI spin determinant printing, contributions to CSF-ICE
   Dipayan Datta          : RHF DLPNO-CCSD density
   Achintya Kumar Dutta   : EOM-CC, STEOM-CC
   Dmitry Ganyushin       : Spin-Orbit,Spin-Spin,Magnetic field MRCI
   Miquel Garcia          : C-PCM Hessian, Gaussian charge scheme
   Yang Guo               : DLPNO-NEVPT2, CIM, IAO-localization
   Andreas Hansen         : Spin unrestricted coupled pair/coupled cluster methods
   Benjamin Helmich-Paris : CASSCF linear response (MC-RPA)
   Lee Huntington         : MR-EOM, pCC
   Robert Izsak           : Overlap fitted RIJCOSX, COSX-SCS-MP3, EOM
   Christian Kollmar      : KDIIS, OOCD, Brueckner-CCSD(T), CCSD density
   Simone Kossmann        : Meta GGA functionals, TD-DFT gradient, OOMP2, MP2 Hessian
   Martin Krupicka        : AUTO-CI
   Lucas Lang             : DCDCAS
   Dagmar Lenk            : GEPOL surface, SMD
   Dimitrios Liakos       : Extrapolation schemes; Compound Job, initial MDCI parallelization
   Dimitrios Manganas     : Further ROCIS development; embedding schemes
   Dimitrios Pantazis     : SARC Basis sets
   Taras Petrenko         : DFT Hessian,TD-DFT gradient, ASA, ECA, R-Raman, ABS, FL, XAS/XES, NRVS
   Peter Pinski           : DLPNO-MP2, DLPNO-MP2 Gradient
   Christoph Reimann      : Effective Core Potentials
   Marius Retegan         : Local ZFS, SOC
   Christoph Riplinger    : Optimizer, TS searches, QM/MM, DLPNO-CCSD(T), (RO)-DLPNO pert. Triples
   Tobias Risthaus        : Range-separated hybrids, TD-DFT gradient, RPA, STAB
   Michael Roemelt        : Original ROCIS implementation
   Masaaki Saitow         : Open-shell DLPNO-CCSD energy and density
   Barbara Sandhoefer     : DKH picture change effects
   Avijit Sen             : IP-ROCIS
   Kantharuban Sivalingam : CASSCF convergence, NEVPT2, FIC-MRCI
   Bernardo de Souza      : ESD, SOC TD-DFT
   Georgi Stoychev        : AutoAux, RI-MP2 NMR
   Willem Van den Heuvel  : Paramagnetic NMR
   Boris Wezisla          : Elementary symmetry handling
   Frank Wennmohs         : Technical directorship


 We gratefully acknowledge several colleagues who have allowed us to
 interface, adapt or use parts of their codes:
   Stefan Grimme, W. Hujo, H. Kruse,             : VdW corrections, initial TS optimization,
                  C. Bannwarth                     DFT functionals, gCP, sTDA/sTD-DF
   Ed Valeev, F. Pavosevic, A. Kumar             : LibInt (2-el integral package), F12 methods
   Garnet Chan, S. Sharma, J. Yang, R. Olivares  : DMRG
   Ulf Ekstrom                                   : XCFun DFT Library
   Mihaly Kallay                                 : mrcc  (arbitrary order and MRCC methods)
   Andreas Klamt, Michael Diedenhofen            : otool_cosmo (COSMO solvation model)
   Jiri Pittner, Ondrej Demel                    : Mk-CCSD
   Frank Weinhold                                : gennbo (NPA and NBO analysis)
   Christopher J. Cramer and Donald G. Truhlar   : smd solvation model
   Lars Goerigk                                  : TD-DFT with DH, B97 family of functionals
   V. Asgeirsson, H. Jonsson                     : NEB implementation
   FAccTs GmbH                                   : IRC, NEB, NEB-TS, Multilevel, MM, QM/MM, CI optimization
   S Lehtola, MJT Oliveira, MAL Marques          : LibXC Library


 Your calculation uses the libint2 library for the computation of 2-el integrals
 For citations please refer to: http://libint.valeyev.net

 Your ORCA version has been built with support for libXC version: 4.2.3
 For citations please refer to: https://tddft.org/programs/libxc/

 This ORCA versions uses:
   CBLAS   interface :  Fast vector & matrix operations
   LAPACKE interface :  Fast linear algebra routines
   SCALAPACK package :  Parallel linear algebra routines


----- Orbital basis set information -----
Your calculation utilizes the basis: def2-SVP
   F. Weigend and R. Ahlrichs, Phys. Chem. Chem. Phys. 7, 3297 (2005).

----- AuxJ basis set information -----
Your calculation utilizes the auxiliary basis: def2/J
   F. Weigend, Phys. Chem. Chem. Phys. 8, 1057 (2006).

================================================================================
                                        WARNINGS
                       Please study these warnings very carefully!
================================================================================


INFO   : the flag for use of LIBINT has been found!

================================================================================
                                       INPUT FILE
================================================================================
NAME = 63_Eu_atom63.inp
|  1> # input to generate an atomic fitting density for Eu
|  2> # this file is use internally by ORCA
|  3> #
|  4> # atomic ground state (S=8): 1s2 2s2 2p6 3s2 3p6 4s2 3d10 4p6 5s2 4d10 5p6 4f7 6s2 
|  5> #
|  6> ! RHF AllowRHF def2-SVP def2/J  NoMulliken NoLoewdin NoMayer NoPrintMOs 
|  7> 
|  8> %output print[p_atomdensfit] 2 end
|  9> 
| 10> %scf
| 11>   guess hcore
| 12>   maxiter 1000
| 13>   maxdisk 500000
| 14>   SCFMode Conventional
| 15>   lshift 0.300000
| 16>   hftyp rohf
| 17>   rohf_case sahf
| 18>   rohf_numop   2
| 19>   rohf_norb[1] 7
| 20>   rohf_nel[1]  7
| 21> end
| 22> 
| 23> %basis
| 24>   NewECP 63
| 25>     N_core 28
| 26>     lmax h
| 27>     s 1
| 28>       1      23.4713840000    607.6593310000  2
| 29>     p 1
| 30>       1      16.7724790000    264.3854760000  2
| 31>     d 1
| 32>       1      13.9813430000    115.3813750000  2
| 33>     f 1
| 34>       1      23.9628880000    -49.4007940000  2
| 35>     g 1
| 36>       1      21.2324580000    -26.7482730000  2
| 37>     h 1
| 38>       1       1.0000000000      0.0000000000  2
| 39>   end
| 40>   NewGTO 63
| 41>     s 5 
| 42>      1   70059.4200000000      0.0035068762
| 43>      2   10776.2350000000      0.0255604276
| 44>      3    2482.4901000000      0.1215476060
| 45>      4     702.1526000000      0.3689812217
| 46>      5     216.7926000000      0.6000373639
| 47>     s 1 
| 48>      1      41.4950000000      1.0000000000
| 49>     s 1 
| 50>      1      29.4969000000      1.0000000000
| 51>     s 1 
| 52>      1      15.0309000000      1.0000000000
| 53>     s 1 
| 54>      1       3.7772000000      1.0000000000
| 55>     s 1 
| 56>      1       1.9219000000      1.0000000000
| 57>     s 1 
| 58>      1       0.7131000000      1.0000000000
| 59>     s 1 
| 60>      1       0.3097000000      1.0000000000
| 61>     s 1 
| 62>      1       0.0549000000      1.0000000000
| 63>     s 1 
| 64>      1       0.0227000000      1.0000000000
| 65>     p 6 
| 66>      1    1545.4788969000     -0.0009825248
| 67>      2     348.7976221300     -0.0076867969
| 68>      3     105.5294352900     -0.0262349741
| 69>      4      25.6179974540     -0.3472139479
| 70>      5      15.7844303300      1.1193353458
| 71>      6       3.3852871239     -1.2034900506
| 72>     p 3 
| 73>      1       7.4940301111     -0.2179609313
| 74>      2       4.5438093966     -0.4824548283
| 75>      3       2.0144742222     -0.3693746377
| 76>     p 1 
| 77>      1       1.1083886524      1.0000000000
| 78>     p 1 
| 79>      1       0.5114264888      1.0000000000
| 80>     p 1 
| 81>      1       0.2256141529      1.0000000000
| 82>     p 1 
| 83>      1       0.0760001815      1.0000000000
| 84>     p 1 
| 85>      1       0.0271170305      1.0000000000
| 86>     d 6 
| 87>      1     389.0841000000      0.0007655981
| 88>      2     117.7602000000      0.0061047131
| 89>      3      44.9869000000      0.0246023665
| 90>      4      22.8599000000      0.0178166438
| 91>      5       7.8331000000      0.3876965927
| 92>      6       4.1134000000      0.6383883987
| 93>     d 1 
| 94>      1       2.0999000000      1.0000000000
| 95>     d 1 
| 96>      1       1.0043000000      1.0000000000
| 97>     d 1 
| 98>      1       0.3422000000      1.0000000000
| 99>     d 1 
|100>      1       0.1051000000      1.0000000000
|101>     f 5 
|102>      1     128.2341000000      0.0053408106
|103>      2      46.2685000000      0.0535219725
|104>      3      20.7366000000      0.1921599943
|105>      4       9.4479000000      0.3927991494
|106>      5       4.3149000000      0.5479509450
|107>     f 1 
|108>      1       1.9121000000      1.0000000000
|109>     f 1 
|110>      1       0.7897000000      1.0000000000
|111>     f 1 
|112>      1       0.2859000000      1.0000000000
|113>   end
|114>   NewAuxGTO 63
|115>     S 1
|116>      1 1310.72 1.0
|117>     S 1
|118>      1  655.36 1.0
|119>     S 1
|120>      1  327.68 1.0
|121>     S 1
|122>      1  163.84 1.0
|123>     S 1
|124>      1   81.82 1.0
|125>     S 1
|126>      1   40.96 1.0
|127>     S 1
|128>      1   20.48 1.0
|129>     S 1
|130>      1   10.24 1.0
|131>     S 1
|132>      1    5.12 1.0
|133>     S 1
|134>      1    2.56 1.0
|135>     S 1
|136>      1    1.28 1.0
|137>     S 1
|138>      1    0.64 1.0
|139>     S 1
|140>      1    0.32 1.0
|141>     S 1
|142>      1    0.16 1.0
|143>     S 1
|144>      1    0.08 1.0
|145>     S 1
|146>      1    0.04 1.0
|147>     S 1
|148>      1    0.02 1.0
|149>     S 1
|150>      1    0.01 1.0
|151>   end
|152> end
|153> 
|154> * xyz 0 8
|155> 63  0.0 0.0 0.0
|156> *
|157> 
|158> 
|159>                          ****END OF INPUT****
================================================================================

                       ****************************
                       * Single Point Calculation *
                       ****************************

---------------------------------
CARTESIAN COORDINATES (ANGSTROEM)
---------------------------------
  Eu     0.000000    0.000000    0.000000

----------------------------
CARTESIAN COORDINATES (A.U.)
----------------------------
  NO LB      ZA    FRAG     MASS         X           Y           Z
   0 Eu   35.0000*   0   151.960    0.000000    0.000000    0.000000
* core charge reduced due to ECP

--------------------------------
INTERNAL COORDINATES (ANGSTROEM)
--------------------------------
 Eu     0   0   0     0.000000000000     0.00000000     0.00000000

---------------------------
INTERNAL COORDINATES (A.U.)
---------------------------
 Eu     0   0   0     0.000000000000     0.00000000     0.00000000

---------------------
BASIS SET INFORMATION
---------------------
There are 1 groups of distinct atoms

 Group   1 Type Eu  : 14s14p10d8f contracted to 10s7p5d4f pattern {5111111111/6311111/61111/5111}

Atom   0Eu   basis set group =>   1
---------------------------------
AUXILIARY/J BASIS SET INFORMATION
---------------------------------
There are 1 groups of distinct atoms

 Group   1 Type Eu  : 18s contracted to 18s pattern {111111111111111111}

Atom   0Eu   basis set group =>   1
-------------------------
ECP PARAMETER INFORMATION
-------------------------

 Group 1, Type Eu ECP (replacing 28 core electrons, lmax=5)

Atom   0Eu   ECP group =>   1

------------------------------------------------------------------------------
                           ORCA GTO INTEGRAL CALCULATION
------------------------------------------------------------------------------

                         BASIS SET STATISTICS AND STARTUP INFO

 # of primitive gaussian shells          ...   46
 # of primitive gaussian functions       ...  162
 # of contracted shells                  ...   26
 # of contracted basis functions         ...   84
 Highest angular momentum                ...    3
 Maximum contraction depth               ...    6
 Integral package used                   ... LIBINT
 Integral threshhold            Thresh   ...  1.000e-10
 Primitive cut-off              TCut     ...  1.000e-11
 Storage cut-off                TCutStore... -1.000e+00
 Buffer length                           ... 1048576 integrals/buffer
 Generate file with integrals 4 distinct ...false


------------------------------ INTEGRAL EVALUATION ----------------------------


 * One electron integrals 

   ECP integrals                         ... done
 Pre-screening matrix                    ... done
 Shell pair data                         ... done (   0.000 sec)
 Statistics run                          ... done
 Maximum amount of storage needed        ...    75 MB
 Maximum amount of storage dedicated     ... 500000 MB
 Beginning two electron integral evaluation:
 Starting repulsion integrals
  <ss|ss>  ...         1540 b.         0 skpd (  0.0%)     0.000 s. (  0.000 ms/b)
  <ss|sp>  ...         3850 b.         0 skpd (  0.0%)     0.001 s. (  0.000 ms/b)
  <ss|sd>  ...         2750 b.         0 skpd (  0.0%)     0.001 s. (  0.001 ms/b)
  <ss|sf>  ...         2200 b.         0 skpd (  0.0%)     0.002 s. (  0.001 ms/b)
  <ss|pp>  ...         1540 b.         0 skpd (  0.0%)     0.001 s. (  0.001 ms/b)
  <ss|pd>  ...         1925 b.         0 skpd (  0.0%)     0.002 s. (  0.001 ms/b)
  <ss|pf>  ...         1540 b.         0 skpd (  0.0%)     0.003 s. (  0.002 ms/b)
  <ss|dd>  ...          825 b.         0 skpd (  0.0%)     0.002 s. (  0.002 ms/b)
  <ss|df>  ...         1100 b.         0 skpd (  0.0%)     0.003 s. (  0.003 ms/b)
  <ss|ff>  ...          550 b.         0 skpd (  0.0%)     0.003 s. (  0.005 ms/b)
  <sp|sp>  ...         2485 b.         0 skpd (  0.0%)     0.002 s. (  0.001 ms/b)
  <sp|sd>  ...         3500 b.         0 skpd (  0.0%)     0.004 s. (  0.001 ms/b)
  <sp|sf>  ...         2799 b.         1 skpd (  0.0%)     0.005 s. (  0.002 ms/b)
  <sp|pp>  ...         1960 b.         0 skpd (  0.0%)     0.004 s. (  0.002 ms/b)
  <sp|pd>  ...         2450 b.         0 skpd (  0.0%)     0.007 s. (  0.003 ms/b)
  <sp|pf>  ...         1960 b.         0 skpd (  0.0%)     0.009 s. (  0.005 ms/b)
  <sp|dd>  ...         1050 b.         0 skpd (  0.0%)     0.006 s. (  0.006 ms/b)
  <sp|df>  ...         1400 b.         0 skpd (  0.0%)     0.011 s. (  0.008 ms/b)
  <sp|ff>  ...          700 b.         0 skpd (  0.0%)     0.010 s. (  0.014 ms/b)
  <sd|sd>  ...         1274 b.         1 skpd (  0.1%)     0.003 s. (  0.002 ms/b)
  <sd|sf>  ...         1996 b.         4 skpd (  0.2%)     0.007 s. (  0.003 ms/b)
  <sd|pp>  ...         1400 b.         0 skpd (  0.0%)     0.012 s. (  0.009 ms/b)
  <sd|pd>  ...         1750 b.         0 skpd (  0.0%)     0.012 s. (  0.007 ms/b)
  <sd|pf>  ...         1400 b.         0 skpd (  0.0%)     0.014 s. (  0.010 ms/b)
  <sd|dd>  ...          750 b.         0 skpd (  0.0%)     0.010 s. (  0.014 ms/b)
  <sd|df>  ...         1000 b.         0 skpd (  0.0%)     0.021 s. (  0.021 ms/b)
  <sd|ff>  ...          500 b.         0 skpd (  0.0%)     0.020 s. (  0.039 ms/b)
  <sf|sf>  ...          814 b.         6 skpd (  0.7%)     0.006 s. (  0.007 ms/b)
  <sf|pp>  ...         1120 b.         0 skpd (  0.0%)     0.009 s. (  0.008 ms/b)
  <sf|pd>  ...         1400 b.         0 skpd (  0.0%)     0.019 s. (  0.014 ms/b)
  <sf|pf>  ...         1120 b.         0 skpd (  0.0%)     0.031 s. (  0.028 ms/b)
  <sf|dd>  ...          600 b.         0 skpd (  0.0%)     0.018 s. (  0.031 ms/b)
  <sf|df>  ...          800 b.         0 skpd (  0.0%)     0.039 s. (  0.049 ms/b)
  <sf|ff>  ...          400 b.         0 skpd (  0.0%)     0.038 s. (  0.095 ms/b)
  <pp|pp>  ...          406 b.         0 skpd (  0.0%)     0.003 s. (  0.007 ms/b)
  <pp|pd>  ...          980 b.         0 skpd (  0.0%)     0.011 s. (  0.011 ms/b)
  <pp|pf>  ...          784 b.         0 skpd (  0.0%)     0.014 s. (  0.018 ms/b)
  <pp|dd>  ...          420 b.         0 skpd (  0.0%)     0.010 s. (  0.023 ms/b)
  <pp|df>  ...          560 b.         0 skpd (  0.0%)     0.019 s. (  0.034 ms/b)
  <pp|ff>  ...          280 b.         0 skpd (  0.0%)     0.018 s. (  0.065 ms/b)
  <pd|pd>  ...          630 b.         0 skpd (  0.0%)     0.021 s. (  0.033 ms/b)
  <pd|pf>  ...          980 b.         0 skpd (  0.0%)     0.034 s. (  0.035 ms/b)
  <pd|dd>  ...          525 b.         0 skpd (  0.0%)     0.024 s. (  0.047 ms/b)
  <pd|df>  ...          700 b.         0 skpd (  0.0%)     0.052 s. (  0.074 ms/b)
  <pd|ff>  ...          350 b.         0 skpd (  0.0%)     0.057 s. (  0.162 ms/b)
  <pf|pf>  ...          406 b.         0 skpd (  0.0%)     0.029 s. (  0.071 ms/b)
  <pf|dd>  ...          420 b.         0 skpd (  0.0%)     0.037 s. (  0.089 ms/b)
  <pf|df>  ...          560 b.         0 skpd (  0.0%)     0.083 s. (  0.147 ms/b)
  <pf|ff>  ...          280 b.         0 skpd (  0.0%)     0.090 s. (  0.321 ms/b)
  <dd|dd>  ...          120 b.         0 skpd (  0.0%)     0.016 s. (  0.130 ms/b)
  <dd|df>  ...          300 b.         0 skpd (  0.0%)     0.054 s. (  0.179 ms/b)
  <dd|ff>  ...          150 b.         0 skpd (  0.0%)     0.055 s. (  0.365 ms/b)
  <df|df>  ...          210 b.         0 skpd (  0.0%)     0.070 s. (  0.334 ms/b)
  <df|ff>  ...          200 b.         0 skpd (  0.0%)     0.121 s. (  0.607 ms/b)
  <ff|ff>  ...           55 b.         0 skpd (  0.0%)     0.087 s. (  1.577 ms/b)


                                      INTEGRAL STATISTICS

Integral type statistics:
 Number of integrals retained            ...    6373807 
 One   Center Integrals retained         ...    6373807 (100.0%)
 Two   Center Integrals retained         ...          0 (  0.0%)
 Three Center Integrals retained         ...          0 (  0.0%)
 Four  Center Integrals retained         ...          0 (  0.0%)

Storage statistics:
 Number of char integrals                ...          0 (  0.0%)
 Number of short int integrals           ...          0 (  0.0%)
 Number of double/float integrals        ...    6373807 (100.0%)
 Amount of memory used                   ...         79 MB
 Amount of memory estimated              ...         75 MB ( 95.3%)

Prescreening statistics:
 Total number of shell quadruples        ...      61776 
 Number of skipped shell quadruples      ...         21 (  0.0%)
 # of negligible batches done            ...          0 (  0.0%)

Timings:
 Total evaluation time               ...     1.614 sec (   0.027 min)
 One electron matrix time            ...     0.092 sec (   0.002 min) =  5.7%
 Schwartz matrix evaluation time     ...     0.146 sec (   0.002 min) =  9.1%
 Statistics run                      ...     0.046 sec (   0.001 min) =  2.9%
 Repulsion integral time             ...     1.237 sec (   0.021 min) = 76.7%

-------------------------------------------------------------------------------
                                 ORCA SCF
-------------------------------------------------------------------------------

------------
SCF SETTINGS
------------
Hamiltonian:
 Ab initio Hamiltonian  Method          .... Hartree-Fock(GTOs)


General Settings:
 Integral files         IntName         .... 63_Eu_atom63
 Hartree-Fock type      HFTyp           .... ROHF
 Total Charge           Charge          ....    0
 Multiplicity           Mult            ....    8
 Number of Electrons    NEL             ....   35
 Basis Dimension        Dim             ....   84
 Nuclear Repulsion      ENuc            ....      0.0000000000 Eh

Convergence Acceleration:
 DIIS                   CNVDIIS         .... on
   Start iteration      DIISMaxIt       ....    12
   Startup error        DIISStart       ....  0.200000
   # of expansion vecs  DIISMaxEq       ....     5
   Bias factor          DIISBfac        ....   1.050
   Max. coefficient     DIISMaxC        ....  10.000
 Newton-Raphson         CNVNR           .... off
 SOSCF                  CNVSOSCF        .... off
 Level Shifting         CNVShift        .... on
   Level shift para.    LevelShift      ....    0.3000
   Turn off err/grad.   ShiftErr        ....    0.0010
 Zerner damping         CNVZerner       .... off
 Static damping         CNVDamp         .... on
   Fraction old density DampFac         ....    0.7000
   Max. Damping (<1)    DampMax         ....    0.9800
   Min. Damping (>=0)   DampMin         ....    0.0000
   Turn off err/grad.   DampErr         ....    0.1000
 Fernandez-Rico         CNVRico         .... off

SCF Procedure:
 Maximum # iterations   MaxIter         ....  1000
 SCF integral mode      SCFMode         .... Conventional
 Integral Threshold     Thresh          ....  1.000e-10 Eh
 Primitive CutOff       TCut            ....  1.000e-11 Eh
 Integral Buffer length BufferLength    .... 1048576
 Integral index format  IndFormat       ....     0
 Integral value format  ValFormat       ....     0
 Integral Storage       Thresh          ....  1.000e-10 Eh

Convergence Tolerance:
 Convergence Check Mode ConvCheckMode   .... Total+1el-Energy
 Convergence forced     ConvForced      .... 0
 Energy Change          TolE            ....  1.000e-06 Eh
 1-El. energy change                    ....  1.000e-03 Eh
 DIIS Error             TolErr          ....  1.000e-06


Diagonalization of the overlap matrix:
Smallest eigenvalue                        ... 1.186e-03
Time for diagonalization                   ...    0.001 sec
Threshold for overlap eigenvalues          ... 1.000e-08
Number of eigenvalues below threshold      ... 0
Time for construction of square roots      ...    0.003 sec
Total time needed                          ...    0.004 sec

--------------------
INITIAL GUESS: HCORE
--------------------
AVERAGE-CONFIGURATION (SAHF) CASE FOUND

-------------------
FINAL ROHF SETTINGS
-------------------
Number of operators             ... 2
  operator   0:  14 orbitals  28 electrons n(mue)= 2.000
  operator   1:   7 orbitals   7 electrons n(mue)= 1.000
Vector coupling coefficients a and b (Zerner convention):
   1.000    1.000           1.000    1.000 
   1.000    1.000           1.000    2.000 

                      -----------------
                      INTIAL GUESS DONE 
                      -----------------

 InCore treatment chosen:
   Memory dedicated               ...    1024 MB
   Memory needed                  ...     79 MB
   Number of tiny    integrals    ...       0
   Number of small   integrals    ...       0
   Number of regular integrals    ... 6373807

--------------
SCF ITERATIONS
--------------
ITER       Energy         Delta-E        Max-DP      RMS-DP      [F,P]     Damp
  0   -534.4730628627   0.000000000000 4.08829828  0.10185916  5.6308544 0.7000
  1   -597.1114475078 -62.638384645084 2.91399255  0.05233521  1.2508562 0.7000
  2   -673.3594801406 -76.248032632801 2.04522542  0.03897948  0.6276000 0.7000
  3   -683.4578747338 -10.098394593144 1.43153610  0.02730108  0.3248514 0.7000
  4   -691.0054819952  -7.547607261429 1.00207721  0.01906771  0.2611910 0.7000
                            ****Activating DIIS****
  5   -695.8875924950  -4.882110499826 2.33804991  0.04454745  0.0984286 0.0000
  6   -707.4916811942 -11.604088699129 0.09619931  0.00144299  0.2607905 0.7000
  7   -707.1132941037   0.378387090452 0.02179830  0.00040745  0.3905500 0.7000
  8   -707.2532999261  -0.140005822356 0.01015349  0.00023618  0.3090352 0.7000
  9   -707.2617773725  -0.008477446468 0.02084538  0.00033406  0.2966415 0.7000
 10   -707.2000841512   0.061693221285 0.79273260  0.01159273  0.3157693 0.7000
 11   -706.2144191217   0.985665029543 0.49000762  0.00717429  0.2015084 0.7000
 12   -705.3700890429   0.844330078841 0.41563625  0.00606918  0.2953431 0.7000
 13   -704.4325735337   0.937515509135 0.24967825  0.00368407  0.5276807 0.7000
 14   -703.9383506824   0.494222851372 0.17502448  0.00259285  0.6298904 0.7000
 15   -703.5467635575   0.391587124834 2.04270413  0.02394188  0.7177303 0.7000
 16   -701.1286975845   2.418065972975 0.65839444  0.00769955  0.9748695 0.7000
 17   -703.4762420508  -2.347544466282 0.22302207  0.00322966  0.5811141 0.7000
 18   -702.5672039180   0.909038132842 0.33153954  0.00447787  0.8883193 0.7000
 19   -703.8915778222  -1.324373904218 0.83096655  0.01239553  0.5429064 0.7000
 20   -707.3077429471  -3.416165124848 0.58166239  0.00842098  0.2221251 0.7000
 21   -706.3115516634   0.996191283629 0.40715283  0.00590091  0.3058480 0.7000
 22   -705.4585368424   0.853014821029 0.28504225  0.00419311  0.4600398 0.7000
 23   -704.6695403988   0.788996443621 0.19953373  0.00296316  0.6118865 0.7000
 24   -704.1188496811   0.550690717659 0.13968148  0.00228433  0.7024744 0.7000
 25   -703.3179178868   0.800931794271 0.09775744  0.00152427  0.8541374 0.7000
 26   -704.1943573917  -0.876439504826 0.06841724  0.00124701  0.7239685 0.7000
 27   -704.4785755536  -0.284218161922 0.05240008  0.00114590  0.6489055 0.7000
 28   -704.7410770388  -0.262501485245 2.34589166  0.04037470  0.6128426 0.7000
 29   -702.9594703023   1.781606736542 1.50013816  0.02076732  0.4660458 0.7000
 30   -701.0699095525   1.889560749755 0.89856264  0.01444617  0.4293749 0.7000
 31   -706.7503749687  -5.680465416180 0.65652039  0.01066122  0.3556206 0.7000
 32   -707.0893166655  -0.338941696761 0.47356387  0.00775830  0.1603900 0.7000
 33   -707.4334987835  -0.344182118043 1.09740024  0.01880583  0.0689072 0.0000
 34   -707.9075800398  -0.474081256261 0.02138453  0.00038403  0.1380931 0.7000
 35   -707.9423362182  -0.034756178370 0.04862657  0.00116851  0.0983619 0.0000
 36   -707.9804791535  -0.038142935320 0.01688913  0.00033949  0.0722390 0.0000
 37   -707.9907105624  -0.010231408940 0.01740781  0.00037644  0.0659887 0.0000
 38   -708.0012267774  -0.010516214982 0.07636689  0.00180584  0.0581684 0.0000
 39   -708.0335653874  -0.032338609956 0.03052978  0.00057123  0.0142305 0.0000
 40   -708.0371044054  -0.003539018071 0.02390592  0.00057357  0.0128201 0.0000
 41   -708.0407501823  -0.003645776915 0.00865647  0.00032746  0.0130683 0.0000
 42   -708.0432063647  -0.002456182346 0.00301820  0.00004781  0.0135869 0.0000
 43   -708.0435791578  -0.000372793122 0.00388555  0.00012547  0.0137856 0.0000
 44   -708.0426862895   0.000892868313 0.00225477  0.00003287  0.0136793 0.0000
 45   -708.0425414987   0.000144790792 0.00445068  0.00015671  0.0136068 0.0000
 46   -708.0436119464  -0.001070447692 0.00798336  0.00027727  0.0137534 0.0000
 47   -708.0458643008  -0.002252354436 0.00241777  0.00008402  0.0142060 0.0000
 48   -708.0453553508   0.000508950017 0.00027618  0.00000946  0.0142235 0.0000
 49   -708.0452814082   0.000073942598 0.00107883  0.00003708  0.0142152 0.0000
 50   -708.0455777906  -0.000296382373 0.00463953  0.00015932  0.0142658 0.0000
 51   -708.0469488763  -0.001371085717 0.00275072  0.00010105  0.0145904 0.0000
 52   -708.0479273872  -0.000978510915 0.00216402  0.00007707  0.0148708 0.0000
 53   -708.0471975309   0.000729856289 0.00206845  0.00007502  0.0146950 0.0000
 54   -708.0479205839  -0.000723052920 0.00304861  0.00010945  0.0148761 0.0000
 55   -708.0489805068  -0.001059922997 0.00173969  0.00006016  0.0151256 0.0000
 56   -708.0495510820  -0.000570575194 0.00115426  0.00004582  0.0152459 0.0000
 57   -708.0500236309  -0.000472548856 0.00018209  0.00000709  0.0153624 0.0000
 58   -708.0500967960  -0.000073165080 0.00342242  0.00013227  0.0153791 0.0000
 59   -708.0514599218  -0.001363125814 0.00154904  0.00005876  0.0156653 0.0000
 60   -708.0520648542  -0.000604932443 0.00182658  0.00006623  0.0157752 0.0000
 61   -708.0527633002  -0.000698445937 0.00192642  0.00006114  0.0158902 0.0000
 62   -708.0534185326  -0.000655232462 0.00237056  0.00007313  0.0159905 0.0000
 63   -708.0542060720  -0.000787539348 0.00417430  0.00012561  0.0160921 0.0000
 64   -708.0555625192  -0.001356447197 0.00412659  0.00011442  0.0162271 0.0000
 65   -708.0568099545  -0.001247435324 0.00569755  0.00014921  0.0162917 0.0000
 66   -708.0584401451  -0.001630190628 0.01020556  0.00025399  0.0163018 0.0000
 67   -708.0611896151  -0.002749469988 0.02605348  0.00061179  0.0161012 0.0000
 68   -708.0673638179  -0.006174202799 0.03496754  0.00076091  0.0145235 0.0000
 69   -708.0735072631  -0.006143445227 0.00761951  0.00018377  0.0103258 0.0000
 70   -708.0747820266  -0.001274763471 0.03198332  0.00068819  0.0098616 0.0000
 71   -708.0775769104  -0.002794883790 0.01135383  0.00023885  0.0129037 0.0000
 72   -708.0773239231   0.000252987358 0.00643678  0.00017742  0.0109743 0.0000
 73   -708.0779787922  -0.000654869163 0.00265834  0.00015268  0.0115643 0.0000
 74   -708.0784974328  -0.000518640546 0.00257049  0.00009366  0.0117233 0.0000
 75   -708.0787652505  -0.000267817788 0.00222348  0.00011065  0.0115742 0.0000
 76   -708.0790769564  -0.000311705890 0.00312105  0.00010508  0.0115602 0.0000
 77   -708.0793470417  -0.000270085260 0.00483235  0.00023265  0.0114150 0.0000
 78   -708.0798995755  -0.000552533780 0.00773474  0.00037241  0.0113063 0.0000
 79   -708.0805935319  -0.000693956383 0.00735881  0.00035679  0.0110324 0.0000
 80   -708.0810631789  -0.000469647047 0.00529690  0.00026410  0.0107449 0.0000
 81   -708.0813177135  -0.000254534632 0.00492003  0.00023316  0.0104858 0.0000
 82   -708.0815079700  -0.000190256499 0.00733528  0.00032617  0.0102406 0.0000
 83   -708.0816751093  -0.000167139287 0.00892377  0.00036791  0.0098707 0.0000
 84   -708.0817416044  -0.000066495105 0.00803726  0.00030708  0.0094258 0.0000
 85   -708.0817119665   0.000029637902 0.00135190  0.00004742  0.0090459 0.0000
 86   -708.0817109435   0.000001023045 0.00125417  0.00004123  0.0089944 0.0000
 87   -708.0817387435  -0.000027799973 0.00230770  0.00007694  0.0089635 0.0000
 88   -708.0817580673  -0.000019323863 0.00752742  0.00024839  0.0088890 0.0000
 89   -708.0817783233  -0.000020255951 0.01010699  0.00032476  0.0086339 0.0000
 90   -708.0817765797   0.000001743568 0.00076681  0.00002585  0.0083079 0.0000
 91   -708.0818032302  -0.000026650476 0.00795469  0.00025184  0.0082986 0.0000
 92   -708.0817949971   0.000008233076 0.00032309  0.00001201  0.0080689 0.0000
 93   -708.0818238047  -0.000028807612 0.00631730  0.00020128  0.0080849 0.0000
 94   -708.0818612631  -0.000037458436 0.00687770  0.00022341  0.0079372 0.0000
 95   -708.0819112606  -0.000049997487 0.00632720  0.00021185  0.0077928 0.0000
 96   -708.0819621812  -0.000050920579 0.00577109  0.00019949  0.0076706 0.0000
 97   -708.0820010898  -0.000038908610 0.00406822  0.00015101  0.0075632 0.0000
 98   -708.0820483865  -0.000047296632 0.00435429  0.00016920  0.0075001 0.0000
 99   -708.0820921762  -0.000043789758 0.00452279  0.00017745  0.0074358 0.0000
100   -708.0821291380  -0.000036961749 0.00468127  0.00017237  0.0073755 0.0000
101   -708.0821565166  -0.000027378624 0.00316311  0.00010789  0.0073299 0.0000
102   -708.0821879092  -0.000031392622 0.00124442  0.00004488  0.0073186 0.0000
103   -708.0822336401  -0.000045730926 0.00121905  0.00004335  0.0073543 0.0000
104   -708.0822825809  -0.000048940745 0.00083547  0.00002965  0.0073786 0.0000
105   -708.0823126174  -0.000030036499 0.00086296  0.00003286  0.0074015 0.0000
106   -708.0823590809  -0.000046463536 0.00072150  0.00002779  0.0074330 0.0000
107   -708.0823971785  -0.000038097545 0.00027913  0.00001041  0.0074591 0.0000
108   -708.0824113353  -0.000014156822 0.00032449  0.00001160  0.0074694 0.0000
109   -708.0824268070  -0.000015471710 0.00013121  0.00000471  0.0074801 0.0000
110   -708.0824330307  -0.000006223700 0.00030058  0.00001122  0.0074846 0.0000
111   -708.0824478034  -0.000014772722 0.00032226  0.00001218  0.0074952 0.0000
112   -708.0824636334  -0.000015829970 0.00025469  0.00000960  0.0075069 0.0000
113   -708.0824759984  -0.000012364994 0.00022801  0.00000852  0.0075162 0.0000
114   -708.0824868707  -0.000010872288 0.00019503  0.00000731  0.0075244 0.0000
115   -708.0824961243  -0.000009253640 0.00023246  0.00000878  0.0075315 0.0000
116   -708.0825071410  -0.000011016726 0.00023236  0.00000883  0.0075400 0.0000
117   -708.0825181171  -0.000010976101 0.00020963  0.00000799  0.0075486 0.0000
118   -708.0825279622  -0.000009845025 0.00019966  0.00000762  0.0075563 0.0000
119   -708.0825372716  -0.000009309459 0.00019600  0.00000750  0.0075638 0.0000
120   -708.0825463653  -0.000009093684 0.00020604  0.00000792  0.0075711 0.0000
121   -708.0825558840  -0.000009518666 0.00020173  0.00000778  0.0075789 0.0000
122   -708.0825651658  -0.000009281830 0.00019391  0.00000751  0.0075865 0.0000
123   -708.0825740487  -0.000008882921 0.00019256  0.00000748  0.0075939 0.0000
124   -708.0825828283  -0.000008779554 0.00019407  0.00000757  0.0076012 0.0000
125   -708.0825916376  -0.000008809368 0.00019692  0.00000771  0.0076087 0.0000
126   -708.0826005384  -0.000008900759 0.00019527  0.00000768  0.0076163 0.0000
127   -708.0826093291  -0.000008790657 0.00019425  0.00000767  0.0076239 0.0000
128   -708.0826180392  -0.000008710180 0.00019596  0.00000777  0.0076315 0.0000
129   -708.0826267903  -0.000008751107 0.00019846  0.00000791  0.0076392 0.0000
130   -708.0826356170  -0.000008826631 0.00020068  0.00000803  0.0076471 0.0000
131   -708.0826445066  -0.000008889606 0.00020199  0.00000812  0.0076551 0.0000
132   -708.0826534194  -0.000008912811 0.00020398  0.00000825  0.0076632 0.0000
133   -708.0826623852  -0.000008965853 0.00020690  0.00000841  0.0076715 0.0000
134   -708.0826714439  -0.000009058685 0.00021002  0.00000858  0.0076799 0.0000
135   -708.0826806033  -0.000009159329 0.00021297  0.00000875  0.0076885 0.0000
136   -708.0826898551  -0.000009251860 0.00021575  0.00000892  0.0076973 0.0000
137   -708.0826991920  -0.000009336832 0.00021868  0.00000909  0.0077063 0.0000
138   -708.0827086190  -0.000009427068 0.00022169  0.00000928  0.0077155 0.0000
139   -708.0827181394  -0.000009520368 0.00022455  0.00000946  0.0077249 0.0000
140   -708.0827277456  -0.000009606255 0.00022709  0.00000963  0.0077345 0.0000
141   -708.0827374237  -0.000009678021 0.00022926  0.00000979  0.0077443 0.0000
142   -708.0827471571  -0.000009733443 0.00023102  0.00000994  0.0077542 0.0000
143   -708.0827569289  -0.000009771801 0.00023232  0.00001008  0.0077644 0.0000
144   -708.0827667193  -0.000009790389 0.00023341  0.00001019  0.0077746 0.0000
145   -708.0827765051  -0.000009785781 0.00023558  0.00001028  0.0077851 0.0000
146   -708.0827862609  -0.000009755801 0.00023712  0.00001034  0.0077956 0.0000
147   -708.0827959608  -0.000009699925 0.00023803  0.00001038  0.0078062 0.0000
148   -708.0828055796  -0.000009618826 0.00023831  0.00001039  0.0078169 0.0000
149   -708.0828150936  -0.000009513923 0.00023798  0.00001037  0.0078276 0.0000
150   -708.0828244808  -0.000009387295 0.00023761  0.00001034  0.0078383 0.0000
151   -708.0828337225  -0.000009241670 0.00023716  0.00001028  0.0078490 0.0000
152   -708.0828428028  -0.000009080243 0.00023627  0.00001020  0.0078596 0.0000
153   -708.0828517091  -0.000008906387 0.00023501  0.00001012  0.0078702 0.0000
154   -708.0828604325  -0.000008723383 0.00023345  0.00001002  0.0078807 0.0000
155   -708.0828689668  -0.000008534264 0.00023166  0.00000991  0.0078911 0.0000
156   -708.0828773085  -0.000008341685 0.00022967  0.00000979  0.0079014 0.0000
157   -708.0828854564  -0.000008147898 0.00022755  0.00000967  0.0079116 0.0000
158   -708.0828934111  -0.000007954742 0.00022533  0.00000955  0.0079217 0.0000
159   -708.0829011748  -0.000007763661 0.00022305  0.00000943  0.0079317 0.0000
160   -708.0829087505  -0.000007575754 0.00022073  0.00000931  0.0079416 0.0000
161   -708.0829161424  -0.000007391817 0.00021840  0.00000919  0.0079513 0.0000
162   -708.0829233548  -0.000007212415 0.00021606  0.00000907  0.0079609 0.0000
163   -708.0829303927  -0.000007037908 0.00021374  0.00000895  0.0079704 0.0000
164   -708.0829372612  -0.000006868510 0.00021143  0.00000883  0.0079798 0.0000
165   -708.0829439655  -0.000006704320 0.00020916  0.00000872  0.0079891 0.0000
166   -708.0829505109  -0.000006545349 0.00020691  0.00000861  0.0079983 0.0000
167   -708.0829569024  -0.000006391535 0.00020471  0.00000850  0.0080073 0.0000
168   -708.0829631452  -0.000006242784 0.00020254  0.00000840  0.0080162 0.0000
169   -708.0829692441  -0.000006098964 0.00020041  0.00000830  0.0080251 0.0000
170   -708.0829752041  -0.000005959915 0.00019832  0.00000820  0.0080338 0.0000
171   -708.0829810295  -0.000005825477 0.00019626  0.00000810  0.0080424 0.0000
172   -708.0829867250  -0.000005695472 0.00019425  0.00000801  0.0080510 0.0000
173   -708.0829922947  -0.000005569726 0.00019227  0.00000791  0.0080594 0.0000
174   -708.0829977428  -0.000005448060 0.00019033  0.00000782  0.0080677 0.0000
175   -708.0830030731  -0.000005330307 0.00018843  0.00000774  0.0080760 0.0000
176   -708.0830082894  -0.000005216295 0.00018656  0.00000765  0.0080841 0.0000
177   -708.0830133953  -0.000005105863 0.00018472  0.00000757  0.0080922 0.0000
178   -708.0830183941  -0.000004998856 0.00018292  0.00000749  0.0081001 0.0000
179   -708.0830232892  -0.000004895124 0.00018115  0.00000741  0.0081080 0.0000
180   -708.0830280838  -0.000004794526 0.00017940  0.00000733  0.0081158 0.0000
181   -708.0830327807  -0.000004696927 0.00017768  0.00000726  0.0081235 0.0000
182   -708.0830373829  -0.000004602197 0.00017599  0.00000719  0.0081311 0.0000
183   -708.0830418931  -0.000004510219 0.00017433  0.00000712  0.0081387 0.0000
184   -708.0830463140  -0.000004420871 0.00017269  0.00000705  0.0081462 0.0000
185   -708.0830506480  -0.000004334054 0.00017107  0.00000698  0.0081536 0.0000
186   -708.0830548977  -0.000004249653 0.00016948  0.00000691  0.0081609 0.0000
187   -708.0830590653  -0.000004167582 0.00016791  0.00000685  0.0081681 0.0000
188   -708.0830631530  -0.000004087740 0.00016635  0.00000678  0.0081753 0.0000
189   -708.0830671630  -0.000004010046 0.00016482  0.00000672  0.0081824 0.0000
190   -708.0830710975  -0.000003934412 0.00016331  0.00000666  0.0081894 0.0000
191   -708.0830749582  -0.000003860764 0.00016181  0.00000660  0.0081964 0.0000
192   -708.0830787472  -0.000003789026 0.00016033  0.00000654  0.0082033 0.0000
193   -708.0830824664  -0.000003719128 0.00015887  0.00000648  0.0082101 0.0000
194   -708.0830861174  -0.000003651001 0.00015743  0.00000643  0.0082169 0.0000
195   -708.0830897020  -0.000003584588 0.00015600  0.00000637  0.0082236 0.0000
196   -708.0830932218  -0.000003519822 0.00015458  0.00000632  0.0082302 0.0000
197   -708.0830966784  -0.000003456651 0.00015318  0.00000626  0.0082368 0.0000
198   -708.0831000735  -0.000003395018 0.00015179  0.00000621  0.0082433 0.0000
199   -708.0831034083  -0.000003334871 0.00015042  0.00000616  0.0082497 0.0000
200   -708.0831066845  -0.000003276165 0.00014906  0.00000611  0.0082561 0.0000
201   -708.0831099033  -0.000003218849 0.00014771  0.00000606  0.0082624 0.0000
202   -708.0831130662  -0.000003162879 0.00014637  0.00000601  0.0082687 0.0000
203   -708.0831161744  -0.000003108214 0.00014504  0.00000596  0.0082749 0.0000
204   -708.0831192292  -0.000003054814 0.00014373  0.00000592  0.0082810 0.0000
205   -708.0831222319  -0.000003002636 0.00014242  0.00000587  0.0082871 0.0000
206   -708.0831251835  -0.000002951649 0.00014113  0.00000583  0.0082931 0.0000
207   -708.0831280853  -0.000002901811 0.00013985  0.00000578  0.0082991 0.0000
208   -708.0831309384  -0.000002853093 0.00013857  0.00000574  0.0083050 0.0000
209   -708.0831337439  -0.000002805462 0.00013731  0.00000570  0.0083108 0.0000
210   -708.0831365028  -0.000002758883 0.00013605  0.00000565  0.0083166 0.0000
211   -708.0831392161  -0.000002713331 0.00013481  0.00000561  0.0083224 0.0000
212   -708.0831418849  -0.000002668773 0.00013357  0.00000557  0.0083281 0.0000
213   -708.0831445101  -0.000002625186 0.00013234  0.00000553  0.0083337 0.0000
214   -708.0831470926  -0.000002582541 0.00013112  0.00000549  0.0083393 0.0000
215   -708.0831496334  -0.000002540811 0.00012991  0.00000545  0.0083449 0.0000
216   -708.0831521334  -0.000002499972 0.00012871  0.00000541  0.0083504 0.0000
217   -708.0831545934  -0.000002460004 0.00012751  0.00000538  0.0083558 0.0000
218   -708.0831570143  -0.000002420881 0.00012632  0.00000534  0.0083612 0.0000
219   -708.0831593969  -0.000002382583 0.00012514  0.00000530  0.0083665 0.0000
220   -708.0831617420  -0.000002345087 0.00012397  0.00000527  0.0083718 0.0000
221   -708.0831640503  -0.000002308373 0.00012281  0.00000523  0.0083771 0.0000
222   -708.0831663227  -0.000002272424 0.00012165  0.00000520  0.0083823 0.0000
223   -708.0831685600  -0.000002237218 0.00012050  0.00000516  0.0083874 0.0000
224   -708.0831707627  -0.000002202737 0.00011935  0.00000513  0.0083925 0.0000
225   -708.0831729317  -0.000002168966 0.00011821  0.00000509  0.0083976 0.0000
226   -708.0831750676  -0.000002135885 0.00011708  0.00000506  0.0084026 0.0000
227   -708.0831771710  -0.000002103478 0.00011596  0.00000503  0.0084075 0.0000
228   -708.0831792428  -0.000002071729 0.00011484  0.00000500  0.0084125 0.0000
229   -708.0831812834  -0.000002040625 0.00011373  0.00000497  0.0084173 0.0000
230   -708.0831832935  -0.000002010147 0.00011263  0.00000493  0.0084222 0.0000
231   -708.0831852738  -0.000001980284 0.00011153  0.00000490  0.0084270 0.0000
232   -708.0831872248  -0.000001951018 0.00011044  0.00000487  0.0084317 0.0000
233   -708.0831891472  -0.000001922339 0.00010935  0.00000484  0.0084364 0.0000
234   -708.0831910414  -0.000001894233 0.00010827  0.00000482  0.0084411 0.0000
235   -708.0831929081  -0.000001866686 0.00010720  0.00000479  0.0084457 0.0000
236   -708.0831947478  -0.000001839685 0.00010613  0.00000476  0.0084502 0.0000
237   -708.0831965610  -0.000001813218 0.00010507  0.00000473  0.0084548 0.0000
238   -708.0831983483  -0.000001787276 0.00010402  0.00000470  0.0084593 0.0000
239   -708.0832001101  -0.000001761845 0.00010297  0.00000468  0.0084637 0.0000
240   -708.0832018470  -0.000001736913 0.00010192  0.00000465  0.0084681 0.0000
241   -708.0832035595  -0.000001712472 0.00010089  0.00000462  0.0084725 0.0000
242   -708.0832052480  -0.000001688508 0.00009986  0.00000460  0.0084768 0.0000
243   -708.0832069130  -0.000001665015 0.00009883  0.00000457  0.0084811 0.0000
244   -708.0832085550  -0.000001641978 0.00009781  0.00000455  0.0084854 0.0000
245   -708.0832101744  -0.000001619391 0.00009706  0.00000452  0.0084896 0.0000
246   -708.0832117716  -0.000001597243 0.00009743  0.00000450  0.0084937 0.0000
247   -708.0832133472  -0.000001575524 0.00009779  0.00000448  0.0084979 0.0000
248   -708.0832149014  -0.000001554228 0.00009816  0.00000445  0.0085020 0.0000
249   -708.0832164347  -0.000001533343 0.00009853  0.00000443  0.0085060 0.0000
250   -708.0832179476  -0.000001512862 0.00009889  0.00000441  0.0085101 0.0000
251   -708.0832194404  -0.000001492774 0.00009925  0.00000439  0.0085140 0.0000
252   -708.0832209134  -0.000001473078 0.00009962  0.00000436  0.0085180 0.0000
253   -708.0832223672  -0.000001453757 0.00009998  0.00000434  0.0085219 0.0000
254   -708.0832238020  -0.000001434808 0.00010034  0.00000432  0.0085258 0.0000
255   -708.0832252182  -0.000001416223 0.00010069  0.00000430  0.0085296 0.0000
256   -708.0832266162  -0.000001397994 0.00010105  0.00000428  0.0085335 0.0000
257   -708.0832279963  -0.000001380115 0.00010140  0.00000426  0.0085372 0.0000
258   -708.0832293589  -0.000001362578 0.00010175  0.00000424  0.0085410 0.0000
259   -708.0832307043  -0.000001345376 0.00010211  0.00000422  0.0085447 0.0000
260   -708.0832320328  -0.000001328501 0.00010245  0.00000420  0.0085483 0.0000
261   -708.0832333448  -0.000001311949 0.00010280  0.00000418  0.0085520 0.0000
262   -708.0832346405  -0.000001295710 0.00010315  0.00000416  0.0085556 0.0000
263   -708.0832359202  -0.000001279783 0.00010349  0.00000414  0.0085592 0.0000
264   -708.0832371844  -0.000001264157 0.00010383  0.00000413  0.0085627 0.0000
265   -708.0832384332  -0.000001248828 0.00010417  0.00000411  0.0085662 0.0000
266   -708.0832396670  -0.000001233789 0.00010451  0.00000409  0.0085697 0.0000
267   -708.0832408861  -0.000001219037 0.00010485  0.00000407  0.0085731 0.0000
268   -708.0832420906  -0.000001204561 0.00010518  0.00000406  0.0085766 0.0000
269   -708.0832432810  -0.000001190362 0.00010551  0.00000404  0.0085799 0.0000
270   -708.0832444574  -0.000001176431 0.00010584  0.00000403  0.0085833 0.0000
271   -708.0832456202  -0.000001162761 0.00010617  0.00000401  0.0085866 0.0000
272   -708.0832467695  -0.000001149350 0.00010650  0.00000399  0.0085899 0.0000
273   -708.0832479057  -0.000001136191 0.00010682  0.00000398  0.0085932 0.0000
274   -708.0832490290  -0.000001123282 0.00010714  0.00000396  0.0085964 0.0000
275   -708.0832501396  -0.000001110613 0.00010746  0.00000395  0.0085996 0.0000
276   -708.0832512378  -0.000001098183 0.00010778  0.00000393  0.0086028 0.0000
277   -708.0832523238  -0.000001085987 0.00010809  0.00000392  0.0086059 0.0000
278   -708.0832533978  -0.000001074020 0.00010841  0.00000391  0.0086090 0.0000
279   -708.0832544601  -0.000001062276 0.00010872  0.00000389  0.0086121 0.0000
280   -708.0832555108  -0.000001050754 0.00010902  0.00000388  0.0086152 0.0000
281   -708.0832565503  -0.000001039445 0.00010933  0.00000386  0.0086182 0.0000
282   -708.0832575786  -0.000001028350 0.00010963  0.00000385  0.0086212 0.0000
283   -708.0832585961  -0.000001017459 0.00010994  0.00000384  0.0086242 0.0000
284   -708.0832596029  -0.000001006774 0.00011023  0.00000383  0.0086272 0.0000
                 **** Energy Check signals convergence ****

               *****************************************************
               *                     SUCCESS                       *
               *           SCF CONVERGED AFTER 285 CYCLES          *
               *****************************************************


----------------
TOTAL SCF ENERGY
----------------

Total Energy       :         -708.08326060 Eh          -19267.92508 eV

Components:
Nuclear Repulsion  :            0.00000000 Eh               0.00000 eV
Electronic Energy  :         -708.08326060 Eh          -19267.92508 eV
One Electron Energy:        -1244.59084464 Eh          -33867.03865 eV
Two Electron Energy:          536.50758404 Eh           14599.11357 eV

Virial components:
Potential Energy   :        -1053.70569429 Eh          -28672.78964 eV
Kinetic Energy     :          345.62243370 Eh            9404.86455 eV
Virial Ratio       :            3.04871904


---------------
SCF CONVERGENCE
---------------

  Last Energy change         ...   -9.9629e-07  Tolerance :   1.0000e-06
  Last MAX-Density change    ...    1.1053e-04  Tolerance :   1.0000e-05
  Last RMS-Density change    ...    3.8132e-06  Tolerance :   1.0000e-06
  Last DIIS Error            ...    8.6301e-03  Tolerance :   1.0000e-06

             **** THE GBW FILE WAS UPDATED (63_Eu_atom63.gbw) ****
             **** DENSITY FILE WAS UPDATED (63_Eu_atom63.scfp) ****
             **** ENERGY FILE WAS UPDATED (63_Eu_atom63.en.tmp) ****
             **** THE GBW FILE WAS UPDATED (63_Eu_atom63.gbw) ****
             **** DENSITY FILE WAS UPDATED (63_Eu_atom63.scfp) ****
----------------
ORBITAL ENERGIES
----------------

  NO   OCC          E(Eh)            E(eV) 
   0   2.0000     -14.940614      -406.5548 
   1   2.0000     -10.897760      -296.5431 
   2   2.0000     -10.888468      -296.2903 
   3   2.0000     -10.879048      -296.0339 
   4   2.0000      -5.916383      -160.9930 
   5   2.0000      -5.908508      -160.7787 
   6   2.0000      -5.890231      -160.2813 
   7   2.0000      -5.884873      -160.1355 
   8   2.0000      -5.876499      -159.9077 
   9   2.0000      -2.216540       -60.3151 
  10   2.0000      -1.253733       -34.1158 
  11   2.0000      -1.246917       -33.9303 
  12   2.0000      -1.241964       -33.7956 
  13   2.0000      -0.732541       -19.9335 
  14   1.0000      -0.846395       -23.0316 
  15   1.0000      -0.840958       -22.8836 
  16   1.0000      -0.819468       -22.2989 
  17   1.0000      -0.812114       -22.0988 
  18   1.0000      -0.290806        -7.9132 
  19   1.0000      -0.267191        -7.2706 
  20   1.0000      -0.150544        -4.0965 
  21   0.0000       0.003047         0.0829 
  22   0.0000       0.004556         0.1240 
  23   0.0000       0.035408         0.9635 
  24   0.0000       0.036448         0.9918 
  25   0.0000       0.048977         1.3327 
  26   0.0000       0.045790         1.2460 
  27   0.0000       0.074558         2.0288 
  28   0.0000       0.150531         4.0961 
  29   0.0000       0.159641         4.3440 
  30   0.0000       0.158959         4.3255 
  31   0.0000       0.225211         6.1283 
  32   0.0000       0.258861         7.0440 
  33   0.0000       0.397199        10.8083 
  34   0.0000       0.438184        11.9236 
  35   0.0000       0.433420        11.7940 
  36   0.0000       0.441047        12.0015 
  37   0.0000       0.441957        12.0262 
  38   0.0000       0.819682        22.3047 
  39   0.0000       0.807754        21.9801 
  40   0.0000       0.811439        22.0804 
  41   0.0000       0.825719        22.4690 
  42   0.0000       0.819133        22.2897 
  43   0.0000       0.871568        23.7166 
  44   0.0000       0.877079        23.8665 
  45   0.0000       0.872628        23.7454 
  46   0.0000       0.887519        24.1506 
  47   0.0000       0.889721        24.2105 
  48   0.0000       1.092439        29.7268 
  49   0.0000       2.329861        63.3987 
  50   0.0000       2.342456        63.7415 
  51   0.0000       2.332924        63.4821 
  52   0.0000       2.337657        63.6109 
  53   0.0000       2.321780        63.1788 
  54   0.0000       2.763355        75.1947 
  55   0.0000       2.751443        74.8706 
  56   0.0000       2.748867        74.8005 
  57   0.0000       2.757309        75.0302 
  58   0.0000       2.755233        74.9737 
  59   0.0000       2.854036        77.6623 
  60   0.0000       2.861397        77.8626 
  61   0.0000       3.612205        98.2931 
  62   0.0000       3.620596        98.5214 
  63   0.0000       3.609338        98.2151 
  64   0.0000       6.763181       184.0355 
  65   0.0000       8.021828       218.2850 
  66   0.0000       7.994430       217.5395 
  67   0.0000       7.999729       217.6837 
  68   0.0000       8.013068       218.0467 
  69   0.0000       8.014636       218.0893 
  70   0.0000       8.099305       220.3933 
  71   0.0000       8.117538       220.8894 
  72   0.0000       8.354161       227.3283 
  73   0.0000       8.686467       236.3708 
  74   0.0000       8.713880       237.1167 
  75   0.0000       8.706794       236.9239 
  76   0.0000       8.697549       236.6724 
  77   0.0000       8.692875       236.5452 
  78   0.0000      36.318688       988.2817 
  79   0.0000      36.301986       987.8273 
  80   0.0000      36.331826       988.6392 
  81   0.0000      61.376541      1670.1406 
  82   0.0000     216.174189      5882.3987 
  83   0.0000     514.711806     14006.0203 
CleanUpVectors: The p-vectors have cracked symmetry
CleanUpVectors: The p-vectors have cracked symmetry
CleanUpVectors: The p-vectors have cracked symmetry
CleanUpVectors: The d-vectors have cracked symmetry at i=4
CleanUpVectors: The d-vectors have cracked symmetry at i=5
CleanUpVectors: The d-vectors have cracked symmetry at i=6
CleanUpVectors: The d-vectors have cracked symmetry at i=7
CleanUpVectors: The d-vectors have cracked symmetry at i=8
CleanUpVectors: The p-vectors have cracked symmetry
CleanUpVectors: The p-vectors have cracked symmetry
CleanUpVectors: The p-vectors have cracked symmetry
CleanUpVectors: The f-vectors have cracked symmetry
CleanUpVectors: The f-vectors have cracked symmetry
CleanUpVectors: The f-vectors have cracked symmetry
CleanUpVectors: The f-vectors have cracked symmetry
CleanUpVectors: The f-vectors have cracked symmetry
CleanUpVectors: The d-vectors have cracked symmetry at i=19
CleanUpVectors: The p-vectors have cracked symmetry
CleanUpVectors: The p-vectors have cracked symmetry
CleanUpVectors: The p-vectors have cracked symmetry
CleanUpVectors: The d-vectors have cracked symmetry at i=23
CleanUpVectors: The d-vectors have cracked symmetry at i=24
CleanUpVectors: The d-vectors have cracked symmetry at i=25
CleanUpVectors: The d-vectors have cracked symmetry at i=26
CleanUpVectors: The p-vectors have cracked symmetry
CleanUpVectors: The p-vectors have cracked symmetry
CleanUpVectors: The p-vectors have cracked symmetry
CleanUpVectors: The f-vectors have cracked symmetry
CleanUpVectors: The f-vectors have cracked symmetry
CleanUpVectors: The d-vectors have cracked symmetry at i=33
CleanUpVectors: The d-vectors have cracked symmetry at i=34
CleanUpVectors: The d-vectors have cracked symmetry at i=35
CleanUpVectors: The d-vectors have cracked symmetry at i=36
CleanUpVectors: The d-vectors have cracked symmetry at i=37
CleanUpVectors: The f-vectors have cracked symmetry
CleanUpVectors: The f-vectors have cracked symmetry
CleanUpVectors: The f-vectors have cracked symmetry
CleanUpVectors: The f-vectors have cracked symmetry
CleanUpVectors: The f-vectors have cracked symmetry
CleanUpVectors: The p-vectors have cracked symmetry
CleanUpVectors: The p-vectors have cracked symmetry
CleanUpVectors: The p-vectors have cracked symmetry
CleanUpVectors: The f-vectors have cracked symmetry
CleanUpVectors: The p-vectors have cracked symmetry
CleanUpVectors: The d-vectors have cracked symmetry at i=49
CleanUpVectors: The d-vectors have cracked symmetry at i=50
CleanUpVectors: The d-vectors have cracked symmetry at i=51
CleanUpVectors: The d-vectors have cracked symmetry at i=52
CleanUpVectors: The d-vectors have cracked symmetry at i=53
CleanUpVectors: The f-vectors have cracked symmetry
CleanUpVectors: The f-vectors have cracked symmetry
CleanUpVectors: The f-vectors have cracked symmetry
CleanUpVectors: The f-vectors have cracked symmetry
CleanUpVectors: The f-vectors have cracked symmetry
CleanUpVectors: The f-vectors have cracked symmetry
CleanUpVectors: The f-vectors have cracked symmetry
CleanUpVectors: The p-vectors have cracked symmetry
CleanUpVectors: The p-vectors have cracked symmetry
CleanUpVectors: The p-vectors have cracked symmetry
CleanUpVectors: The f-vectors have cracked symmetry
CleanUpVectors: The f-vectors have cracked symmetry
CleanUpVectors: The f-vectors have cracked symmetry
CleanUpVectors: The f-vectors have cracked symmetry
CleanUpVectors: The f-vectors have cracked symmetry
CleanUpVectors: The f-vectors have cracked symmetry
CleanUpVectors: The f-vectors have cracked symmetry
CleanUpVectors: The d-vectors have cracked symmetry at i=73
CleanUpVectors: The d-vectors have cracked symmetry at i=74
CleanUpVectors: The d-vectors have cracked symmetry at i=75
CleanUpVectors: The d-vectors have cracked symmetry at i=76
CleanUpVectors: The d-vectors have cracked symmetry at i=77
CleanUpVectors: The p-vectors have cracked symmetry
CleanUpVectors: The p-vectors have cracked symmetry
CleanUpVectors: The p-vectors have cracked symmetry
--------------------------
ATOM BASIS FOR ELEMENT Eu
--------------------------
 NewGTO Eu
 S 14
    1      70059.419999999998        -0.000097844261
    2      10776.235000000001        -0.000713153536
    3       2482.490100000000        -0.003391261928
    4        702.152600000000        -0.010294830235
    5        216.792600000000        -0.016741455750
    6         41.495000000000         0.160972767394
    7         29.496900000000        -0.583923022005
    8         15.030900000000         1.040321797204
    9          3.777200000000        -0.987895452555
   10          1.921900000000        -0.404391969926
   11          0.713100000000        -0.016179811743
   12          0.309700000000         0.001434735674
   13          0.054900000000        -0.000356396843
   14          0.022700000000         0.000165529424
 P 46
    1       1545.478896900000         0.000051493311
    2        348.797622130000         0.000402858659
    3        105.529435290000         0.001374953265
    4         25.617997454000         0.018197195444
    5         15.784430330000        -0.058663438429
    6          3.385287123900         0.063073916810
    7       1545.478896900000        -0.000261520768
    8        348.797622130000        -0.002046011489
    9        105.529435290000        -0.006983020250
   10         25.617997454000        -0.092418693460
   11         15.784430330000         0.297935929210
   12          3.385287123900        -0.320335570449
   13       1545.478896900000         0.000007120668
   14        348.797622130000         0.000055708648
   15        105.529435290000         0.000190133154
   16         25.617997454000         0.002516369282
   17         15.784430330000        -0.008112177225
   18          3.385287123900         0.008722072983
   19          7.494030111100         0.032412245926
   20          4.543809396600         0.071744254577
   21          2.014474222200         0.054928475138
   22          7.494030111100        -0.164640511741
   23          4.543809396600        -0.364430493801
   24          2.014474222200        -0.279013440676
   25          7.494030111100         0.004488949008
   26          4.543809396600         0.009936253759
   27          2.014474222200         0.007607344599
   28          1.108388652400         0.006791952331
   29          1.108388652400        -0.034678186494
   30          1.108388652400         0.000881305262
   31          0.511426488800         0.001635836241
   32          0.511426488800        -0.008286722110
   33          0.511426488800         0.000227424738
   34          0.225614152900        -0.000492743512
   35          0.225614152900         0.002579232819
   36          0.225614152900        -0.000082687730
   37          0.076000181500         0.000178589794
   38          0.076000181500        -0.000871754027
   39          0.076000181500         0.000019607474
   40          0.027117030500        -0.000052141585
   41          0.027117030500         0.000293407666
   42          0.027117030500        -0.000013006191
   43        128.234100000000        -0.001535540387
   44         46.268500000000        -0.005552237937
   45         20.736600000000        -0.008934105284
   46          9.447900000000        -0.008320632965
 D 46
    1      70059.419999999998         0.000000000000
    2      10776.235000000001         0.000000000017
    3       2482.490100000000         0.000000000342
    4        702.152600000000         0.000000003673
    5        216.792600000000         0.000000019345
    6         41.495000000000        -0.000000782481
    7         29.496900000000         0.000003907370
    8         15.030900000000        -0.000013871420
    9          3.777200000000         0.000066867128
   10          1.921900000000         0.000118724146
   11          0.713100000000        -0.000703364957
   12          0.309700000000         0.000208127468
   13          0.054900000000         0.000818717985
   14          0.022700000000        -0.000113106872
   15        389.084100000000         0.000355345750
   16        117.760200000000         0.002833449896
   17         44.986900000000         0.011418976069
   18         22.859900000000         0.008269441445
   19          7.833100000000         0.179946027304
   20          4.113400000000         0.296302465345
   21        389.084100000000        -0.000049899990
   22        117.760200000000        -0.000397891695
   23         44.986900000000        -0.001603527821
   24         22.859900000000        -0.001161249427
   25          7.833100000000        -0.025269206219
   26          4.113400000000        -0.041608743534
   27        389.084100000000         0.000362337248
   28        117.760200000000         0.002889198578
   29         44.986900000000         0.011643646663
   30         22.859900000000         0.008432144327
   31          7.833100000000         0.183486500688
   32          4.113400000000         0.302132274471
   33        389.084100000000        -0.000167614826
   34        117.760200000000        -0.001336524251
   35         44.986900000000        -0.005386274329
   36         22.859900000000        -0.003900654481
   37          7.833100000000        -0.084879647840
   38          4.113400000000        -0.139764402080
   39        389.084100000000         0.000039752190
   40        117.760200000000         0.000316975332
   41         44.986900000000         0.001277429942
   42         22.859900000000         0.000925094513
   43          7.833100000000         0.020130390134
   44          4.113400000000         0.033147073677
   45          2.099900000000         0.205580101315
   46          2.099900000000        -0.029142327997
 S 14
    1      70059.419999999998        -0.000115878048
    2      10776.235000000001        -0.000844595669
    3       2482.490100000000        -0.004016309244
    4        702.152600000000        -0.012192282023
    5        216.792600000000        -0.019827092369
    6         41.495000000000         0.051469526097
    7         29.496900000000        -0.249623293626
    8         15.030900000000         0.526606740644
    9          3.777200000000        -0.767800202706
   10          1.921900000000        -0.438005399165
   11          0.713100000000         0.873322897300
   12          0.309700000000         0.536379877107
   13          0.054900000000         0.011502142328
   14          0.022700000000        -0.001442659758
 S 14
    1      70059.419999999998        -0.000041778097
    2      10776.235000000001        -0.000304506335
    3       2482.490100000000        -0.001448020222
    4        702.152600000000        -0.004395744912
    5        216.792600000000        -0.007148361581
    6         41.495000000000         0.012587510565
    7         29.496900000000        -0.070047705326
    8         15.030900000000         0.154468859149
    9          3.777200000000        -0.240629276248
   10          1.921900000000        -0.156261022279
   11          0.713100000000         0.402260308834
   12          0.309700000000         0.360150535141
   13          0.054900000000        -0.961602498491
   14          0.022700000000        -0.213899922718
 S 14
    1      70059.419999999998        -0.000027792863
    2      10776.235000000001        -0.000202572724
    3       2482.490100000000        -0.000963294902
    4        702.152600000000        -0.002924267630
    5        216.792600000000        -0.004755444821
    6         41.495000000000         0.011022449629
    7         29.496900000000        -0.051822043142
    8         15.030900000000         0.107369548983
    9          3.777200000000        -0.185615358573
   10          1.921900000000        -0.032155733292
   11          0.713100000000         0.098849325429
   12          0.309700000000         0.553508842874
   13          0.054900000000        -2.355825804887
   14          0.022700000000         2.205572959351
 S 14
    1      70059.419999999998        -0.000130680288
    2      10776.235000000001        -0.000952484164
    3       2482.490100000000        -0.004529351845
    4        702.152600000000        -0.013749721875
    5        216.792600000000        -0.022359801484
    6         41.495000000000        -0.018511754902
    7         29.496900000000        -0.078348038214
    8         15.030900000000         0.297430405706
    9          3.777200000000        -0.179189860136
   10          1.921900000000        -1.722439667661
   11          0.713100000000         4.587641286423
   12          0.309700000000        -3.931080148277
   13          0.054900000000         1.685133348596
   14          0.022700000000        -0.800117453494
 S 14
    1      70059.419999999998         0.002113052835
    2      10776.235000000001         0.015401323266
    3       2482.490100000000         0.073237975574
    4        702.152600000000         0.222328012795
    5        216.792600000000         0.361549875368
    6         41.495000000000         0.182975294548
    7         29.496900000000         0.295004361588
    8         15.030900000000        -1.055288755784
    9          3.777200000000         4.319675703013
   10          1.921900000000        -5.915976837127
   11          0.713100000000         3.939063061743
   12          0.309700000000        -1.767819355110
   13          0.054900000000         0.449861740620
   14          0.022700000000        -0.208209919557
 S 14
    1      70059.419999999998         0.002059118364
    2      10776.235000000001         0.015008213252
    3       2482.490100000000         0.071368617914
    4        702.152600000000         0.216653216756
    5        216.792600000000         0.352321520494
    6         41.495000000000         0.851856486651
    7         29.496900000000        -1.556572853239
    8         15.030900000000         1.933008891173
    9          3.777200000000        -5.059431297895
   10          1.921900000000         6.332266583484
   11          0.713100000000        -3.866584580056
   12          0.309700000000         1.675735553507
   13          0.054900000000        -0.421399335357
   14          0.022700000000         0.195300991818
 S 14
    1      70059.419999999998         0.000558827323
    2      10776.235000000001         0.004073102246
    3       2482.490100000000         0.019368839784
    4        702.152600000000         0.058797852146
    5        216.792600000000         0.095617083281
    6         41.495000000000        -4.866953450678
    7         29.496900000000        10.059440905757
    8         15.030900000000        -7.697944846239
    9          3.777200000000         5.056420576412
   10          1.921900000000        -4.210460649748
   11          0.713100000000         1.886182472750
   12          0.309700000000        -0.758530280689
   13          0.054900000000         0.192131741587
   14          0.022700000000        -0.089778758689
 S 14
    1      70059.419999999998        -0.000427280566
    2      10776.235000000001        -0.003114302687
    3       2482.490100000000        -0.014809456318
    4        702.152600000000        -0.044956963486
    5        216.792600000000        -0.073109026348
    6         41.495000000000        -8.329991020244
    7         29.496900000000        13.634763576928
    8         15.030900000000        -5.976214049283
    9          3.777200000000         2.439835701174
   10          1.921900000000        -1.900645002468
   11          0.713100000000         0.831311415483
   12          0.309700000000        -0.334799231324
   13          0.054900000000         0.085375356287
   14          0.022700000000        -0.039964210293
 S 14
    1      70059.419999999998        -0.003886304048
    2      10776.235000000001        -0.028325948105
    3       2482.490100000000        -0.134698496979
    4        702.152600000000        -0.408903289930
    5        216.792600000000        -0.664958642202
    6         41.495000000000        10.581210523489
    7         29.496900000000       -13.267252979271
    8         15.030900000000         4.564824528042
    9          3.777200000000        -1.657739826888
   10          1.921900000000         1.282499712898
   11          0.713100000000        -0.561545175700
   12          0.309700000000         0.226708853433
   13          0.054900000000        -0.057969013143
   14          0.022700000000         0.027150117721
 P 46
    1       1545.478896900000         0.000050723704
    2        348.797622130000         0.000396837629
    3        105.529435290000         0.001354403537
    4         25.617997454000         0.017925224449
    5         15.784430330000        -0.057786668505
    6          3.385287123900         0.062131228915
    7       1545.478896900000        -0.000111878161
    8        348.797622130000        -0.000875280404
    9        105.529435290000        -0.002987324762
   10         25.617997454000        -0.039536567491
   11         15.784430330000         0.127456508333
   12          3.385287123900        -0.137039038603
   13       1545.478896900000        -0.000022127712
   14        348.797622130000        -0.000173116476
   15        105.529435290000        -0.000590845099
   16         25.617997454000        -0.007819701230
   17         15.784430330000         0.025208860513
   18          3.385287123900        -0.027104131866
   19          7.494030111100         0.043323157913
   20          4.543809396600         0.095895473505
   21          2.014474222200         0.073419009833
   22          7.494030111100        -0.095605295042
   23          4.543809396600        -0.211621577909
   24          2.014474222200        -0.162020647498
   25          7.494030111100        -0.018882836213
   26          4.543809396600        -0.041797011275
   27          2.014474222200        -0.032000417430
   28          1.108388652400        -0.135300309579
   29          1.108388652400         0.299801485942
   30          1.108388652400         0.057976914520
   31          0.511426488800        -0.252743945081
   32          0.511426488800         0.560119819749
   33          0.511426488800         0.111049846342
   34          0.225614152900        -0.113869620075
   35          0.225614152900         0.242321765245
   36          0.225614152900         0.050944601896
   37          0.076000181500        -0.004760868634
   38          0.076000181500         0.008249189252
   39          0.076000181500         0.001465393099
   40          0.027117030500        -0.000295234297
   41          0.027117030500        -0.000093980335
   42          0.027117030500         0.000407281775
   43        128.234100000000         0.002597647360
   44         46.268500000000         0.009392625776
   45         20.736600000000         0.015113672816
   46          9.447900000000         0.014075872206
 F 46
    1       1545.478896900000        -0.000000000029
    2        348.797622130000        -0.000000000996
    3        105.529435290000        -0.000000011236
    4         25.617997454000        -0.000000612577
    5         15.784430330000         0.000003205088
    6          3.385287123900        -0.000016067772
    7       1545.478896900000         0.000000000005
    8        348.797622130000         0.000000000176
    9        105.529435290000         0.000000001985
   10         25.617997454000         0.000000108220
   11         15.784430330000        -0.000000566221
   12          3.385287123900         0.000002838586
   13       1545.478896900000         0.000000000055
   14        348.797622130000         0.000000001900
   15        105.529435290000         0.000000021430
   16         25.617997454000         0.000001168330
   17         15.784430330000        -0.000006112867
   18          3.385287123900         0.000030645072
   19          7.494030111100        -0.000004948417
   20          4.543809396600        -0.000018065069
   21          2.014474222200        -0.000031196684
   22          7.494030111100        -0.000001336735
   23          4.543809396600        -0.000004879986
   24          2.014474222200        -0.000008427279
   25          7.494030111100         0.000009185641
   26          4.543809396600         0.000033533802
   27          2.014474222200         0.000057909738
   28          1.108388652400         0.000134519128
   29          1.108388652400         0.000156993561
   30          1.108388652400        -0.000238118417
   31          0.511426488800         0.000473575452
   32          0.511426488800         0.000425348948
   33          0.511426488800        -0.000857392719
   34          0.225614152900        -0.000530664834
   35          0.225614152900         0.001064197667
   36          0.225614152900         0.001295516370
   37          0.076000181500         0.000525960495
   38          0.076000181500         0.000502434843
   39          0.076000181500        -0.000316611790
   40          0.027117030500         0.000798244665
   41          0.027117030500         0.000225869980
   42          0.027117030500        -0.001491329380
   43        128.234100000000         0.000192014973
   44         46.268500000000         0.001924243502
   45         20.736600000000         0.006908613475
   46          9.447900000000         0.014122073152
 F 46
    1       1545.478896900000         0.000000001385
    2        348.797622130000         0.000000048011
    3        105.529435290000         0.000000541594
    4         25.617997454000         0.000029526970
    5         15.784430330000        -0.000154489226
    6          3.385287123900         0.000774486562
    7       1545.478896900000        -0.000000002083
    8        348.797622130000        -0.000000072220
    9        105.529435290000        -0.000000814690
   10         25.617997454000        -0.000044415796
   11         15.784430330000         0.000232389645
   12          3.385287123900        -0.001165017537
   13       1545.478896900000        -0.000000001864
   14        348.797622130000        -0.000000064602
   15        105.529435290000        -0.000000728758
   16         25.617997454000        -0.000039730868
   17         15.784430330000         0.000207877446
   18          3.385287123900        -0.001042132794
   19          7.494030111100         0.000252389600
   20          4.543809396600         0.000921392740
   21          2.014474222200         0.001591159045
   22          7.494030111100        -0.000379783502
   23          4.543809396600        -0.001386466644
   24          2.014474222200        -0.002394298160
   25          7.494030111100        -0.000339524961
   26          4.543809396600        -0.001239495739
   27          2.014474222200        -0.002140493159
   28          1.108388652400        -0.004955921274
   29          1.108388652400         0.007511273075
   30          1.108388652400         0.006627590925
   31          0.511426488800        -0.035625920438
   32          0.511426488800         0.053555839838
   33          0.511426488800         0.047965465100
   34          0.225614152900        -0.004421106049
   35          0.225614152900         0.006193026209
   36          0.225614152900         0.006373194697
   37          0.076000181500         0.027605137341
   38          0.076000181500        -0.045959652745
   39          0.076000181500        -0.034719764233
   40          0.027117030500         4.069828141899
   41          0.027117030500        -6.101277044771
   42          0.027117030500        -5.494991194986
   43        128.234100000000         0.000007977626
   44         46.268500000000         0.000079946340
   45         20.736600000000         0.000287031429
   46          9.447900000000         0.000586728271
 F 46
    1       1545.478896900000         0.000000003005
    2        348.797622130000         0.000000104152
    3        105.529435290000         0.000001174909
    4         25.617997454000         0.000064054453
    5         15.784430330000        -0.000335141837
    6          3.385287123900         0.001680135605
    7       1545.478896900000        -0.000000003963
    8        348.797622130000        -0.000000137373
    9        105.529435290000        -0.000001549660
   10         25.617997454000        -0.000084485364
   11         15.784430330000         0.000442039218
   12          3.385287123900        -0.002216034369
   13       1545.478896900000        -0.000000003945
   14        348.797622130000        -0.000000136758
   15        105.529435290000        -0.000001542727
   16         25.617997454000        -0.000084107342
   17         15.784430330000         0.000440061351
   18          3.385287123900        -0.002206118909
   19          7.494030111100         0.000539194403
   20          4.543809396600         0.001968424247
   21          2.014474222200         0.003399284486
   22          7.494030111100        -0.000711559734
   23          4.543809396600        -0.002597674284
   24          2.014474222200        -0.004485940419
   25          7.494030111100        -0.000707804655
   26          4.543809396600        -0.002583965705
   27          2.014474222200        -0.004462266986
   28          1.108388652400        -0.019874596256
   29          1.108388652400         0.026060261901
   30          1.108388652400         0.026016707932
   31          0.511426488800        -0.007379285394
   32          0.511426488800         0.011325419065
   33          0.511426488800         0.009697083375
   34          0.225614152900        -0.332622925080
   35          0.225614152900         0.430741890207
   36          0.225614152900         0.438379537422
   37          0.076000181500         3.067338448233
   38          0.076000181500        -3.976041160528
   39          0.076000181500        -4.031507903467
   40          0.027117030500        -5.558809859474
   41          0.027117030500         6.983518104861
   42          0.027117030500         7.290793638695
   43        128.234100000000         0.000011589923
   44         46.268500000000         0.000116146327
   45         20.736600000000         0.000417000279
   46          9.447900000000         0.000852400914
 D 46
    1      70059.419999999998         0.000000000001
    2      10776.235000000001         0.000000000028
    3       2482.490100000000         0.000000000576
    4        702.152600000000         0.000000006182
    5        216.792600000000         0.000000032560
    6         41.495000000000        -0.000000962563
    7         29.496900000000         0.000004351609
    8         15.030900000000        -0.000014425098
    9          3.777200000000         0.000136001079
   10          1.921900000000        -0.000267455158
   11          0.713100000000         0.001352516564
   12          0.309700000000        -0.006656602110
   13          0.054900000000         0.044662841065
   14          0.022700000000         0.004472584180
   15        389.084100000000        -0.000088525541
   16        117.760200000000        -0.000705883449
   17         44.986900000000        -0.002844753396
   18         22.859900000000        -0.002060125312
   19          7.833100000000        -0.044829069546
   20          4.113400000000        -0.073816377193
   21        389.084100000000         0.000068105628
   22        117.760200000000         0.000543059497
   23         44.986900000000         0.002188562926
   24         22.859900000000         0.001584922576
   25          7.833100000000         0.034488486681
   26          4.113400000000         0.056789381698
   27        389.084100000000         0.000071114251
   28        117.760200000000         0.000567049601
   29         44.986900000000         0.002285244514
   30         22.859900000000         0.001654937849
[...]
  BAS[ATNO][ 22].a[  3] =       702.152600000000;     BAS[ATNO][ 22].d[  3] =         0.000000561692;
  BAS[ATNO][ 22].a[  4] =       216.792600000000;     BAS[ATNO][ 22].d[  4] =         0.000002958418;
  BAS[ATNO][ 22].a[  5] =        41.495000000000;     BAS[ATNO][ 22].d[  5] =         0.000043967402;
  BAS[ATNO][ 22].a[  6] =        29.496900000000;     BAS[ATNO][ 22].d[  6] =        -0.000121863403;
  BAS[ATNO][ 22].a[  7] =        15.030900000000;     BAS[ATNO][ 22].d[  7] =         0.000316692110;
  BAS[ATNO][ 22].a[  8] =         3.777200000000;     BAS[ATNO][ 22].d[  8] =        -0.003446354184;
  BAS[ATNO][ 22].a[  9] =         1.921900000000;     BAS[ATNO][ 22].d[  9] =         0.008498505651;
  BAS[ATNO][ 22].a[ 10] =         0.713100000000;     BAS[ATNO][ 22].d[ 10] =        -0.013882175981;
  BAS[ATNO][ 22].a[ 11] =         0.309700000000;     BAS[ATNO][ 22].d[ 11] =         0.013725212229;
  BAS[ATNO][ 22].a[ 12] =         0.054900000000;     BAS[ATNO][ 22].d[ 12] =        -0.019143582408;
  BAS[ATNO][ 22].a[ 13] =         0.022700000000;     BAS[ATNO][ 22].d[ 13] =         0.020772199473;
  BAS[ATNO][ 22].a[ 14] =       389.084100000000;     BAS[ATNO][ 22].d[ 14] =        -0.000043191030;
  BAS[ATNO][ 22].a[ 15] =       117.760200000000;     BAS[ATNO][ 22].d[ 15] =        -0.000344395899;
  BAS[ATNO][ 22].a[ 16] =        44.986900000000;     BAS[ATNO][ 22].d[ 16] =        -0.001387936500;
  BAS[ATNO][ 22].a[ 17] =        22.859900000000;     BAS[ATNO][ 22].d[ 17] =        -0.001005121610;
  BAS[ATNO][ 22].a[ 18] =         7.833100000000;     BAS[ATNO][ 22].d[ 18] =        -0.021871808629;
  BAS[ATNO][ 22].a[ 19] =         4.113400000000;     BAS[ATNO][ 22].d[ 19] =        -0.036014525663;
  BAS[ATNO][ 22].a[ 20] =       389.084100000000;     BAS[ATNO][ 22].d[ 20] =        -0.001014181330;
  BAS[ATNO][ 22].a[ 21] =       117.760200000000;     BAS[ATNO][ 22].d[ 21] =        -0.008086861829;
  BAS[ATNO][ 22].a[ 22] =        44.986900000000;     BAS[ATNO][ 22].d[ 22] =        -0.032590546891;
  BAS[ATNO][ 22].a[ 23] =        22.859900000000;     BAS[ATNO][ 22].d[ 23] =        -0.023601557403;
  BAS[ATNO][ 22].a[ 24] =         7.833100000000;     BAS[ATNO][ 22].d[ 24] =        -0.513578398402;
  BAS[ATNO][ 22].a[ 25] =         4.113400000000;     BAS[ATNO][ 22].d[ 25] =        -0.845667714228;
  BAS[ATNO][ 22].a[ 26] =       389.084100000000;     BAS[ATNO][ 22].d[ 26] =         0.000040689473;
  BAS[ATNO][ 22].a[ 27] =       117.760200000000;     BAS[ATNO][ 22].d[ 27] =         0.000324449025;
  BAS[ATNO][ 22].a[ 28] =        44.986900000000;     BAS[ATNO][ 22].d[ 28] =         0.001307549379;
  BAS[ATNO][ 22].a[ 29] =        22.859900000000;     BAS[ATNO][ 22].d[ 29] =         0.000946906532;
  BAS[ATNO][ 22].a[ 30] =         7.833100000000;     BAS[ATNO][ 22].d[ 30] =         0.020605027532;
  BAS[ATNO][ 22].a[ 31] =         4.113400000000;     BAS[ATNO][ 22].d[ 31] =         0.033928620419;
  BAS[ATNO][ 22].a[ 32] =       389.084100000000;     BAS[ATNO][ 22].d[ 32] =         0.000198957666;
  BAS[ATNO][ 22].a[ 33] =       117.760200000000;     BAS[ATNO][ 22].d[ 33] =         0.001586445250;
  BAS[ATNO][ 22].a[ 34] =        44.986900000000;     BAS[ATNO][ 22].d[ 34] =         0.006393471215;
  BAS[ATNO][ 22].a[ 35] =        22.859900000000;     BAS[ATNO][ 22].d[ 35] =         0.004630050499;
  BAS[ATNO][ 22].a[ 36] =         7.833100000000;     BAS[ATNO][ 22].d[ 36] =         0.100751568169;
  BAS[ATNO][ 22].a[ 37] =         4.113400000000;     BAS[ATNO][ 22].d[ 37] =         0.165899400410;
  BAS[ATNO][ 22].a[ 38] =       389.084100000000;     BAS[ATNO][ 22].d[ 38] =        -0.000470319232;
  BAS[ATNO][ 22].a[ 39] =       117.760200000000;     BAS[ATNO][ 22].d[ 39] =        -0.003750223487;
  BAS[ATNO][ 22].a[ 40] =        44.986900000000;     BAS[ATNO][ 22].d[ 40] =        -0.015113629612;
  BAS[ATNO][ 22].a[ 41] =        22.859900000000;     BAS[ATNO][ 22].d[ 41] =        -0.010945050970;
  BAS[ATNO][ 22].a[ 42] =         7.833100000000;     BAS[ATNO][ 22].d[ 42] =        -0.238168255230;
  BAS[ATNO][ 22].a[ 43] =         4.113400000000;     BAS[ATNO][ 22].d[ 43] =        -0.392172265478;
  BAS[ATNO][ 22].a[ 44] =         2.099900000000;     BAS[ATNO][ 22].d[ 44] =         0.107652365647;
  BAS[ATNO][ 22].a[ 45] =         2.099900000000;     BAS[ATNO][ 22].d[ 45] =         2.519219253533;

  // Basis function  24 L = p
  InitBFNGauss(BAS[ATNO][ 23]);
  BAS[ATNO][ 23].l  = 1;
  BAS[ATNO][ 23].ng = 46;
  BAS[ATNO][ 23].a[  0] =      1545.478896900000;     BAS[ATNO][ 23].d[  0] =        -0.000297879045;
  BAS[ATNO][ 23].a[  1] =       348.797622130000;     BAS[ATNO][ 23].d[  1] =        -0.002330460990;
  BAS[ATNO][ 23].a[  2] =       105.529435290000;     BAS[ATNO][ 23].d[  2] =        -0.007953844040;
  BAS[ATNO][ 23].a[  3] =        25.617997454000;     BAS[ATNO][ 23].d[  3] =        -0.105267326718;
  BAS[ATNO][ 23].a[  4] =        15.784430330000;     BAS[ATNO][ 23].d[  4] =         0.339356872804;
  BAS[ATNO][ 23].a[  5] =         3.385287123900;     BAS[ATNO][ 23].d[  5] =        -0.364870654317;
  BAS[ATNO][ 23].a[  6] =      1545.478896900000;     BAS[ATNO][ 23].d[  6] =         0.001468327213;
  BAS[ATNO][ 23].a[  7] =       348.797622130000;     BAS[ATNO][ 23].d[  7] =         0.011487479066;
  BAS[ATNO][ 23].a[  8] =       105.529435290000;     BAS[ATNO][ 23].d[  8] =         0.039206670826;
  BAS[ATNO][ 23].a[  9] =        25.617997454000;     BAS[ATNO][ 23].d[  9] =         0.518891419884;
  BAS[ATNO][ 23].a[ 10] =        15.784430330000;     BAS[ATNO][ 23].d[ 10] =        -1.672782762390;
  BAS[ATNO][ 23].a[ 11] =         3.385287123900;     BAS[ATNO][ 23].d[ 11] =         1.798547163641;
  BAS[ATNO][ 23].a[ 12] =      1545.478896900000;     BAS[ATNO][ 23].d[ 12] =        -0.000029581885;
  BAS[ATNO][ 23].a[ 13] =       348.797622130000;     BAS[ATNO][ 23].d[ 13] =        -0.000231434303;
  BAS[ATNO][ 23].a[ 14] =       105.529435290000;     BAS[ATNO][ 23].d[ 14] =        -0.000789883357;
  BAS[ATNO][ 23].a[ 15] =        25.617997454000;     BAS[ATNO][ 23].d[ 15] =        -0.010453927566;
  BAS[ATNO][ 23].a[ 16] =        15.784430330000;     BAS[ATNO][ 23].d[ 16] =         0.033700980900;
  BAS[ATNO][ 23].a[ 17] =         3.385287123900;     BAS[ATNO][ 23].d[ 17] =        -0.036234713182;
  BAS[ATNO][ 23].a[ 18] =         7.494030111100;     BAS[ATNO][ 23].d[ 18] =         0.027490650909;
  BAS[ATNO][ 23].a[ 19] =         4.543809396600;     BAS[ATNO][ 23].d[ 19] =         0.060850342239;
  BAS[ATNO][ 23].a[ 20] =         2.014474222200;     BAS[ATNO][ 23].d[ 20] =         0.046587932797;
  BAS[ATNO][ 23].a[ 21] =         7.494030111100;     BAS[ATNO][ 23].d[ 21] =        -0.135483767107;
  BAS[ATNO][ 23].a[ 22] =         4.543809396600;     BAS[ATNO][ 23].d[ 22] =        -0.299892266047;
  BAS[ATNO][ 23].a[ 23] =         2.014474222200;     BAS[ATNO][ 23].d[ 23] =        -0.229602007530;
  BAS[ATNO][ 23].a[ 24] =         7.494030111100;     BAS[ATNO][ 23].d[ 24] =         0.002721258523;
  BAS[ATNO][ 23].a[ 25] =         4.543809396600;     BAS[ATNO][ 23].d[ 25] =         0.006023484602;
  BAS[ATNO][ 23].a[ 26] =         2.014474222200;     BAS[ATNO][ 23].d[ 26] =         0.004611669968;
  BAS[ATNO][ 23].a[ 27] =         1.108388652400;     BAS[ATNO][ 23].d[ 27] =         0.271384532303;
  BAS[ATNO][ 23].a[ 28] =         1.108388652400;     BAS[ATNO][ 23].d[ 28] =        -1.337981383702;
  BAS[ATNO][ 23].a[ 29] =         1.108388652400;     BAS[ATNO][ 23].d[ 29] =         0.027054037691;
  BAS[ATNO][ 23].a[ 30] =         0.511426488800;     BAS[ATNO][ 23].d[ 30] =        -0.236241104235;
  BAS[ATNO][ 23].a[ 31] =         0.511426488800;     BAS[ATNO][ 23].d[ 31] =         1.164858111847;
  BAS[ATNO][ 23].a[ 32] =         0.511426488800;     BAS[ATNO][ 23].d[ 32] =        -0.023590372303;
  BAS[ATNO][ 23].a[ 33] =         0.225614152900;     BAS[ATNO][ 23].d[ 33] =         0.116415102457;
  BAS[ATNO][ 23].a[ 34] =         0.225614152900;     BAS[ATNO][ 23].d[ 34] =        -0.574147502895;
  BAS[ATNO][ 23].a[ 35] =         0.225614152900;     BAS[ATNO][ 23].d[ 35] =         0.011646201948;
  BAS[ATNO][ 23].a[ 36] =         0.076000181500;     BAS[ATNO][ 23].d[ 36] =        -0.040905777675;
  BAS[ATNO][ 23].a[ 37] =         0.076000181500;     BAS[ATNO][ 23].d[ 37] =         0.201776600742;
  BAS[ATNO][ 23].a[ 38] =         0.076000181500;     BAS[ATNO][ 23].d[ 38] =        -0.004095010358;
  BAS[ATNO][ 23].a[ 39] =         0.027117030500;     BAS[ATNO][ 23].d[ 39] =         0.013074866807;
  BAS[ATNO][ 23].a[ 40] =         0.027117030500;     BAS[ATNO][ 23].d[ 40] =        -0.064453582084;
  BAS[ATNO][ 23].a[ 41] =         0.027117030500;     BAS[ATNO][ 23].d[ 41] =         0.001300026418;
  BAS[ATNO][ 23].a[ 42] =       128.234100000000;     BAS[ATNO][ 23].d[ 42] =        -0.000013797056;
  BAS[ATNO][ 23].a[ 43] =        46.268500000000;     BAS[ATNO][ 23].d[ 43] =        -0.000049887672;
  BAS[ATNO][ 23].a[ 44] =        20.736600000000;     BAS[ATNO][ 23].d[ 44] =        -0.000080274246;
  BAS[ATNO][ 23].a[ 45] =         9.447900000000;     BAS[ATNO][ 23].d[ 45] =        -0.000074762107;

-------------------------------------------
RADIAL EXPECTATION VALUES <R**-3> TO <R**3>
-------------------------------------------
   0 :     0.000000     6.231004     1.907993     0.579520     0.364679     0.248714
   1 :    10.229358     3.806576     1.822814     0.611377     0.412354     0.305399
   2 :    10.232122     3.807270     1.822991     0.611302     0.412238     0.305268
   3 :    10.226331     3.805727     1.822566     0.611496     0.412543     0.305604
   4 :     9.148991     3.595870     1.747018     0.658486     0.492559     2.077866
   5 :     9.127945     3.590001     1.745495     0.659118     0.493493     2.083130
   6 :     9.129314     3.590489     1.745654     0.659012     0.493289     2.081516
   7 :     9.129465     3.590655     1.745739     0.658927     0.493099     2.079784
   8 :     9.131258     3.591243     1.745921     0.658812     0.492876     2.077957
   9 :     0.000000     4.301634     0.900775     1.382042     2.141376     3.650074
  10 :     0.000000     0.561672     0.288322     4.082031    19.241110   100.590442
  11 :     0.000000     0.247960     0.176813     7.326949    60.392579   533.071807
  12 :     0.000000     4.847178     0.623844     2.718173    11.214341    67.997085
  13 :     0.000000  1097.848079    16.991866     0.650809     1.358974     5.566916
  14 :     0.000000  1050.528371    16.302954     0.645173     1.259281     4.956483
  15 :     0.000000    55.467960     3.327554     0.452934     0.394371     1.089248
  16 :     0.000000   103.912457     6.068200     0.238098     0.108114     0.220987
  17 :     0.000000  1642.688569    20.572060     0.132920     0.048727     0.100708
  18 :     1.817903     0.839476     0.761657     1.592905     2.876708     5.785360
  19 :     1.807367     0.835702     0.759720     1.598277     2.899813     5.866292
  20 :     1.821127     0.840575     0.762163     1.591643     2.871431     5.763298
  21 :     7.802793     3.026273     1.527223     0.846247     0.918414     8.829376
  22 :     7.998066     3.089831     1.547584     0.828657     0.872911     8.076642
  23 :     7.956591     3.075676     1.542732     0.833723     0.887654     8.337938
  24 :     7.912368     3.061265     1.538097     0.837829     0.898532     8.520980
  25 :     7.870597     3.047171     1.533318     0.842766     0.912798     8.750773
  26 :     0.645571     0.388799     0.495880     2.553895     7.719231   133.638229
  27 :     0.114773     0.084937     0.226547     5.319664    31.989321   213.984095
  28 :     0.048854     0.048408     0.179581     6.458710    46.056048   356.406325
  29 :     0.049083     0.048007     0.178199     6.508264    46.705690   363.246095
  30 :     0.387473     0.271513     0.412578     3.051201    10.948718   209.055712
  31 :     0.394804     0.269726     0.415817     3.011127    10.575652   209.100333
  32 :     0.386326     0.265523     0.412831     3.029330    10.688193   212.412589
  33 :     0.385309     0.265485     0.412474     3.032347    10.709021   212.817953
  34 :     0.108263     0.072249     0.191979     6.882233    54.985857   480.374657
  35 :     0.161726     0.103463     0.234727     5.785548    41.278324   340.541350
  36 :     0.168659     0.106383     0.237250     5.735904    40.655232   334.075331
  37 :     5.761230     2.337129     1.291011     1.110253     1.733641    24.801231
  38 :     5.543908     2.259621     1.262191     1.149726     1.866491    27.632028
  39 :     0.457995     0.262554     0.369554     3.724726    16.204468   383.253586
  40 :     0.643877     0.354153     0.437546     3.301916    13.514990   312.174859
  41 :     0.640733     0.352375     0.436079     3.311877    13.579013   313.646108
  42 :     0.646850     0.355910     0.439148     3.289727    13.434312   309.978558
  43 :     0.652740     0.358705     0.441016     3.279559    13.370940   308.312476
  44 :     0.692691     0.356266     0.442974     2.758588     8.253862   175.188008
  45 :     0.642218     0.339088     0.436567     2.768705     8.282051   176.455215
  46 :     0.657625     0.344516     0.438676     2.763324     8.246198   176.352846
  47 :     0.625353     0.333508     0.434757     2.763390     8.201557   177.407099
  48 :     0.637039     0.337465     0.436162     2.761985     8.200208   177.070838
  49 :     0.716287     0.353410     0.436577     3.318763    14.933592    97.903745
  50 :     0.723702     0.355041     0.435740     3.344347    15.155581    97.026229
  51 :     0.802462     0.384591     0.448442     3.276213    14.545094   100.527121
  52 :     1.729992     0.729498     0.582573     2.587132     7.819139   160.905034
  53 :     1.717968     0.724760     0.580654     2.635324     8.377240   153.779908
  54 :     2.021850     0.935781     0.756184     1.908379     4.900481    81.125110
  55 :     2.032473     0.939322     0.758033     1.905288     4.893495    81.157259
  56 :     2.032113     0.939099     0.757970     1.904580     4.886593    80.924179
  57 :     2.033557     0.939596     0.758162     1.904663     4.889053    81.024995
  58 :     2.001024     0.926751     0.752087     1.916783     4.927952    81.429185
  59 :     2.835336     1.181428     0.827838     1.740981     3.803033    68.898055
  60 :     2.712069     1.144111     0.817589     1.740948     3.777404    67.873061
  61 :     2.731355     1.150157     0.819305     1.740820     3.780906    68.020512
  62 :     2.740887     1.153402     0.820371     1.739851     3.778078    67.963261
  63 :     2.755116     1.158018     0.821799     1.738986     3.776799    67.956097
  64 :     3.422981     1.380031     0.893486     1.678340     3.616996    65.118430
  65 :     3.463005     1.394026     0.898276     1.673450     3.602007    64.803329
  66 :     4.498095     1.425435     0.901785     1.799528     5.087010    22.679001
  67 :     4.498943     1.425606     0.901791     1.799834     5.089398    22.698598
  68 :     4.498650     1.425581     0.901821     1.798961     5.080301    22.618649
  69 :     9.850559     3.175199     1.431440     1.078174     1.647095    23.268753
  70 :     9.896854     3.189378     1.435983     1.073298     1.632711    23.006014
  71 :     9.890543     3.187554     1.435462     1.073743     1.634035    23.032664
  72 :     9.907442     3.192358     1.436779     1.072807     1.631529    22.986507
  73 :     9.903708     3.191307     1.436498     1.072997     1.632064    22.997093
  74 :    10.258326     3.289070     1.461216     1.061541     1.609167    22.655328
  75 :    10.283465     3.296318     1.463260     1.059951     1.604789    22.574418
  76 :    11.548390     3.420902     1.460787     1.078222     1.749161    20.821835
  77 :    11.547952     3.470610     1.461587     1.078042     1.748749    20.818531
  78 :    11.540863     3.490673     1.461465     1.078167     1.748744    20.813958
  79 :    11.552618     3.393218     1.460731     1.077816     1.747698    20.796418
  80 :    11.526184     3.361393     1.458481     1.079068     1.751369    20.867175
  81 :    68.912650    14.019891     3.367756     0.447388     0.468363     1.469701
  82 :    68.910842    14.019506     3.367680     0.447415     0.468403     1.469650
  83 :    68.912219    14.019822     3.367755     0.447360     0.468229     1.468967
Making the total density                ... o.k.
o.k.
Initializing the integrals              ... done
Making exponents                        ... done
Making rho(0)                           ... done (        60.386549483)
Integral calculation                    ... Two index integrals                     ... done
Solving the equation system             ... done
atomic density will be written to file 63_Eu_atom63.adf

-------
TIMINGS
-------

Total SCF time: 0 days 0 hours 0 min 51 sec 

Total time                  ....      51.572 sec
Sum of individual times     ....      50.261 sec  ( 97.5%)

Fock matrix formation       ....      48.350 sec  ( 93.8%)
Diagonalization             ....       0.944 sec  (  1.8%)
Density matrix formation    ....       0.033 sec  (  0.1%)
Population analysis         ....       0.000 sec  (  0.0%)
Initial guess               ....       0.001 sec  (  0.0%)
Orbital Transformation      ....       0.000 sec  (  0.0%)
Orbital Orthonormalization  ....       0.000 sec  (  0.0%)
DIIS solution               ....       0.933 sec  (  1.8%)

-------------------------   --------------------
FINAL SINGLE POINT ENERGY      -708.083260599141
-------------------------   --------------------


                            ***************************************
                            *     ORCA property calculations      *
                            ***************************************

                                    ---------------------
                                    Active property flags
                                    ---------------------
   (+) Dipole Moment


------------------------------------------------------------------------------
                       ORCA ELECTRIC PROPERTIES CALCULATION
------------------------------------------------------------------------------

Dipole Moment Calculation                       ... on
Quadrupole Moment Calculation                   ... off
Polarizability Calculation                      ... off
GBWName                                         ... 63_Eu_atom63.gbw
Electron density file                           ... 63_Eu_atom63.scfp
The origin for moment calculation is the CENTER OF MASS  = ( 0.000000,  0.000000  0.000000)

-------------
DIPOLE MOMENT
-------------
                                X             Y             Z
Electronic contribution:     -0.00000       0.00000      -0.00000
Nuclear contribution   :      0.00000       0.00000       0.00000
                        -----------------------------------------
Total Dipole Moment    :     -0.00000       0.00000      -0.00000
                        -----------------------------------------
Magnitude (a.u.)       :      0.00000
Magnitude (Debye)      :      0.00000



--------------------
Rotational spectrum 
--------------------
 
Rotational constants in cm-1:     0.000000     0.000000     0.000000 
Rotational constants in MHz :     0.000000     0.000000     0.000000 

 Dipole components along the rotational axes: 
x,y,z [a.u.] :    -0.000000     0.000000    -0.000000 
x,y,z [Debye]:    -0.000000     0.000000    -0.000000 

 

Timings for individual modules:

Sum of individual times         ...       53.424 sec (=   0.890 min)
GTO integral calculation        ...        1.830 sec (=   0.031 min)   3.4 %
SCF iterations                  ...       51.594 sec (=   0.860 min)  96.6 %
                             ****ORCA TERMINATED NORMALLY****
TOTAL RUN TIME: 0 days 0 hours 0 minutes 53 seconds 673 msec
