
                                 *****************
                                 * O   R   C   A *
                                 *****************

           --- An Ab Initio, DFT and Semiempirical electronic structure package ---

                  #######################################################
                  #                        -***-                        #
                  #          Department of theory and spectroscopy      #
                  #               Directorship: Frank Neese             #
                  #        Max Planck Institute fuer Kohlenforschung    #
                  #                Kaiser Wilhelm Platz 1               #
                  #                 D-45470 Muelheim/Ruhr               #
                  #                      Germany                        #
                  #                                                     #
                  #                  All rights reserved                #
                  #                        -***-                        #
                  #######################################################


                         Program Version 4.2.0 -  RELEASE  -


 With contributions from (in alphabetic order):
   Daniel Aravena         : Magnetic Suceptibility
   Michael Atanasov       : Ab Initio Ligand Field Theory (pilot matlab implementation)
   Alexander A. Auer      : GIAO ZORA, VPT2
   Ute Becker             : Parallelization
   Giovanni Bistoni       : ED, misc. LED, open-shell LED, HFLED
   Martin Brehm           : Molecular dynamics
   Dmytro Bykov           : SCF Hessian
   Vijay G. Chilkuri      : MRCI spin determinant printing, contributions to CSF-ICE
   Dipayan Datta          : RHF DLPNO-CCSD density
   Achintya Kumar Dutta   : EOM-CC, STEOM-CC
   Dmitry Ganyushin       : Spin-Orbit,Spin-Spin,Magnetic field MRCI
   Miquel Garcia          : C-PCM Hessian, Gaussian charge scheme
   Yang Guo               : DLPNO-NEVPT2, CIM, IAO-localization
   Andreas Hansen         : Spin unrestricted coupled pair/coupled cluster methods
   Benjamin Helmich-Paris : CASSCF linear response (MC-RPA)
   Lee Huntington         : MR-EOM, pCC
   Robert Izsak           : Overlap fitted RIJCOSX, COSX-SCS-MP3, EOM
   Christian Kollmar      : KDIIS, OOCD, Brueckner-CCSD(T), CCSD density
   Simone Kossmann        : Meta GGA functionals, TD-DFT gradient, OOMP2, MP2 Hessian
   Martin Krupicka        : AUTO-CI
   Lucas Lang             : DCDCAS
   Dagmar Lenk            : GEPOL surface, SMD
   Dimitrios Liakos       : Extrapolation schemes; Compound Job, initial MDCI parallelization
   Dimitrios Manganas     : Further ROCIS development; embedding schemes
   Dimitrios Pantazis     : SARC Basis sets
   Taras Petrenko         : DFT Hessian,TD-DFT gradient, ASA, ECA, R-Raman, ABS, FL, XAS/XES, NRVS
   Peter Pinski           : DLPNO-MP2, DLPNO-MP2 Gradient
   Christoph Reimann      : Effective Core Potentials
   Marius Retegan         : Local ZFS, SOC
   Christoph Riplinger    : Optimizer, TS searches, QM/MM, DLPNO-CCSD(T), (RO)-DLPNO pert. Triples
   Tobias Risthaus        : Range-separated hybrids, TD-DFT gradient, RPA, STAB
   Michael Roemelt        : Original ROCIS implementation
   Masaaki Saitow         : Open-shell DLPNO-CCSD energy and density
   Barbara Sandhoefer     : DKH picture change effects
   Avijit Sen             : IP-ROCIS
   Kantharuban Sivalingam : CASSCF convergence, NEVPT2, FIC-MRCI
   Bernardo de Souza      : ESD, SOC TD-DFT
   Georgi Stoychev        : AutoAux, RI-MP2 NMR
   Willem Van den Heuvel  : Paramagnetic NMR
   Boris Wezisla          : Elementary symmetry handling
   Frank Wennmohs         : Technical directorship


 We gratefully acknowledge several colleagues who have allowed us to
 interface, adapt or use parts of their codes:
   Stefan Grimme, W. Hujo, H. Kruse,             : VdW corrections, initial TS optimization,
                  C. Bannwarth                     DFT functionals, gCP, sTDA/sTD-DF
   Ed Valeev, F. Pavosevic, A. Kumar             : LibInt (2-el integral package), F12 methods
   Garnet Chan, S. Sharma, J. Yang, R. Olivares  : DMRG
   Ulf Ekstrom                                   : XCFun DFT Library
   Mihaly Kallay                                 : mrcc  (arbitrary order and MRCC methods)
   Andreas Klamt, Michael Diedenhofen            : otool_cosmo (COSMO solvation model)
   Jiri Pittner, Ondrej Demel                    : Mk-CCSD
   Frank Weinhold                                : gennbo (NPA and NBO analysis)
   Christopher J. Cramer and Donald G. Truhlar   : smd solvation model
   Lars Goerigk                                  : TD-DFT with DH, B97 family of functionals
   V. Asgeirsson, H. Jonsson                     : NEB implementation
   FAccTs GmbH                                   : IRC, NEB, NEB-TS, Multilevel, MM, QM/MM, CI optimization
   S Lehtola, MJT Oliveira, MAL Marques          : LibXC Library


 Your calculation uses the libint2 library for the computation of 2-el integrals
 For citations please refer to: http://libint.valeyev.net

 Your ORCA version has been built with support for libXC version: 4.2.3
 For citations please refer to: https://tddft.org/programs/libxc/

 This ORCA versions uses:
   CBLAS   interface :  Fast vector & matrix operations
   LAPACKE interface :  Fast linear algebra routines
   SCALAPACK package :  Parallel linear algebra routines


----- Orbital basis set information -----
Your calculation utilizes the basis: def2-SVP
   F. Weigend and R. Ahlrichs, Phys. Chem. Chem. Phys. 7, 3297 (2005).

----- AuxJ basis set information -----
Your calculation utilizes the auxiliary basis: def2/J
   F. Weigend, Phys. Chem. Chem. Phys. 8, 1057 (2006).

================================================================================
                                        WARNINGS
                       Please study these warnings very carefully!
================================================================================


INFO   : the flag for use of LIBINT has been found!

================================================================================
                                       INPUT FILE
================================================================================
NAME = 66_Dy_atom66.inp
|  1> # input to generate an atomic fitting density for Dy
|  2> # this file is use internally by ORCA
|  3> #
|  4> # atomic ground state (S=5): 1s2 2s2 2p6 3s2 3p6 4s2 3d10 4p6 5s2 4d10 5p6 4f10 6s2 
|  5> #
|  6> ! RHF AllowRHF def2-SVP def2/J  NoMulliken NoLoewdin NoMayer NoPrintMOs 
|  7> 
|  8> %output print[p_atomdensfit] 2 end
|  9> 
| 10> %scf
| 11>   guess hcore
| 12>   maxiter 1000
| 13>   maxdisk 500000
| 14>   SCFMode Conventional
| 15>   lshift 1.000000
| 16>   hftyp rohf
| 17>   rohf_case sahf
| 18>   rohf_numop   3
| 19>   rohf_norb[1] 7,1
| 20>   rohf_nel[1]  10,2
| 21> end
| 22> 
| 23> %basis
| 24>   NewECP 66
| 25>     N_core 28
| 26>     lmax h
| 27>     s 1
| 28>       1      26.4295860000    705.6712210000  2
| 29>     p 1
| 30>       1      17.3170340000    254.8669890000  2
| 31>     d 1
| 32>       1      12.9135990000     95.0451870000  2
| 33>     f 1
| 34>       1      24.9078780000    -54.5740930000  2
| 35>     g 1
| 36>       1      24.1487530000    -29.8282770000  2
| 37>     h 1
| 38>       1       1.0000000000      0.0000000000  2
| 39>   end
| 40>   NewGTO 66
| 41>     s 5 
| 42>      1   78529.7430000000      0.0036871217
| 43>      2   11854.6990000000      0.0275999760
| 44>      3    2719.9807000000      0.1298775248
| 45>      4     772.4036000000      0.3831400342
| 46>      5     242.0320000000      0.5776490613
| 47>     s 1 
| 48>      1      48.3562000000      1.0000000000
| 49>     s 1 
| 50>      1      31.8806000000      1.0000000000
| 51>     s 1 
| 52>      1      16.8609000000      1.0000000000
| 53>     s 1 
| 54>      1       4.2155000000      1.0000000000
| 55>     s 1 
| 56>      1       2.1287000000      1.0000000000
| 57>     s 1 
| 58>      1       0.7889000000      1.0000000000
| 59>     s 1 
| 60>      1       0.3383000000      1.0000000000
| 61>     s 1 
| 62>      1       0.0581000000      1.0000000000
| 63>     s 1 
| 64>      1       0.0238000000      1.0000000000
| 65>     p 6 
| 66>      1    1358.7955712000     -0.0024998489
| 67>      2     314.3007697400     -0.0176433287
| 68>      3      96.8336002360     -0.0538520693
| 69>      4      26.7949213430     -0.3296019244
| 70>      5      16.4027568320      1.1159288533
| 71>      6       3.7814596949     -1.2437228075
| 72>     p 3 
| 73>      1      11.0242741210     -0.2401253327
| 74>      2       5.4163925954     -0.4979770278
| 75>      3       2.0677311442     -0.3659673947
| 76>     p 1 
| 77>      1       1.5508876090      1.0000000000
| 78>     p 1 
| 79>      1       0.7000870070      1.0000000000
| 80>     p 1 
| 81>      1       0.3000106384      1.0000000000
| 82>     p 1 
| 83>      1       0.0935105294      1.0000000000
| 84>     p 1 
| 85>      1       0.0323874950      1.0000000000
| 86>     d 6 
| 87>      1     409.8032000000      0.0013647476
| 88>      2     123.7104000000      0.0110223594
| 89>      3      47.0976000000      0.0442890612
| 90>      4      20.1202000000      0.0826063730
| 91>      5       8.1571000000      0.4051734758
| 92>      6       4.1474000000      0.5783555128
| 93>     d 1 
| 94>      1       2.0825000000      1.0000000000
| 95>     d 1 
| 96>      1       0.9998000000      1.0000000000
| 97>     d 1 
| 98>      1       0.3202000000      1.0000000000
| 99>     d 1 
|100>      1       0.0913000000      1.0000000000
|101>     f 5 
|102>      1     129.6274000000      0.0075286590
|103>      2      47.1727000000      0.0695096485
|104>      3      21.1586000000      0.2218345458
|105>      4       9.6381000000      0.4030527505
|106>      5       4.3953000000      0.5072068450
|107>     f 1 
|108>      1       1.9426000000      1.0000000000
|109>     f 1 
|110>      1       0.7980000000      1.0000000000
|111>     f 1 
|112>      1       0.2866000000      1.0000000000
|113>   end
|114>   NewAuxGTO 66
|115>     S 1
|116>      1 1310.72 1.0
|117>     S 1
|118>      1  655.36 1.0
|119>     S 1
|120>      1  327.68 1.0
|121>     S 1
|122>      1  163.84 1.0
|123>     S 1
|124>      1   81.82 1.0
|125>     S 1
|126>      1   40.96 1.0
|127>     S 1
|128>      1   20.48 1.0
|129>     S 1
|130>      1   10.24 1.0
|131>     S 1
|132>      1    5.12 1.0
|133>     S 1
|134>      1    2.56 1.0
|135>     S 1
|136>      1    1.28 1.0
|137>     S 1
|138>      1    0.64 1.0
|139>     S 1
|140>      1    0.32 1.0
|141>     S 1
|142>      1    0.16 1.0
|143>     S 1
|144>      1    0.08 1.0
|145>     S 1
|146>      1    0.04 1.0
|147>     S 1
|148>      1    0.02 1.0
|149>     S 1
|150>      1    0.01 1.0
|151>   end
|152> end
|153> 
|154> * xyz 0 5
|155> 66  0.0 0.0 0.0
|156> *
|157> 
|158> 
|159>                          ****END OF INPUT****
================================================================================

                       ****************************
                       * Single Point Calculation *
                       ****************************

---------------------------------
CARTESIAN COORDINATES (ANGSTROEM)
---------------------------------
  Dy     0.000000    0.000000    0.000000

----------------------------
CARTESIAN COORDINATES (A.U.)
----------------------------
  NO LB      ZA    FRAG     MASS         X           Y           Z
   0 Dy   38.0000*   0   162.500    0.000000    0.000000    0.000000
* core charge reduced due to ECP

--------------------------------
INTERNAL COORDINATES (ANGSTROEM)
--------------------------------
 Dy     0   0   0     0.000000000000     0.00000000     0.00000000

---------------------------
INTERNAL COORDINATES (A.U.)
---------------------------
 Dy     0   0   0     0.000000000000     0.00000000     0.00000000

---------------------
BASIS SET INFORMATION
---------------------
There are 1 groups of distinct atoms

 Group   1 Type Dy  : 14s14p10d8f contracted to 10s7p5d4f pattern {5111111111/6311111/61111/5111}

Atom   0Dy   basis set group =>   1
---------------------------------
AUXILIARY/J BASIS SET INFORMATION
---------------------------------
There are 1 groups of distinct atoms

 Group   1 Type Dy  : 18s contracted to 18s pattern {111111111111111111}

Atom   0Dy   basis set group =>   1
-------------------------
ECP PARAMETER INFORMATION
-------------------------

 Group 1, Type Dy ECP (replacing 28 core electrons, lmax=5)

Atom   0Dy   ECP group =>   1

------------------------------------------------------------------------------
                           ORCA GTO INTEGRAL CALCULATION
------------------------------------------------------------------------------

                         BASIS SET STATISTICS AND STARTUP INFO

 # of primitive gaussian shells          ...   46
 # of primitive gaussian functions       ...  162
 # of contracted shells                  ...   26
 # of contracted basis functions         ...   84
 Highest angular momentum                ...    3
 Maximum contraction depth               ...    6
 Integral package used                   ... LIBINT
 Integral threshhold            Thresh   ...  1.000e-10
 Primitive cut-off              TCut     ...  1.000e-11
 Storage cut-off                TCutStore... -1.000e+00
 Buffer length                           ... 1048576 integrals/buffer
 Generate file with integrals 4 distinct ...false


------------------------------ INTEGRAL EVALUATION ----------------------------


 * One electron integrals 

   ECP integrals                         ... done
 Pre-screening matrix                    ... done
 Shell pair data                         ... done (   0.000 sec)
 Statistics run                          ... done
 Maximum amount of storage needed        ...    75 MB
 Maximum amount of storage dedicated     ... 500000 MB
 Beginning two electron integral evaluation:
 Starting repulsion integrals
  <ss|ss>  ...         1540 b.         0 skpd (  0.0%)     0.000 s. (  0.000 ms/b)
  <ss|sp>  ...         3850 b.         0 skpd (  0.0%)     0.001 s. (  0.000 ms/b)
  <ss|sd>  ...         2750 b.         0 skpd (  0.0%)     0.001 s. (  0.001 ms/b)
  <ss|sf>  ...         2200 b.         0 skpd (  0.0%)     0.002 s. (  0.001 ms/b)
  <ss|pp>  ...         1540 b.         0 skpd (  0.0%)     0.001 s. (  0.001 ms/b)
  <ss|pd>  ...         1925 b.         0 skpd (  0.0%)     0.002 s. (  0.001 ms/b)
  <ss|pf>  ...         1540 b.         0 skpd (  0.0%)     0.003 s. (  0.002 ms/b)
  <ss|dd>  ...          825 b.         0 skpd (  0.0%)     0.002 s. (  0.002 ms/b)
  <ss|df>  ...         1100 b.         0 skpd (  0.0%)     0.003 s. (  0.003 ms/b)
  <ss|ff>  ...          550 b.         0 skpd (  0.0%)     0.003 s. (  0.005 ms/b)
  <sp|sp>  ...         2485 b.         0 skpd (  0.0%)     0.002 s. (  0.001 ms/b)
  <sp|sd>  ...         3500 b.         0 skpd (  0.0%)     0.004 s. (  0.001 ms/b)
  <sp|sf>  ...         2799 b.         1 skpd (  0.0%)     0.005 s. (  0.002 ms/b)
  <sp|pp>  ...         1960 b.         0 skpd (  0.0%)     0.004 s. (  0.002 ms/b)
  <sp|pd>  ...         2450 b.         0 skpd (  0.0%)     0.007 s. (  0.003 ms/b)
  <sp|pf>  ...         1960 b.         0 skpd (  0.0%)     0.009 s. (  0.005 ms/b)
  <sp|dd>  ...         1050 b.         0 skpd (  0.0%)     0.006 s. (  0.006 ms/b)
  <sp|df>  ...         1400 b.         0 skpd (  0.0%)     0.011 s. (  0.008 ms/b)
  <sp|ff>  ...          700 b.         0 skpd (  0.0%)     0.010 s. (  0.014 ms/b)
  <sd|sd>  ...         1273 b.         2 skpd (  0.2%)     0.003 s. (  0.002 ms/b)
  <sd|sf>  ...         1994 b.         6 skpd (  0.3%)     0.007 s. (  0.003 ms/b)
  <sd|pp>  ...         1400 b.         0 skpd (  0.0%)     0.012 s. (  0.009 ms/b)
  <sd|pd>  ...         1750 b.         0 skpd (  0.0%)     0.012 s. (  0.007 ms/b)
  <sd|pf>  ...         1400 b.         0 skpd (  0.0%)     0.014 s. (  0.010 ms/b)
  <sd|dd>  ...          750 b.         0 skpd (  0.0%)     0.010 s. (  0.014 ms/b)
  <sd|df>  ...         1000 b.         0 skpd (  0.0%)     0.021 s. (  0.021 ms/b)
  <sd|ff>  ...          500 b.         0 skpd (  0.0%)     0.020 s. (  0.039 ms/b)
  <sf|sf>  ...          814 b.         6 skpd (  0.7%)     0.006 s. (  0.007 ms/b)
  <sf|pp>  ...         1120 b.         0 skpd (  0.0%)     0.009 s. (  0.008 ms/b)
  <sf|pd>  ...         1400 b.         0 skpd (  0.0%)     0.019 s. (  0.014 ms/b)
  <sf|pf>  ...         1120 b.         0 skpd (  0.0%)     0.031 s. (  0.028 ms/b)
  <sf|dd>  ...          600 b.         0 skpd (  0.0%)     0.018 s. (  0.031 ms/b)
  <sf|df>  ...          800 b.         0 skpd (  0.0%)     0.039 s. (  0.049 ms/b)
  <sf|ff>  ...          400 b.         0 skpd (  0.0%)     0.038 s. (  0.094 ms/b)
  <pp|pp>  ...          406 b.         0 skpd (  0.0%)     0.003 s. (  0.007 ms/b)
  <pp|pd>  ...          980 b.         0 skpd (  0.0%)     0.010 s. (  0.011 ms/b)
  <pp|pf>  ...          784 b.         0 skpd (  0.0%)     0.014 s. (  0.018 ms/b)
  <pp|dd>  ...          420 b.         0 skpd (  0.0%)     0.010 s. (  0.023 ms/b)
  <pp|df>  ...          560 b.         0 skpd (  0.0%)     0.019 s. (  0.034 ms/b)
  <pp|ff>  ...          280 b.         0 skpd (  0.0%)     0.018 s. (  0.064 ms/b)
  <pd|pd>  ...          630 b.         0 skpd (  0.0%)     0.021 s. (  0.033 ms/b)
  <pd|pf>  ...          980 b.         0 skpd (  0.0%)     0.034 s. (  0.035 ms/b)
  <pd|dd>  ...          525 b.         0 skpd (  0.0%)     0.024 s. (  0.047 ms/b)
  <pd|df>  ...          700 b.         0 skpd (  0.0%)     0.052 s. (  0.074 ms/b)
  <pd|ff>  ...          350 b.         0 skpd (  0.0%)     0.057 s. (  0.161 ms/b)
  <pf|pf>  ...          406 b.         0 skpd (  0.0%)     0.029 s. (  0.071 ms/b)
  <pf|dd>  ...          420 b.         0 skpd (  0.0%)     0.037 s. (  0.089 ms/b)
  <pf|df>  ...          560 b.         0 skpd (  0.0%)     0.082 s. (  0.147 ms/b)
  <pf|ff>  ...          280 b.         0 skpd (  0.0%)     0.090 s. (  0.322 ms/b)
  <dd|dd>  ...          120 b.         0 skpd (  0.0%)     0.016 s. (  0.130 ms/b)
  <dd|df>  ...          300 b.         0 skpd (  0.0%)     0.054 s. (  0.179 ms/b)
  <dd|ff>  ...          150 b.         0 skpd (  0.0%)     0.055 s. (  0.367 ms/b)
  <df|df>  ...          210 b.         0 skpd (  0.0%)     0.070 s. (  0.334 ms/b)
  <df|ff>  ...          200 b.         0 skpd (  0.0%)     0.122 s. (  0.608 ms/b)
  <ff|ff>  ...           55 b.         0 skpd (  0.0%)     0.087 s. (  1.586 ms/b)


                                      INTEGRAL STATISTICS

Integral type statistics:
 Number of integrals retained            ...    6373712 
 One   Center Integrals retained         ...    6373712 (100.0%)
 Two   Center Integrals retained         ...          0 (  0.0%)
 Three Center Integrals retained         ...          0 (  0.0%)
 Four  Center Integrals retained         ...          0 (  0.0%)

Storage statistics:
 Number of char integrals                ...          0 (  0.0%)
 Number of short int integrals           ...          0 (  0.0%)
 Number of double/float integrals        ...    6373712 (100.0%)
 Amount of memory used                   ...         79 MB
 Amount of memory estimated              ...         75 MB ( 95.2%)

Prescreening statistics:
 Total number of shell quadruples        ...      61776 
 Number of skipped shell quadruples      ...         26 (  0.0%)
 # of negligible batches done            ...          0 (  0.0%)

Timings:
 Total evaluation time               ...     1.589 sec (   0.026 min)
 One electron matrix time            ...     0.075 sec (   0.001 min) =  4.7%
 Schwartz matrix evaluation time     ...     0.147 sec (   0.002 min) =  9.2%
 Statistics run                      ...     0.046 sec (   0.001 min) =  2.9%
 Repulsion integral time             ...     1.238 sec (   0.021 min) = 77.9%

-------------------------------------------------------------------------------
                                 ORCA SCF
-------------------------------------------------------------------------------

------------
SCF SETTINGS
------------
Hamiltonian:
 Ab initio Hamiltonian  Method          .... Hartree-Fock(GTOs)


General Settings:
 Integral files         IntName         .... 66_Dy_atom66
 Hartree-Fock type      HFTyp           .... ROHF
 Total Charge           Charge          ....    0
 Multiplicity           Mult            ....    5
 Number of Electrons    NEL             ....   38
 Basis Dimension        Dim             ....   84
 Nuclear Repulsion      ENuc            ....      0.0000000000 Eh

Convergence Acceleration:
 DIIS                   CNVDIIS         .... on
   Start iteration      DIISMaxIt       ....    12
   Startup error        DIISStart       ....  0.200000
   # of expansion vecs  DIISMaxEq       ....     5
   Bias factor          DIISBfac        ....   1.050
   Max. coefficient     DIISMaxC        ....  10.000
 Newton-Raphson         CNVNR           .... off
 SOSCF                  CNVSOSCF        .... off
 Level Shifting         CNVShift        .... on
   Level shift para.    LevelShift      ....    1.0000
   Turn off err/grad.   ShiftErr        ....    0.0010
 Zerner damping         CNVZerner       .... off
 Static damping         CNVDamp         .... on
   Fraction old density DampFac         ....    0.7000
   Max. Damping (<1)    DampMax         ....    0.9800
   Min. Damping (>=0)   DampMin         ....    0.0000
   Turn off err/grad.   DampErr         ....    0.1000
 Fernandez-Rico         CNVRico         .... off

SCF Procedure:
 Maximum # iterations   MaxIter         ....  1000
 SCF integral mode      SCFMode         .... Conventional
 Integral Threshold     Thresh          ....  1.000e-10 Eh
 Primitive CutOff       TCut            ....  1.000e-11 Eh
 Integral Buffer length BufferLength    .... 1048576
 Integral index format  IndFormat       ....     0
 Integral value format  ValFormat       ....     0
 Integral Storage       Thresh          ....  1.000e-10 Eh

Convergence Tolerance:
 Convergence Check Mode ConvCheckMode   .... Total+1el-Energy
 Convergence forced     ConvForced      .... 0
 Energy Change          TolE            ....  1.000e-06 Eh
 1-El. energy change                    ....  1.000e-03 Eh
 DIIS Error             TolErr          ....  1.000e-06


Diagonalization of the overlap matrix:
Smallest eigenvalue                        ... 1.511e-03
Time for diagonalization                   ...    0.001 sec
Threshold for overlap eigenvalues          ... 1.000e-08
Number of eigenvalues below threshold      ... 0
Time for construction of square roots      ...    0.002 sec
Total time needed                          ...    0.003 sec

--------------------
INITIAL GUESS: HCORE
--------------------
AVERAGE-CONFIGURATION (SAHF) CASE FOUND

-------------------
FINAL ROHF SETTINGS
-------------------
Number of operators             ... 3
  operator   0:  13 orbitals  26 electrons n(mue)= 2.000
  operator   1:   7 orbitals  10 electrons n(mue)= 1.429
  operator   2:   1 orbitals   2 electrons n(mue)= 2.000
Vector coupling coefficients a and b (Zerner convention):
   1.000    1.000    1.000           1.000    1.000    1.000 
   1.000    0.980    1.000           1.000    1.120    1.000 
   1.000    1.000    1.000           1.000    1.000    1.000 

                      -----------------
                      INTIAL GUESS DONE 
                      -----------------

 InCore treatment chosen:
   Memory dedicated               ...    1024 MB
   Memory needed                  ...     79 MB
   Number of tiny    integrals    ...       0
   Number of small   integrals    ...       0
   Number of regular integrals    ... 6373712

--------------
SCF ITERATIONS
--------------
ITER       Energy         Delta-E        Max-DP      RMS-DP      [F,P]     Damp
  0   -686.7467352676   0.000000000000 4.08084515  0.06814569 12.6790290 0.7000
  1   -775.3331746160 -88.586439348418 2.91771010  0.04123427  2.8816183 0.7000
  2   -827.5053714812 -52.172196865204 2.05512120  0.03060748  1.3877108 0.7000
  3   -856.7966859012 -29.291314419916 1.43858484  0.02196230  0.6294238 0.7000
                            ****Activating DIIS****
  4   -864.2194158832  -7.422729981992 1.00700939  0.01543669  0.1777597 0.7000
  5   -869.1284923676  -4.909076484452 0.70490657  0.01042978  0.1564909 0.7000
  6   -872.6817201604  -3.553227792742 0.49343460  0.00732252  0.1550035 0.7000
  7   -875.1049484935  -2.423228333133 0.34540422  0.00517686  0.2242068 0.7000
  8   -876.7583308148  -1.653382321353 0.24178295  0.00356410  0.2892653 0.7000
  9   -878.0033155381  -1.244984723302 0.16924807  0.00250142  0.2890749 0.7000
 10   -878.8331298264  -0.829814288290 0.11847365  0.00190018  0.3133878 0.7000
 11   -879.5149111365  -0.681781310093 0.08293155  0.00126974  0.2851185 0.7000
 12   -879.8706768375  -0.355765700977 0.12416853  0.00157887  0.3231236 0.7000
 13   -880.3469662191  -0.476289381595 0.37175000  0.00476791  0.2554859 0.7000
 14   -880.9148244834  -0.567858264310 0.87929228  0.01157466  0.0383273 0.0000
 15   -881.6022670727  -0.687442589276 0.01506438  0.00016512  0.0702275 0.0000
 16   -881.6110895190  -0.008822446281 0.03108933  0.00027496  0.0600698 0.0000
 17   -881.6176619228  -0.006572403804 0.09189098  0.00079804  0.0521432 0.0000
 18   -881.6299330445  -0.012271121720 0.25396313  0.00215653  0.0379825 0.0000
 19   -881.6456203938  -0.015687349326 0.12302929  0.00102768  0.0309371 0.0000
 20   -881.6493049829  -0.003684589097 0.20620196  0.00172238  0.0264058 0.0000
 21   -881.6542264239  -0.004921440956 0.16622252  0.00140749  0.0180522 0.0000
 22   -881.6570040613  -0.002777637481 0.09526920  0.00082699  0.0104625 0.0000
 23   -881.6580588900  -0.001054828698 0.08550210  0.00076423  0.0057358 0.0000
 24   -881.6585801450  -0.000521254966 0.04277819  0.00039498  0.0018427 0.0000
 25   -881.6586501360  -0.000069990966 0.00530205  0.00005496  0.0011789 0.0000
 26   -881.6586531559  -0.000003019933 0.00602232  0.00005632  0.0014776 0.0000
 27   -881.6586644166  -0.000011260739 0.00569003  0.00005256  0.0011383 0.0000
 28   -881.6586720051  -0.000007588420 0.00699889  0.00006442  0.0008183 0.0000
 29   -881.6586780703  -0.000006065210 0.00571127  0.00005240  0.0004263 0.0000
 30   -881.6586802897  -0.000002219382 0.00195268  0.00001790  0.0001071 0.0000
 31   -881.6586805207  -0.000000231057 0.00076538  0.00000708  0.0000528 0.0000
                 **** Energy Check signals convergence ****

               *****************************************************
               *                     SUCCESS                       *
               *           SCF CONVERGED AFTER  32 CYCLES          *
               *****************************************************


----------------
TOTAL SCF ENERGY
----------------

Total Energy       :         -881.65868055 Eh          -23991.15238 eV

Components:
Nuclear Repulsion  :            0.00000000 Eh               0.00000 eV
Electronic Energy  :         -881.65868055 Eh          -23991.15238 eV
One Electron Energy:        -1584.56267279 Eh          -43118.14241 eV
Two Electron Energy:          702.90399224 Eh           19126.99003 eV

Virial components:
Potential Energy   :        -1388.51280115 Eh          -37783.35419 eV
Kinetic Energy     :          506.85412059 Eh           13792.20180 eV
Virial Ratio       :            2.73947226


---------------
SCF CONVERGENCE
---------------

  Last Energy change         ...   -3.4167e-08  Tolerance :   1.0000e-06
  Last MAX-Density change    ...    1.0301e-04  Tolerance :   1.0000e-05
  Last RMS-Density change    ...    1.2306e-06  Tolerance :   1.0000e-06
  Last DIIS Error            ...    4.4220e-05  Tolerance :   1.0000e-06

             **** THE GBW FILE WAS UPDATED (66_Dy_atom66.gbw) ****
             **** DENSITY FILE WAS UPDATED (66_Dy_atom66.scfp) ****
             **** ENERGY FILE WAS UPDATED (66_Dy_atom66.en.tmp) ****
             **** THE GBW FILE WAS UPDATED (66_Dy_atom66.gbw) ****
             **** DENSITY FILE WAS UPDATED (66_Dy_atom66.scfp) ****
----------------
ORBITAL ENERGIES
----------------

  NO   OCC          E(Eh)            E(eV) 
   0   2.0000     -15.962353      -434.3577 
   1   2.0000     -11.547438      -314.2218 
   2   2.0000     -11.547438      -314.2217 
   3   2.0000     -11.547437      -314.2217 
   4   2.0000      -6.073394      -165.2654 
   5   2.0000      -6.073393      -165.2654 
   6   2.0000      -6.073392      -165.2654 
   7   2.0000      -6.073391      -165.2654 
   8   2.0000      -6.072140      -165.2313 
   9   2.0000      -2.143477       -58.3270 
  10   2.0000      -1.159035       -31.5390 
  11   2.0000      -1.159030       -31.5388 
  12   2.0000      -1.159023       -31.5386 
  13   1.4286      -0.518990       -14.1224 
  14   1.4286      -0.518990       -14.1224 
  15   1.4286      -0.518989       -14.1224 
  16   1.4286      -0.518988       -14.1224 
  17   1.4286      -0.518988       -14.1224 
  18   1.4286      -0.518987       -14.1224 
  19   1.4286      -0.518987       -14.1223 
  20   2.0000      -0.191695        -5.2163 
  21   0.0000       0.031308         0.8519 
  22   0.0000       0.031309         0.8520 
  23   0.0000       0.031311         0.8520 
  24   0.0000       0.105976         2.8837 
  25   0.0000       0.127045         3.4571 
  26   0.0000       0.127046         3.4571 
  27   0.0000       0.127053         3.4573 
  28   0.0000       0.127057         3.4574 
  29   0.0000       0.127058         3.4574 
  30   0.0000       0.259405         7.0588 
  31   0.0000       0.259410         7.0589 
  32   0.0000       0.259417         7.0591 
  33   0.0000       0.473899        12.8954 
  34   0.0000       0.473900        12.8955 
  35   0.0000       0.473909        12.8957 
  36   0.0000       0.473915        12.8959 
  37   0.0000       0.473917        12.8959 
  38   0.0000       0.930001        25.3066 
  39   0.0000       0.930001        25.3066 
  40   0.0000       0.930012        25.3069 
  41   0.0000       0.930014        25.3070 
  42   0.0000       0.930018        25.3071 
  43   0.0000       0.930025        25.3073 
  44   0.0000       0.930025        25.3073 
  45   0.0000       1.280095        34.8331 
  46   0.0000       1.357150        36.9299 
  47   0.0000       1.357159        36.9302 
  48   0.0000       1.357171        36.9305 
  49   0.0000       2.272630        61.8414 
  50   0.0000       2.272631        61.8414 
  51   0.0000       2.272637        61.8416 
  52   0.0000       2.272641        61.8417 
  53   0.0000       2.272643        61.8417 
  54   0.0000       2.409678        65.5707 
  55   0.0000       2.968757        80.7840 
  56   0.0000       2.968757        80.7840 
  57   0.0000       2.968762        80.7841 
  58   0.0000       2.968763        80.7841 
  59   0.0000       2.968765        80.7842 
  60   0.0000       2.968768        80.7843 
  61   0.0000       2.968769        80.7843 
  62   0.0000       5.588690       152.0760 
  63   0.0000       5.588693       152.0761 
  64   0.0000       5.588698       152.0762 
  65   0.0000       8.140805       221.5226 
  66   0.0000       8.140805       221.5226 
  67   0.0000       8.140806       221.5226 
  68   0.0000       8.140807       221.5226 
  69   0.0000       8.140807       221.5226 
  70   0.0000       8.246538       224.3997 
  71   0.0000       8.246538       224.3997 
  72   0.0000       8.246538       224.3997 
  73   0.0000       8.246538       224.3997 
  74   0.0000       8.246539       224.3997 
  75   0.0000       8.246539       224.3997 
  76   0.0000       8.246539       224.3997 
  77   0.0000       8.883531       241.7332 
  78   0.0000      38.442450      1046.0723 
  79   0.0000      38.442451      1046.0723 
  80   0.0000      38.442453      1046.0723 
  81   0.0000      70.248426      1911.5568 
  82   0.0000     248.596503      6764.6547 
  83   0.0000     584.812117     15913.5467 
CleanUpVectors: The d-vectors have cracked symmetry at i=4
CleanUpVectors: The d-vectors have cracked symmetry at i=5
CleanUpVectors: The d-vectors have cracked symmetry at i=6
CleanUpVectors: The d-vectors have cracked symmetry at i=7
CleanUpVectors: The d-vectors have cracked symmetry at i=8
CleanUpVectors: The p-vectors have cracked symmetry
CleanUpVectors: The p-vectors have cracked symmetry
CleanUpVectors: The p-vectors have cracked symmetry
CleanUpVectors: The d-vectors have cracked symmetry at i=25
CleanUpVectors: The d-vectors have cracked symmetry at i=26
CleanUpVectors: The d-vectors have cracked symmetry at i=27
CleanUpVectors: The d-vectors have cracked symmetry at i=28
CleanUpVectors: The d-vectors have cracked symmetry at i=29
CleanUpVectors: The p-vectors have cracked symmetry
CleanUpVectors: The p-vectors have cracked symmetry
CleanUpVectors: The p-vectors have cracked symmetry
CleanUpVectors: The d-vectors have cracked symmetry at i=33
CleanUpVectors: The d-vectors have cracked symmetry at i=34
CleanUpVectors: The d-vectors have cracked symmetry at i=35
CleanUpVectors: The d-vectors have cracked symmetry at i=36
CleanUpVectors: The d-vectors have cracked symmetry at i=37
CleanUpVectors: The f-vectors have cracked symmetry
CleanUpVectors: The f-vectors have cracked symmetry
CleanUpVectors: The f-vectors have cracked symmetry
CleanUpVectors: The f-vectors have cracked symmetry
CleanUpVectors: The f-vectors have cracked symmetry
CleanUpVectors: The f-vectors have cracked symmetry
CleanUpVectors: The f-vectors have cracked symmetry
CleanUpVectors: The p-vectors have cracked symmetry
CleanUpVectors: The p-vectors have cracked symmetry
CleanUpVectors: The p-vectors have cracked symmetry
CleanUpVectors: The d-vectors have cracked symmetry at i=49
CleanUpVectors: The d-vectors have cracked symmetry at i=50
CleanUpVectors: The d-vectors have cracked symmetry at i=51
CleanUpVectors: The d-vectors have cracked symmetry at i=52
CleanUpVectors: The d-vectors have cracked symmetry at i=53
CleanUpVectors: The f-vectors have cracked symmetry
CleanUpVectors: The f-vectors have cracked symmetry
CleanUpVectors: The f-vectors have cracked symmetry
CleanUpVectors: The f-vectors have cracked symmetry
CleanUpVectors: The f-vectors have cracked symmetry
CleanUpVectors: The f-vectors have cracked symmetry
CleanUpVectors: The f-vectors have cracked symmetry
CleanUpVectors: The p-vectors have cracked symmetry
CleanUpVectors: The p-vectors have cracked symmetry
CleanUpVectors: The p-vectors have cracked symmetry
--------------------------
ATOM BASIS FOR ELEMENT Dy
--------------------------
 NewGTO Dy
 S 14
    1      78529.743000000002        -0.000140554745
    2      11854.699000000001        -0.001052123554
    3       2719.980700000000        -0.004950989921
    4        772.403600000000        -0.014605471196
    5        242.032000000000        -0.022020243184
    6         48.356200000000         0.113186750022
    7         31.880600000000        -0.559721072406
    8         16.860900000000         1.062279407216
    9          4.215500000000        -0.979406070888
   10          2.128700000000        -0.414232120390
   11          0.788900000000        -0.014330427097
   12          0.338300000000         0.007007451202
   13          0.058100000000        -0.009628642476
   14          0.023800000000        -0.006165503597
 D 46
    1      78529.743000000002         0.000000000000
    2      11854.699000000001         0.000000000000
    3       2719.980700000000         0.000000000001
    4        772.403600000000         0.000000000008
    5        242.032000000000         0.000000000038
    6         48.356200000000         0.000000000259
    7         31.880600000000        -0.000000000820
    8         16.860900000000         0.000000002188
    9          4.215500000000         0.000000009025
   10          2.128700000000        -0.000000114896
   11          0.788900000000         0.000000270301
   12          0.338300000000         0.000000565249
   13          0.058100000000        -0.000005636321
   14        409.803200000000         0.000421466122
   15        123.710400000000         0.003403963542
   16         47.097600000000         0.013677502624
   17         20.120200000000         0.025510788734
   18          8.157100000000         0.125127088458
   19          4.147400000000         0.178609770217
   20        409.803200000000        -0.000119040147
   21        123.710400000000        -0.000961425601
   22         47.097600000000        -0.003863114578
   23         20.120200000000        -0.007205343151
   24          8.157100000000        -0.035341267539
   25          4.147400000000        -0.050447075466
   26        409.803200000000         0.000709555073
   27        123.710400000000         0.005730708763
   28         47.097600000000         0.023026622696
   29         20.120200000000         0.042948433130
   30          8.157100000000         0.210656457844
   31          4.147400000000         0.300696691609
   32        409.803200000000         0.000604938540
   33        123.710400000000         0.004885775214
   34         47.097600000000         0.019631586089
   35         20.120200000000         0.036616132270
   36          8.157100000000         0.179597348768
   37          4.147400000000         0.256362084264
   38        409.803200000000        -0.000159215662
   39        123.710400000000        -0.001285902423
   40         47.097600000000        -0.005166898395
   41         20.120200000000        -0.009637114097
   42          8.157100000000        -0.047268786578
   43          4.147400000000        -0.067472736824
   44          2.082500000000         0.108138160460
   45          2.082500000000        -0.030542866894
   46          2.082500000000         0.182054927533
 S 14
    1      78529.743000000002         0.000301749479
    2      11854.699000000001         0.002258747894
    3       2719.980700000000         0.010629015966
    4        772.403600000000         0.031355706441
    5        242.032000000000         0.047274084604
    6         48.356200000000        -0.007104395599
    7         31.880600000000         0.206048737986
    8         16.860900000000        -0.495928830216
    9          4.215500000000         0.714449582072
   10          2.128700000000         0.421779812800
   11          0.788900000000        -0.767627438785
   12          0.338300000000        -0.591457464502
   13          0.058100000000        -0.035375509128
   14          0.023800000000        -0.008081845386
 S 14
    1      78529.743000000002         0.000143360238
    2      11854.699000000001         0.001073124092
    3       2719.980700000000         0.005049812395
    4        772.403600000000         0.014896998512
    5        242.032000000000         0.022459770419
    6         48.356200000000         0.008953912791
    7         31.880600000000         0.041262955886
    8         16.860900000000        -0.123051896951
    9          4.215500000000         0.207437629503
   10          2.128700000000         0.121135370230
   11          0.788900000000        -0.288543603159
   12          0.338300000000        -0.405640477900
   13          0.058100000000         0.695139822089
   14          0.023800000000         0.479821542957
 S 14
    1      78529.743000000002         0.000122484555
    2      11854.699000000001         0.000916859018
    3       2719.980700000000         0.004314474036
    4        772.403600000000         0.012727742789
    5        242.032000000000         0.019189246798
    6         48.356200000000         0.005063517881
    7         31.880600000000         0.041842463916
    8         16.860900000000        -0.112359284017
    9          4.215500000000         0.202362204189
   10          2.128700000000         0.024677410385
   11          0.788900000000        -0.063126989243
   12          0.338300000000        -0.652669579353
   13          0.058100000000         2.440013744697
   14          0.023800000000        -2.145075242854
 S 14
    1      78529.743000000002         0.000897855049
    2      11854.699000000001         0.006720900429
    3       2719.980700000000         0.031626618523
    4        772.403600000000         0.093298849983
    5        242.032000000000         0.140663956523
    6         48.356200000000         0.135747768609
    7         31.880600000000        -0.044704264003
    8         16.860900000000        -0.215494355317
    9          4.215500000000         0.190772999648
   10          2.128700000000         1.561669888024
   11          0.788900000000        -4.246117219460
   12          0.338300000000         3.615393924008
   13          0.058100000000        -1.505680182949
   14          0.023800000000         0.718994055872
 S 14
    1      78529.743000000002         0.002993088301
    2      11854.699000000001         0.022404784003
    3       2719.980700000000         0.105430450012
    4        772.403600000000         0.311020912091
    5        242.032000000000         0.468917163118
    6         48.356200000000         0.463526672304
    7         31.880600000000        -0.504516271151
    8         16.860900000000         0.331394583588
    9          4.215500000000         0.367216417293
   10          2.128700000000        -1.403333885530
   11          0.788900000000         1.954851236111
   12          0.338300000000        -1.236207437710
   13          0.058100000000         0.386360244364
   14          0.023800000000        -0.180499762445
 S 14
    1      78529.743000000002        -0.000391740954
    2      11854.699000000001        -0.002932379731
    3       2719.980700000000        -0.013798933060
    4        772.403600000000        -0.040706994474
    5        242.032000000000        -0.061372748989
    6         48.356200000000        -0.430445596005
    7         31.880600000000         1.327033928836
    8         16.860900000000        -2.226112179123
    9          4.215500000000         6.536485547842
   10          2.128700000000        -8.403356286058
   11          0.788900000000         5.214421071692
   12          0.338300000000        -2.235119695920
   13          0.058100000000         0.556566354307
   14          0.023800000000        -0.259039976877
 S 14
    1      78529.743000000002         0.000528924608
    2      11854.699000000001         0.003959268954
    3       2719.980700000000         0.018631177498
    4        772.403600000000         0.054962165278
    5        242.032000000000         0.082864854481
    6         48.356200000000        -3.767947767687
    7         31.880600000000         9.116160133909
    8         16.860900000000        -7.834515273710
    9          4.215500000000         4.936665344420
   10          2.128700000000        -4.075774975137
   11          0.788900000000         1.812223321109
   12          0.338300000000        -0.716173898155
   13          0.058100000000         0.179665775451
   14          0.023800000000        -0.084458806916
 S 14
    1      78529.743000000002        -0.000408095341
    2      11854.699000000001        -0.003054800612
    3       2719.980700000000        -0.014375010405
    4        772.403600000000        -0.042406428570
    5        242.032000000000        -0.063934936238
    6         48.356200000000        -6.492123461246
    7         31.880600000000        11.873389679024
    8         16.860900000000        -6.018369991204
    9          4.215500000000         2.359769921106
   10          2.128700000000        -1.825363885436
   11          0.788900000000         0.793825384656
   12          0.338300000000        -0.314338606294
   13          0.058100000000         0.079412237541
   14          0.023800000000        -0.037392051327
 S 14
    1      78529.743000000002        -0.004003386611
    2      11854.699000000001        -0.029967379264
    3       2719.980700000000        -0.141017841592
    4        772.403600000000        -0.416004083337
    5        242.032000000000        -0.627197230220
    6         48.356200000000         8.501628042682
    7         31.880600000000       -11.229266290598
    8         16.860900000000         4.582559822277
    9          4.215500000000        -1.603821066845
   10          2.128700000000         1.232535943299
   11          0.788900000000        -0.536678906812
   12          0.338300000000         0.213041314044
   13          0.058100000000        -0.053965370353
   14          0.023800000000         0.025422555003
 P 14
    1       1358.795571200000        -0.000786579507
    2        314.300769740000        -0.005551487850
    3         96.833600236000        -0.016944597785
    4         26.794921343000        -0.103709515915
    5         16.402756832000         0.351127929189
    6          3.781459694900        -0.391338401719
    7         11.024274121000        -0.182422641584
    8          5.416392595400        -0.378311958334
    9          2.067731144200        -0.278024555444
   10          1.550887609000        -0.006343071828
   11          0.700087007000        -0.019099574943
   12          0.300010638400         0.003027125691
   13          0.093510529400        -0.000820721601
   14          0.032387495000         0.000279420249
 P 46
    1       1358.795571200000        -0.000128003667
    2        314.300769740000        -0.000903418910
    3         96.833600236000        -0.002757471595
    4         26.794921343000        -0.016877122012
    5         16.402756832000         0.057140647611
    6          3.781459694900        -0.063684281000
    7       1358.795571200000        -0.000357198319
    8        314.300769740000        -0.002521019312
    9         96.833600236000        -0.007694812527
   10         26.794921343000        -0.047096147830
   11         16.402756832000         0.159452801554
   12          3.781459694900        -0.177713019451
   13       1358.795571200000        -0.000018000517
   14        314.300769740000        -0.000127043296
   15         96.833600236000        -0.000387769479
   16         26.794921343000        -0.002373345503
   17         16.402756832000         0.008035404315
   18          3.781459694900        -0.008955602845
   19         11.024274121000        -0.037987701055
   20          5.416392595400        -0.078779703299
   21          2.067731144200        -0.057895848929
   22         11.024274121000        -0.106005894754
   23          5.416392595400        -0.219837281661
   24          2.067731144200        -0.161560218115
   25         11.024274121000        -0.005342021076
   26          5.416392595400        -0.011078397051
   27          2.067731144200        -0.008141604692
   28          1.550887609000         0.067039499129
   29          1.550887609000         0.187075772976
   30          1.550887609000         0.009427424872
   31          0.700087007000         0.194530955244
   32          0.700087007000         0.542845280455
   33          0.700087007000         0.027355945141
   34          0.300010638400         0.149838938553
   35          0.300010638400         0.418129608229
   36          0.300010638400         0.021071057465
   37          0.093510529400         0.016038414245
   38          0.093510529400         0.044756368301
   39          0.093510529400         0.002255444490
   40          0.032387495000        -0.001352307825
   41          0.032387495000        -0.003774099395
   42          0.032387495000        -0.000190200157
   43        129.627400000000         0.000008009504
   44         47.172700000000         0.000026910823
   45         21.158600000000         0.000038521862
   46          9.638100000000         0.000031881921
 P 14
    1       1358.795571200000        -0.000060998148
    2        314.300769740000        -0.000430510172
    3         96.833600236000        -0.001314030024
    4         26.794921343000        -0.008042528919
    5         16.402756832000         0.027229483233
    6          3.781459694900        -0.030347749531
    7         11.024274121000        -0.018600432516
    8          5.416392595400        -0.038573972999
    9          2.067731144200        -0.028348328564
   10          1.550887609000         0.026603366437
   11          0.700087007000         0.139972803556
   12          0.300010638400         0.065246490116
   13          0.093510529400         0.066642393159
   14          0.032387495000        -1.056794366567
 D 46
    1      78529.743000000002        -0.000000000000
    2      11854.699000000001        -0.000000000005
    3       2719.980700000000        -0.000000000106
    4        772.403600000000        -0.000000001096
    5        242.032000000000        -0.000000005274
    6         48.356200000000        -0.000000006711
    7         31.880600000000        -0.000000091369
    8         16.860900000000         0.000000463027
    9          4.215500000000        -0.000003218729
   10          2.128700000000        -0.000001450987
   11          0.788900000000         0.000008836320
   12          0.338300000000         0.000116494051
   13          0.058100000000        -0.002072239306
   14          0.023800000000         0.003259487070
   15        409.803200000000        -0.000042147912
   16        123.710400000000        -0.000340406855
   17         47.097600000000        -0.001367792455
   18         20.120200000000        -0.002551157570
   19          8.157100000000        -0.012513094843
   20          4.147400000000        -0.017861528004
   21        409.803200000000         0.000089008388
   22        123.710400000000         0.000718874646
   23         47.097600000000         0.002888517968
   24         20.120200000000         0.005387560410
   25          8.157100000000         0.026425280498
   26          4.147400000000         0.037720155849
   27        409.803200000000        -0.000044705490
   28        123.710400000000        -0.000361063087
   29         47.097600000000        -0.001450791484
   30         20.120200000000        -0.002705964391
   31          8.157100000000        -0.013272402089
   32          4.147400000000        -0.018945383583
   33        409.803200000000         0.000129576770
   34        123.710400000000         0.001046524446
   35         47.097600000000         0.004205051164
   36         20.120200000000         0.007843111041
   37          8.157100000000         0.038469435787
   38          4.147400000000         0.054912306926
   39        409.803200000000         0.000032717633
   40        123.710400000000         0.000264243377
   41         47.097600000000         0.001061759163
   42         20.120200000000         0.001980355219
   43          8.157100000000         0.009713383825
   44          4.147400000000         0.013865145225
   45          2.082500000000        -0.006747995452
   46          2.082500000000         0.014250460236
 P 46
    1       1358.795571200000        -0.000049698087
    2        314.300769740000        -0.000350757073
    3         96.833600236000        -0.001070602635
    4         26.794921343000        -0.006552630074
    5         16.402756832000         0.022185152524
    6          3.781459694900        -0.024725752095
    7       1358.795571200000        -0.000138021154
    8        314.300769740000        -0.000974119909
    9         96.833600236000        -0.002973269598
   10         26.794921343000        -0.018197915028
   11         16.402756832000         0.061612438966
   12          3.781459694900        -0.068668173012
   13       1358.795571200000        -0.000007032601
   14        314.300769740000        -0.000049634394
   15         96.833600236000        -0.000151497195
   16         26.794921343000        -0.000927239524
   17         16.402756832000         0.003139342530
   18          3.781459694900        -0.003498853797
   19         11.024274121000        -0.014724349414
   20          5.416392595400        -0.030535669331
   21          2.067731144200        -0.022440913389
   22         11.024274121000        -0.040892352805
   23          5.416392595400        -0.084803431944
   24          2.067731144200        -0.062322736426
   25         11.024274121000        -0.002083590661
   26          5.416392595400        -0.004320994677
   27          2.067731144200        -0.003175534364
   28          1.550887609000         0.054147726312
   29          1.550887609000         0.150378623527
   30          1.550887609000         0.007662251187
   31          0.700087007000         0.009514462065
   32          0.700087007000         0.026423595236
   33          0.700087007000         0.001346364372
   34          0.300010638400         0.256361276209
   35          0.300010638400         0.711964322375
   36          0.300010638400         0.036276760871
   37          0.093510529400        -0.653981123218
   38          0.093510529400        -1.816230631688
   39          0.093510529400        -0.092542510055
   40          0.032387495000         0.386970964540
   41          0.032387495000         1.074692389981
   42          0.032387495000         0.054758870006
   43        129.627400000000         0.000024434001
   44         47.172700000000         0.000082094861
   45         21.158600000000         0.000117515798
   46          9.638100000000         0.000097259821
 P 14
    1       1358.795571200000        -0.004309522410
    2        314.300769740000        -0.030415566485
    3         96.833600236000        -0.092836290816
    4         26.794921343000        -0.568205094158
    5         16.402756832000         1.923764432859
    6          3.781459694900        -2.144070111933
    7         11.024274121000         0.048660594501
    8          5.416392595400         0.100913376977
    9          2.067731144200         0.074162066924
   10          1.550887609000         2.198894305236
   11          0.700087007000        -1.575005415284
   12          0.300010638400         0.701931574264
   13          0.093510529400        -0.231568173133
   14          0.032387495000         0.076445052906
 D 46
    1      78529.743000000002        -0.000000000000
    2      11854.699000000001        -0.000000000001
    3       2719.980700000000        -0.000000000011
    4        772.403600000000        -0.000000000116
    5        242.032000000000        -0.000000000558
    6         48.356200000000        -0.000000001234
    7         31.880600000000        -0.000000008991
    8         16.860900000000         0.000000052136
    9          4.215500000000        -0.000000257413
   10          2.128700000000        -0.000000952924
   11          0.788900000000         0.000005363524
   12          0.338300000000         0.000000293651
   13          0.058100000000        -0.000075621647
   14          0.023800000000         0.000025450040
   15        409.803200000000        -0.000072237383
   16        123.710400000000        -0.000583423924
   17         47.097600000000        -0.002344261962
   18         20.120200000000        -0.004372433572
   19          8.157100000000        -0.021446215876
   20          4.147400000000        -0.030612905142
   21        409.803200000000         0.000164146414
   22        123.710400000000         0.001325725557
   23         47.097600000000         0.005326912162
   24         20.120200000000         0.009935566053
   25          8.157100000000         0.048732654461
   26          4.147400000000         0.069562301198
   27        409.803200000000        -0.000077514094
   28        123.710400000000        -0.000626041186
   29         47.097600000000        -0.002515502844
   30         20.120200000000        -0.004691825941
   31          8.157100000000        -0.023012793751
   32          4.147400000000        -0.032849080519
   33        409.803200000000         0.000231505406
   34        123.710400000000         0.001869749243
   35         47.097600000000         0.007512859603
   36         20.120200000000         0.014012717042
   37          8.157100000000         0.068730547813
   38          4.147400000000         0.098107831830
   39        409.803200000000         0.000064498256
   40        123.710400000000         0.000520919006
   41         47.097600000000         0.002093110278
   42         20.120200000000         0.003903994432
   43          8.157100000000         0.019148583047
   44          4.147400000000         0.027333202268
   45          2.082500000000         0.002481100267
   46          2.082500000000        -0.005637849669
 F 46
    1       1358.795571200000         0.000000000000
    2        314.300769740000         0.000000000001
    3         96.833600236000         0.000000000012
    4         26.794921343000         0.000000000266
    5         16.402756832000        -0.000000001472
    6          3.781459694900         0.000000007115
    7       1358.795571200000         0.000000000000
    8        314.300769740000         0.000000000003
    9         96.833600236000         0.000000000031
   10         26.794921343000         0.000000000694
   11         16.402756832000        -0.000000003836
   12          3.781459694900         0.000000018543
   13       1358.795571200000         0.000000000000
   14        314.300769740000         0.000000000000
   15         96.833600236000         0.000000000002
   16         26.794921343000         0.000000000046
   17         16.402756832000        -0.000000000254
   18          3.781459694900         0.000000001228
   19         11.024274121000         0.000000001949
   20          5.416392595400         0.000000008225
   21          2.067731144200         0.000000015834
   22         11.024274121000         0.000000005145
   23          5.416392595400         0.000000021715
   24          2.067731144200         0.000000041803
   25         11.024274121000         0.000000000327
   26          5.416392595400         0.000000001381
   27          1.550887609000         0.000000160688
   28          1.550887609000         0.000000453252
   29          1.550887609000         0.000000023981
   30          0.700087007000        -0.000001614478
   31          0.700087007000        -0.000004476212
   32          0.700087007000        -0.000000247223
   33          0.300010638400         0.000004634510
   34          0.300010638400         0.000012903704
   35          0.300010638400         0.000000696208
   36          0.093510529400        -0.000012230095
   37          0.093510529400        -0.000033669066
   38          0.032387495000         0.000039853799
   39        129.627400000000         0.000418830427
   40         47.172700000000         0.003866924477
   41         21.158600000000         0.012340983641
   42          9.638100000000         0.022422420199
   43          4.395300000000         0.028216666409
   44        129.627400000000         0.000204535395
   45         47.172700000000         0.001888408465
   46         21.158600000000         0.006026706266
 P 46
    1       1358.795571200000        -0.000080403111
    2        314.300769740000        -0.000567465706
    3         96.833600236000        -0.001732054254
    4         26.794921343000        -0.010601048811
    5         16.402756832000         0.035891830015
    6          3.781459694900        -0.040002091048
    7       1358.795571200000        -0.000223408277
    8        314.300769740000        -0.001576761567
    9         96.833600236000        -0.004812690091
   10         26.794921343000        -0.029456099571
   11         16.402756832000         0.099729124693
   12          3.781459694900        -0.111149905826
   13       1358.795571200000        -0.000011374742
   14        314.300769740000        -0.000080280176
   15         96.833600236000        -0.000245036164
   16         26.794921343000        -0.001499745362
   17         16.402756832000         0.005077667932
   18          3.781459694900        -0.005659152371
   19         11.024274121000        -0.027547806349
   20          5.416392595400        -0.057129227366
   21          2.067731144200        -0.041984736912
   22         11.024274121000        -0.076544403666
   23          5.416392595400        -0.158739414137
   24          2.067731144200        -0.116658895059
   25         11.024274121000        -0.003897227288
   26          5.416392595400        -0.008082152931
   27          2.067731144200        -0.005939640358
   28          1.550887609000        -0.112707459824
   29          1.550887609000        -0.313169332005
   30          1.550887609000        -0.015944890467
   31          0.700087007000         0.851154493409
   32          0.700087007000         2.365020490420
   33          0.700087007000         0.120414064609
   34          0.300010638400        -0.978294264976
   35          0.300010638400        -2.718291670358
   36          0.300010638400        -0.138400727248
   37          0.093510529400         0.480236750265
   38          0.093510529400         1.334387394594
   39          0.093510529400         0.067939797759
   40          0.032387495000        -0.162652898488
   41          0.032387495000        -0.451947871343
   42          0.032387495000        -0.023010744265
   43        129.627400000000         0.000007389350
   44         47.172700000000         0.000024827195
   45         21.158600000000         0.000035539223
   46          9.638100000000         0.000029413394
 D 46
    1      78529.743000000002        -0.000000000000
    2      11854.699000000001        -0.000000000003
    3       2719.980700000000        -0.000000000052
    4        772.403600000000        -0.000000000538
    5        242.032000000000        -0.000000002588
    6         48.356200000000        -0.000000011738
    7         31.880600000000         0.000000013239
    8         16.860900000000         0.000000005141
    9          4.215500000000        -0.000000268364
   10          2.128700000000         0.000000333895
   11          0.788900000000         0.000001409389
   12          0.338300000000        -0.000003263460
   13        409.803200000000        -0.000135042327
   14        123.710400000000        -0.001090666919
   15         47.097600000000        -0.004382420514
   16         20.120200000000        -0.008173934010
   17          8.157100000000        -0.040092079259
   18          4.147400000000        -0.057228511844
   19        409.803200000000         0.000275321673
   20        123.710400000000         0.002223630530
   21         47.097600000000         0.008934793819
   22         20.120200000000         0.016664857889
   23          8.157100000000         0.081738952448
   24          4.147400000000         0.116676378348
   25        409.803200000000        -0.000134965764
   26        123.710400000000        -0.001090048557
   27         47.097600000000        -0.004379935865
   28         20.120200000000        -0.008169299732
   29          8.157100000000        -0.040069348731
   30          4.147400000000        -0.057196065677
   31        409.803200000000         0.000395252423
   32        123.710400000000         0.003192249073
   33         47.097600000000         0.012826810435
   34         20.120200000000         0.023924108087
   35          8.157100000000         0.117344627016
   36          4.147400000000         0.167500875516
   37        409.803200000000         0.000098786435
   38        123.710400000000         0.000797846863
   39         47.097600000000         0.003205837088
   40         20.120200000000         0.005979412683
   41          8.157100000000         0.029328238635
   42          4.147400000000         0.041863916343
   43          2.082500000000        -0.096678095621
   44          2.082500000000         0.197105428185
   45          2.082500000000        -0.096623284849
   46          2.082500000000         0.282965019406
 F 46
    1       1358.795571200000        -0.000000000000
    2        314.300769740000        -0.000000000001
    3         96.833600236000        -0.000000000015
    4         26.794921343000        -0.000000000326
    5         16.402756832000         0.000000001804
    6          3.781459694900        -0.000000008721
    7       1358.795571200000        -0.000000000000
    8        314.300769740000        -0.000000000006
    9         96.833600236000        -0.000000000055
   10         26.794921343000        -0.000000001206
   11         16.402756832000         0.000000006668
   12          3.781459694900        -0.000000032237
   13         11.024274121000        -0.000000001751
   14          5.416392595400        -0.000000007391
   15          2.067731144200        -0.000000014228
   16         11.024274121000        -0.000000006427
   17          5.416392595400        -0.000000027126
   18          2.067731144200        -0.000000052220
   19          1.550887609000         0.000000118927
   20          1.550887609000         0.000000443546
   21          0.700087007000        -0.000000215884
   22          0.700087007000        -0.000000825536
   23          0.300010638400         0.000000435899
   24          0.300010638400         0.000001629475
   25          0.093510529400        -0.000004484321
   26        129.627400000000        -0.000734274512
   27         47.172700000000        -0.006779316640
   28         21.158600000000        -0.021635652893
   29          9.638100000000        -0.039309970302
   30          4.395300000000        -0.049468180007
   31        129.627400000000        -0.000518491781
   32         47.172700000000        -0.004787065194
   33         21.158600000000        -0.015277539966
   34          9.638100000000        -0.027757870091
   35          4.395300000000        -0.034930866234
   36        129.627400000000        -0.000678394938
   37         47.172700000000        -0.006263398789
   38         21.158600000000        -0.019989141873
   39          9.638100000000        -0.036318412820
   40          4.395300000000        -0.045703565002
   41        129.627400000000         0.001464337153
   42         47.172700000000         0.013519746451
   43         21.158600000000         0.043147201546
   44          9.638100000000         0.078394454736
   45          4.395300000000         0.098652605653
   46        129.627400000000        -0.000923645818
 F 8
    1        129.627400000000         0.005172333198
    2         47.172700000000         0.047754462317
    3         21.158600000000         0.152404589675
    4          9.638100000000         0.276904973641
    5          4.395300000000         0.348460835141
    6          1.942600000000         0.321456939543
    7          0.798000000000         0.211156200557
    8          0.286600000000         0.085780553102
 F 46
    1       1358.795571200000        -0.000000000000
    2        314.300769740000        -0.000000000005
    3         96.833600236000        -0.000000000053
    4         26.794921343000        -0.000000001171
    5         16.402756832000         0.000000006476
    6          3.781459694900        -0.000000031306
    7       1358.795571200000         0.000000000000
    8        314.300769740000         0.000000000002
    9         96.833600236000         0.000000000017
   10         26.794921343000         0.000000000370
   11         16.402756832000        -0.000000002044
   12          3.781459694900         0.000000009882
   13       1358.795571200000         0.000000000000
   14        314.300769740000         0.000000000004
   15         96.833600236000         0.000000000044
   16         26.794921343000         0.000000000977
   17         16.402756832000        -0.000000005402
   18          3.781459694900         0.000000026115
   19         11.024274121000        -0.000000006276
   20          5.416392595400        -0.000000026492
   21          2.067731144200        -0.000000050999
   22         11.024274121000         0.000000001968
   23          5.416392595400         0.000000008307
   24          2.067731144200         0.000000015991
   25         11.024274121000         0.000000005209
   26          5.416392595400         0.000000021988
   27          2.067731144200         0.000000042328
   28          1.550887609000         0.000000451559
   29          1.550887609000        -0.000000141870
   30          1.550887609000        -0.000000371772
   31          0.700087007000        -0.000000905142
   32          0.700087007000         0.000000284635
   33          0.700087007000         0.000000725744
   34          0.300010638400         0.000001769432
   35          0.300010638400        -0.000000552862
   36          0.300010638400        -0.000001411828
   37          0.093510529400        -0.000004318726
   38          0.093510529400         0.000003739361
   39        129.627400000000        -0.000843324449
   40         47.172700000000        -0.007786139075
   41         21.158600000000        -0.024848847066
   42          9.638100000000        -0.045148045452
   43          4.395300000000        -0.056814890019
   44        129.627400000000         0.001771571366
   45         47.172700000000         0.016356339550
   46         21.158600000000         0.052199964082
 P 46
    1       1358.795571200000        -0.000884194230
    2        314.300769740000        -0.006240428948
    3         96.833600236000        -0.019047426813
    4         26.794921343000        -0.116579894031
    5         16.402756832000         0.394702997261
    6          3.781459694900        -0.439903599975
    7       1358.795571200000         0.000279144872
    8        314.300769740000         0.001970136967
    9         96.833600236000         0.006013375042
   10         26.794921343000         0.036804899266
   11         16.402756832000        -0.124609858115
   12          3.781459694900         0.138879931385
   13       1358.795571200000         0.000767009144
   14        314.300769740000         0.005413364964
   15         96.833600236000         0.016523010491
   16         26.794921343000         0.101129188265
   17         16.402756832000        -0.342391748171
   18          3.781459694900         0.381601770615
   19         11.024274121000        -0.274643918949
   20          5.416392595400        -0.569562406948
   21          2.067731144200        -0.418576075910
   22         11.024274121000         0.086706561876
   23          5.416392595400         0.179813914211
   24          2.067731144200         0.132146717702
   25         11.024274121000         0.238244479909
   26          5.416392595400         0.494076475233
   27          2.067731144200         0.363100846685
   28          1.550887609000         3.071100499380
   29          1.550887609000        -0.969562949125
   30          1.550887609000        -2.664077588110
   31          0.700087007000        -2.902616487417
   32          0.700087007000         0.916371649569
   33          0.700087007000         2.517923193741
   34          0.300010638400         1.449069879600
   35          0.300010638400        -0.457479162564
   36          0.300010638400        -1.257019876056
   37          0.093510529400        -0.474836743553
   38          0.093510529400         0.149908516457
   39          0.093510529400         0.411905063725
   40          0.032387495000         0.152801968498
   41          0.032387495000        -0.048240403994
   42          0.032387495000        -0.132550621210
   43        129.627400000000         0.000000201848
   44         47.172700000000         0.000000678182
   45         21.158600000000         0.000000970793
   46          9.638100000000         0.000000803459
 F 8
    1        129.627400000000         0.006458176262
    2         47.172700000000         0.059626231164
    3         21.158600000000         0.190292401033
    4          9.638100000000         0.345743605258
    5          4.395300000000         0.435088268184
    6          1.942600000000        -1.564265635496
    7          0.798000000000         1.047449781606
    8          0.286600000000        -0.327659539585
 end
  // -----------------------------------------------
  // The basis set
  // -----------------------------------------------
  BAS[ATNO] = new BFNGauss[NSH];
  // Basis function   1 L = s
  InitBFNGauss(BAS[ATNO][  0]);
  BAS[ATNO][  0].l  = 0;
  BAS[ATNO][  0].ng = 14;
  BAS[ATNO][  0].a[  0] =     78529.743000000002;     BAS[ATNO][  0].d[  0] =        -0.000140554745;
  BAS[ATNO][  0].a[  1] =     11854.699000000001;     BAS[ATNO][  0].d[  1] =        -0.001052123554;
  BAS[ATNO][  0].a[  2] =      2719.980700000000;     BAS[ATNO][  0].d[  2] =        -0.004950989921;
  BAS[ATNO][  0].a[  3] =       772.403600000000;     BAS[ATNO][  0].d[  3] =        -0.014605471196;
  BAS[ATNO][  0].a[  4] =       242.032000000000;     BAS[ATNO][  0].d[  4] =        -0.022020243184;
  BAS[ATNO][  0].a[  5] =        48.356200000000;     BAS[ATNO][  0].d[  5] =         0.113186750022;
  BAS[ATNO][  0].a[  6] =        31.880600000000;     BAS[ATNO][  0].d[  6] =        -0.559721072406;
  BAS[ATNO][  0].a[  7] =        16.860900000000;     BAS[ATNO][  0].d[  7] =         1.062279407216;
  BAS[ATNO][  0].a[  8] =         4.215500000000;     BAS[ATNO][  0].d[  8] =        -0.979406070888;
  BAS[ATNO][  0].a[  9] =         2.128700000000;     BAS[ATNO][  0].d[  9] =        -0.414232120390;
  BAS[ATNO][  0].a[ 10] =         0.788900000000;     BAS[ATNO][  0].d[ 10] =        -0.014330427097;
  BAS[ATNO][  0].a[ 11] =         0.338300000000;     BAS[ATNO][  0].d[ 11] =         0.007007451202;
  BAS[ATNO][  0].a[ 12] =         0.058100000000;     BAS[ATNO][  0].d[ 12] =        -0.009628642476;
  BAS[ATNO][  0].a[ 13] =         0.023800000000;     BAS[ATNO][  0].d[ 13] =        -0.006165503597;

  // Basis function   2 L = d
  InitBFNGauss(BAS[ATNO][  1]);
  BAS[ATNO][  1].l  = 2;
  BAS[ATNO][  1].ng = 46;
  BAS[ATNO][  1].a[  0] =     78529.743000000002;     BAS[ATNO][  1].d[  0] =         0.000000000000;
  BAS[ATNO][  1].a[  1] =     11854.699000000001;     BAS[ATNO][  1].d[  1] =         0.000000000000;
  BAS[ATNO][  1].a[  2] =      2719.980700000000;     BAS[ATNO][  1].d[  2] =         0.000000000001;
  BAS[ATNO][  1].a[  3] =       772.403600000000;     BAS[ATNO][  1].d[  3] =         0.000000000008;
  BAS[ATNO][  1].a[  4] =       242.032000000000;     BAS[ATNO][  1].d[  4] =         0.000000000038;
  BAS[ATNO][  1].a[  5] =        48.356200000000;     BAS[ATNO][  1].d[  5] =         0.000000000259;
  BAS[ATNO][  1].a[  6] =        31.880600000000;     BAS[ATNO][  1].d[  6] =        -0.000000000820;
  BAS[ATNO][  1].a[  7] =        16.860900000000;     BAS[ATNO][  1].d[  7] =         0.000000002188;
  BAS[ATNO][  1].a[  8] =         4.215500000000;     BAS[ATNO][  1].d[  8] =         0.000000009025;
  BAS[ATNO][  1].a[  9] =         2.128700000000;     BAS[ATNO][  1].d[  9] =        -0.000000114896;
  BAS[ATNO][  1].a[ 10] =         0.788900000000;     BAS[ATNO][  1].d[ 10] =         0.000000270301;
  BAS[ATNO][  1].a[ 11] =         0.338300000000;     BAS[ATNO][  1].d[ 11] =         0.000000565249;
  BAS[ATNO][  1].a[ 12] =         0.058100000000;     BAS[ATNO][  1].d[ 12] =        -0.000005636321;
  BAS[ATNO][  1].a[ 13] =       409.803200000000;     BAS[ATNO][  1].d[ 13] =         0.000421466122;
  BAS[ATNO][  1].a[ 14] =       123.710400000000;     BAS[ATNO][  1].d[ 14] =         0.003403963542;
  BAS[ATNO][  1].a[ 15] =        47.097600000000;     BAS[ATNO][  1].d[ 15] =         0.013677502624;
  BAS[ATNO][  1].a[ 16] =        20.120200000000;     BAS[ATNO][  1].d[ 16] =         0.025510788734;
  BAS[ATNO][  1].a[ 17] =         8.157100000000;     BAS[ATNO][  1].d[ 17] =         0.125127088458;
  BAS[ATNO][  1].a[ 18] =         4.147400000000;     BAS[ATNO][  1].d[ 18] =         0.178609770217;
  BAS[ATNO][  1].a[ 19] =       409.803200000000;     BAS[ATNO][  1].d[ 19] =        -0.000119040147;
  BAS[ATNO][  1].a[ 20] =       123.710400000000;     BAS[ATNO][  1].d[ 20] =        -0.000961425601;
  BAS[ATNO][  1].a[ 21] =        47.097600000000;     BAS[ATNO][  1].d[ 21] =        -0.003863114578;
  BAS[ATNO][  1].a[ 22] =        20.120200000000;     BAS[ATNO][  1].d[ 22] =        -0.007205343151;
  BAS[ATNO][  1].a[ 23] =         8.157100000000;     BAS[ATNO][  1].d[ 23] =        -0.035341267539;
  BAS[ATNO][  1].a[ 24] =         4.147400000000;     BAS[ATNO][  1].d[ 24] =        -0.050447075466;
  BAS[ATNO][  1].a[ 25] =       409.803200000000;     BAS[ATNO][  1].d[ 25] =         0.000709555073;
  BAS[ATNO][  1].a[ 26] =       123.710400000000;     BAS[ATNO][  1].d[ 26] =         0.005730708763;
  BAS[ATNO][  1].a[ 27] =        47.097600000000;     BAS[ATNO][  1].d[ 27] =         0.023026622696;
  BAS[ATNO][  1].a[ 28] =        20.120200000000;     BAS[ATNO][  1].d[ 28] =         0.042948433130;
  BAS[ATNO][  1].a[ 29] =         8.157100000000;     BAS[ATNO][  1].d[ 29] =         0.210656457844;
  BAS[ATNO][  1].a[ 30] =         4.147400000000;     BAS[ATNO][  1].d[ 30] =         0.300696691609;
  BAS[ATNO][  1].a[ 31] =       409.803200000000;     BAS[ATNO][  1].d[ 31] =         0.000604938540;
  BAS[ATNO][  1].a[ 32] =       123.710400000000;     BAS[ATNO][  1].d[ 32] =         0.004885775214;
  BAS[ATNO][  1].a[ 33] =        47.097600000000;     BAS[ATNO][  1].d[ 33] =         0.019631586089;
  BAS[ATNO][  1].a[ 34] =        20.120200000000;     BAS[ATNO][  1].d[ 34] =         0.036616132270;
  BAS[ATNO][  1].a[ 35] =         8.157100000000;     BAS[ATNO][  1].d[ 35] =         0.179597348768;
  BAS[ATNO][  1].a[ 36] =         4.147400000000;     BAS[ATNO][  1].d[ 36] =         0.256362084264;
  BAS[ATNO][  1].a[ 37] =       409.803200000000;     BAS[ATNO][  1].d[ 37] =        -0.000159215662;
  BAS[ATNO][  1].a[ 38] =       123.710400000000;     BAS[ATNO][  1].d[ 38] =        -0.001285902423;
  BAS[ATNO][  1].a[ 39] =        47.097600000000;     BAS[ATNO][  1].d[ 39] =        -0.005166898395;
  BAS[ATNO][  1].a[ 40] =        20.120200000000;     BAS[ATNO][  1].d[ 40] =        -0.009637114097;
  BAS[ATNO][  1].a[ 41] =         8.157100000000;     BAS[ATNO][  1].d[ 41] =        -0.047268786578;
  BAS[ATNO][  1].a[ 42] =         4.147400000000;     BAS[ATNO][  1].d[ 42] =        -0.067472736824;
  BAS[ATNO][  1].a[ 43] =         2.082500000000;     BAS[ATNO][  1].d[ 43] =         0.108138160460;
  BAS[ATNO][  1].a[ 44] =         2.082500000000;     BAS[ATNO][  1].d[ 44] =        -0.030542866894;
  BAS[ATNO][  1].a[ 45] =         2.082500000000;     BAS[ATNO][  1].d[ 45] =         0.182054927533;

  // Basis function   3 L = s
  InitBFNGauss(BAS[ATNO][  2]);
  BAS[ATNO][  2].l  = 0;
  BAS[ATNO][  2].ng = 14;
  BAS[ATNO][  2].a[  0] =     78529.743000000002;     BAS[ATNO][  2].d[  0] =        -0.000301749479;
  BAS[ATNO][  2].a[  1] =     11854.699000000001;     BAS[ATNO][  2].d[  1] =        -0.002258747894;
  BAS[ATNO][  2].a[  2] =      2719.980700000000;     BAS[ATNO][  2].d[  2] =        -0.010629015966;
  BAS[ATNO][  2].a[  3] =       772.403600000000;     BAS[ATNO][  2].d[  3] =        -0.031355706441;
  BAS[ATNO][  2].a[  4] =       242.032000000000;     BAS[ATNO][  2].d[  4] =        -0.047274084604;
  BAS[ATNO][  2].a[  5] =        48.356200000000;     BAS[ATNO][  2].d[  5] =         0.007104395599;
  BAS[ATNO][  2].a[  6] =        31.880600000000;     BAS[ATNO][  2].d[  6] =        -0.206048737986;
  BAS[ATNO][  2].a[  7] =        16.860900000000;     BAS[ATNO][  2].d[  7] =         0.495928830216;
  BAS[ATNO][  2].a[  8] =         4.215500000000;     BAS[ATNO][  2].d[  8] =        -0.714449582072;
  BAS[ATNO][  2].a[  9] =         2.128700000000;     BAS[ATNO][  2].d[  9] =        -0.421779812800;
  BAS[ATNO][  2].a[ 10] =         0.788900000000;     BAS[ATNO][  2].d[ 10] =         0.767627438785;
  BAS[ATNO][  2].a[ 11] =         0.338300000000;     BAS[ATNO][  2].d[ 11] =         0.591457464502;
[...]
  BAS[ATNO][ 23].a[ 12] =      1358.795571200000;     BAS[ATNO][ 23].d[ 12] =        -0.000000000000;
  BAS[ATNO][ 23].a[ 13] =       314.300769740000;     BAS[ATNO][ 23].d[ 13] =        -0.000000000004;
  BAS[ATNO][ 23].a[ 14] =        96.833600236000;     BAS[ATNO][ 23].d[ 14] =        -0.000000000044;
  BAS[ATNO][ 23].a[ 15] =        26.794921343000;     BAS[ATNO][ 23].d[ 15] =        -0.000000000977;
  BAS[ATNO][ 23].a[ 16] =        16.402756832000;     BAS[ATNO][ 23].d[ 16] =         0.000000005402;
  BAS[ATNO][ 23].a[ 17] =         3.781459694900;     BAS[ATNO][ 23].d[ 17] =        -0.000000026115;
  BAS[ATNO][ 23].a[ 18] =        11.024274121000;     BAS[ATNO][ 23].d[ 18] =         0.000000006276;
  BAS[ATNO][ 23].a[ 19] =         5.416392595400;     BAS[ATNO][ 23].d[ 19] =         0.000000026492;
  BAS[ATNO][ 23].a[ 20] =         2.067731144200;     BAS[ATNO][ 23].d[ 20] =         0.000000050999;
  BAS[ATNO][ 23].a[ 21] =        11.024274121000;     BAS[ATNO][ 23].d[ 21] =        -0.000000001968;
  BAS[ATNO][ 23].a[ 22] =         5.416392595400;     BAS[ATNO][ 23].d[ 22] =        -0.000000008307;
  BAS[ATNO][ 23].a[ 23] =         2.067731144200;     BAS[ATNO][ 23].d[ 23] =        -0.000000015991;
  BAS[ATNO][ 23].a[ 24] =        11.024274121000;     BAS[ATNO][ 23].d[ 24] =        -0.000000005209;
  BAS[ATNO][ 23].a[ 25] =         5.416392595400;     BAS[ATNO][ 23].d[ 25] =        -0.000000021988;
  BAS[ATNO][ 23].a[ 26] =         2.067731144200;     BAS[ATNO][ 23].d[ 26] =        -0.000000042328;
  BAS[ATNO][ 23].a[ 27] =         1.550887609000;     BAS[ATNO][ 23].d[ 27] =        -0.000000451559;
  BAS[ATNO][ 23].a[ 28] =         1.550887609000;     BAS[ATNO][ 23].d[ 28] =         0.000000141870;
  BAS[ATNO][ 23].a[ 29] =         1.550887609000;     BAS[ATNO][ 23].d[ 29] =         0.000000371772;
  BAS[ATNO][ 23].a[ 30] =         0.700087007000;     BAS[ATNO][ 23].d[ 30] =         0.000000905142;
  BAS[ATNO][ 23].a[ 31] =         0.700087007000;     BAS[ATNO][ 23].d[ 31] =        -0.000000284635;
  BAS[ATNO][ 23].a[ 32] =         0.700087007000;     BAS[ATNO][ 23].d[ 32] =        -0.000000725744;
  BAS[ATNO][ 23].a[ 33] =         0.300010638400;     BAS[ATNO][ 23].d[ 33] =        -0.000001769432;
  BAS[ATNO][ 23].a[ 34] =         0.300010638400;     BAS[ATNO][ 23].d[ 34] =         0.000000552862;
  BAS[ATNO][ 23].a[ 35] =         0.300010638400;     BAS[ATNO][ 23].d[ 35] =         0.000001411828;
  BAS[ATNO][ 23].a[ 36] =         0.093510529400;     BAS[ATNO][ 23].d[ 36] =         0.000004318726;
  BAS[ATNO][ 23].a[ 37] =         0.093510529400;     BAS[ATNO][ 23].d[ 37] =        -0.000003739361;
  BAS[ATNO][ 23].a[ 38] =       129.627400000000;     BAS[ATNO][ 23].d[ 38] =         0.000843324449;
  BAS[ATNO][ 23].a[ 39] =        47.172700000000;     BAS[ATNO][ 23].d[ 39] =         0.007786139075;
  BAS[ATNO][ 23].a[ 40] =        21.158600000000;     BAS[ATNO][ 23].d[ 40] =         0.024848847066;
  BAS[ATNO][ 23].a[ 41] =         9.638100000000;     BAS[ATNO][ 23].d[ 41] =         0.045148045452;
  BAS[ATNO][ 23].a[ 42] =         4.395300000000;     BAS[ATNO][ 23].d[ 42] =         0.056814890019;
  BAS[ATNO][ 23].a[ 43] =       129.627400000000;     BAS[ATNO][ 23].d[ 43] =        -0.001771571366;
  BAS[ATNO][ 23].a[ 44] =        47.172700000000;     BAS[ATNO][ 23].d[ 44] =        -0.016356339550;
  BAS[ATNO][ 23].a[ 45] =        21.158600000000;     BAS[ATNO][ 23].d[ 45] =        -0.052199964082;

  // Basis function  25 L = p
  InitBFNGauss(BAS[ATNO][ 24]);
  BAS[ATNO][ 24].l  = 1;
  BAS[ATNO][ 24].ng = 46;
  BAS[ATNO][ 24].a[  0] =      1358.795571200000;     BAS[ATNO][ 24].d[  0] =        -0.000884194230;
  BAS[ATNO][ 24].a[  1] =       314.300769740000;     BAS[ATNO][ 24].d[  1] =        -0.006240428948;
  BAS[ATNO][ 24].a[  2] =        96.833600236000;     BAS[ATNO][ 24].d[  2] =        -0.019047426813;
  BAS[ATNO][ 24].a[  3] =        26.794921343000;     BAS[ATNO][ 24].d[  3] =        -0.116579894031;
  BAS[ATNO][ 24].a[  4] =        16.402756832000;     BAS[ATNO][ 24].d[  4] =         0.394702997261;
  BAS[ATNO][ 24].a[  5] =         3.781459694900;     BAS[ATNO][ 24].d[  5] =        -0.439903599975;
  BAS[ATNO][ 24].a[  6] =      1358.795571200000;     BAS[ATNO][ 24].d[  6] =         0.000279144872;
  BAS[ATNO][ 24].a[  7] =       314.300769740000;     BAS[ATNO][ 24].d[  7] =         0.001970136967;
  BAS[ATNO][ 24].a[  8] =        96.833600236000;     BAS[ATNO][ 24].d[  8] =         0.006013375042;
  BAS[ATNO][ 24].a[  9] =        26.794921343000;     BAS[ATNO][ 24].d[  9] =         0.036804899266;
  BAS[ATNO][ 24].a[ 10] =        16.402756832000;     BAS[ATNO][ 24].d[ 10] =        -0.124609858115;
  BAS[ATNO][ 24].a[ 11] =         3.781459694900;     BAS[ATNO][ 24].d[ 11] =         0.138879931385;
  BAS[ATNO][ 24].a[ 12] =      1358.795571200000;     BAS[ATNO][ 24].d[ 12] =         0.000767009144;
  BAS[ATNO][ 24].a[ 13] =       314.300769740000;     BAS[ATNO][ 24].d[ 13] =         0.005413364964;
  BAS[ATNO][ 24].a[ 14] =        96.833600236000;     BAS[ATNO][ 24].d[ 14] =         0.016523010491;
  BAS[ATNO][ 24].a[ 15] =        26.794921343000;     BAS[ATNO][ 24].d[ 15] =         0.101129188265;
  BAS[ATNO][ 24].a[ 16] =        16.402756832000;     BAS[ATNO][ 24].d[ 16] =        -0.342391748171;
  BAS[ATNO][ 24].a[ 17] =         3.781459694900;     BAS[ATNO][ 24].d[ 17] =         0.381601770615;
  BAS[ATNO][ 24].a[ 18] =        11.024274121000;     BAS[ATNO][ 24].d[ 18] =        -0.274643918949;
  BAS[ATNO][ 24].a[ 19] =         5.416392595400;     BAS[ATNO][ 24].d[ 19] =        -0.569562406948;
  BAS[ATNO][ 24].a[ 20] =         2.067731144200;     BAS[ATNO][ 24].d[ 20] =        -0.418576075910;
  BAS[ATNO][ 24].a[ 21] =        11.024274121000;     BAS[ATNO][ 24].d[ 21] =         0.086706561876;
  BAS[ATNO][ 24].a[ 22] =         5.416392595400;     BAS[ATNO][ 24].d[ 22] =         0.179813914211;
  BAS[ATNO][ 24].a[ 23] =         2.067731144200;     BAS[ATNO][ 24].d[ 23] =         0.132146717702;
  BAS[ATNO][ 24].a[ 24] =        11.024274121000;     BAS[ATNO][ 24].d[ 24] =         0.238244479909;
  BAS[ATNO][ 24].a[ 25] =         5.416392595400;     BAS[ATNO][ 24].d[ 25] =         0.494076475233;
  BAS[ATNO][ 24].a[ 26] =         2.067731144200;     BAS[ATNO][ 24].d[ 26] =         0.363100846685;
  BAS[ATNO][ 24].a[ 27] =         1.550887609000;     BAS[ATNO][ 24].d[ 27] =         3.071100499380;
  BAS[ATNO][ 24].a[ 28] =         1.550887609000;     BAS[ATNO][ 24].d[ 28] =        -0.969562949125;
  BAS[ATNO][ 24].a[ 29] =         1.550887609000;     BAS[ATNO][ 24].d[ 29] =        -2.664077588110;
  BAS[ATNO][ 24].a[ 30] =         0.700087007000;     BAS[ATNO][ 24].d[ 30] =        -2.902616487417;
  BAS[ATNO][ 24].a[ 31] =         0.700087007000;     BAS[ATNO][ 24].d[ 31] =         0.916371649569;
  BAS[ATNO][ 24].a[ 32] =         0.700087007000;     BAS[ATNO][ 24].d[ 32] =         2.517923193741;
  BAS[ATNO][ 24].a[ 33] =         0.300010638400;     BAS[ATNO][ 24].d[ 33] =         1.449069879600;
  BAS[ATNO][ 24].a[ 34] =         0.300010638400;     BAS[ATNO][ 24].d[ 34] =        -0.457479162564;
  BAS[ATNO][ 24].a[ 35] =         0.300010638400;     BAS[ATNO][ 24].d[ 35] =        -1.257019876056;
  BAS[ATNO][ 24].a[ 36] =         0.093510529400;     BAS[ATNO][ 24].d[ 36] =        -0.474836743553;
  BAS[ATNO][ 24].a[ 37] =         0.093510529400;     BAS[ATNO][ 24].d[ 37] =         0.149908516457;
  BAS[ATNO][ 24].a[ 38] =         0.093510529400;     BAS[ATNO][ 24].d[ 38] =         0.411905063725;
  BAS[ATNO][ 24].a[ 39] =         0.032387495000;     BAS[ATNO][ 24].d[ 39] =         0.152801968498;
  BAS[ATNO][ 24].a[ 40] =         0.032387495000;     BAS[ATNO][ 24].d[ 40] =        -0.048240403994;
  BAS[ATNO][ 24].a[ 41] =         0.032387495000;     BAS[ATNO][ 24].d[ 41] =        -0.132550621210;
  BAS[ATNO][ 24].a[ 42] =       129.627400000000;     BAS[ATNO][ 24].d[ 42] =         0.000000201848;
  BAS[ATNO][ 24].a[ 43] =        47.172700000000;     BAS[ATNO][ 24].d[ 43] =         0.000000678182;
  BAS[ATNO][ 24].a[ 44] =        21.158600000000;     BAS[ATNO][ 24].d[ 44] =         0.000000970793;
  BAS[ATNO][ 24].a[ 45] =         9.638100000000;     BAS[ATNO][ 24].d[ 45] =         0.000000803459;

  // Basis function  26 L = f
  InitBFNGauss(BAS[ATNO][ 25]);
  BAS[ATNO][ 25].l  = 3;
  BAS[ATNO][ 25].ng = 8;
  BAS[ATNO][ 25].a[  0] =       129.627400000000;     BAS[ATNO][ 25].d[  0] =        -0.006458176262;
  BAS[ATNO][ 25].a[  1] =        47.172700000000;     BAS[ATNO][ 25].d[  1] =        -0.059626231164;
  BAS[ATNO][ 25].a[  2] =        21.158600000000;     BAS[ATNO][ 25].d[  2] =        -0.190292401033;
  BAS[ATNO][ 25].a[  3] =         9.638100000000;     BAS[ATNO][ 25].d[  3] =        -0.345743605258;
  BAS[ATNO][ 25].a[  4] =         4.395300000000;     BAS[ATNO][ 25].d[  4] =        -0.435088268184;
  BAS[ATNO][ 25].a[  5] =         1.942600000000;     BAS[ATNO][ 25].d[  5] =         1.564265635496;
  BAS[ATNO][ 25].a[  6] =         0.798000000000;     BAS[ATNO][ 25].d[  6] =        -1.047449781606;
  BAS[ATNO][ 25].a[  7] =         0.286600000000;     BAS[ATNO][ 25].d[  7] =         0.327659539585;

-------------------------------------------
RADIAL EXPECTATION VALUES <R**-3> TO <R**3>
-------------------------------------------
   0 :     0.000000     9.352447     2.040783     0.550226     0.332121     0.235126
   1 :    13.751776     4.491968     1.917875     0.613278     0.433275     1.742274
   2 :    13.751776     4.491968     1.917875     0.613278     0.433275     1.742275
   3 :    13.751777     4.491968     1.917875     0.613278     0.433275     1.742275
   4 :    13.751777     4.491968     1.917875     0.613278     0.433275     1.742275
   5 :    13.748836     4.492272     1.917543     0.614090     0.437981     1.769413
   6 :     0.000000    24.366451     1.187981     1.346332     2.069861     3.584986
   7 :     0.000000     5.383158     0.347466     4.432154    22.554280   129.232090
   8 :     0.000000     3.912687     0.250226     6.804335    53.761853   461.612675
   9 :     0.000000   207.325406     3.400210     2.337684     9.055438    52.560366
  10 :     0.000000  2287.265720    31.448301     0.269352     0.718261     3.593449
  11 :     0.000000    42.735349     1.838093     1.129254     2.192065     8.334417
  12 :     0.000000    51.583293     3.401491     0.427419     0.349415     0.920786
  13 :     0.000000   106.719265     6.318014     0.223784     0.094891     0.184645
  14 :     0.000000  1842.846482    21.677336     0.124698     0.042686     0.084260
  15 :    17.385116     4.717322     1.979449     0.572558     0.364538     0.256008
  16 :    17.385116     4.717322     1.979449     0.572558     0.364538     0.256008
  17 :    17.385119     4.717322     1.979449     0.572558     0.364538     0.256008
  18 :     3.361468     1.011378     0.797370     1.555492     2.769002     5.530404
  19 :     3.361461     1.011376     0.797369     1.555496     2.769019     5.530477
  20 :     3.361439     1.011370     0.797367     1.555503     2.769054     5.530613
  21 :     0.093868     0.056606     0.188485     6.115003    40.918863   295.036700
  22 :     0.093866     0.056605     0.188485     6.115000    40.918819   295.036269
  23 :     0.093855     0.056602     0.188483     6.115035    40.919207   295.039856
  24 :     0.333669     0.206571     0.356299     3.492563    14.049108   314.125557
  25 :     0.333669     0.206571     0.356299     3.492562    14.049105   314.125499
  26 :     0.333672     0.206572     0.356299     3.492557    14.049070   314.124502
  27 :     0.333673     0.206572     0.356300     3.492555    14.049055   314.124096
  28 :     0.333675     0.206574     0.356300     3.492553    14.049048   314.123852
  29 :     0.435682     0.157519     0.275019     5.004533    31.187046   228.159472
  30 :    82.738748    13.600702     3.232367     0.493354     0.557909     1.651736
  31 :    82.738748    13.600702     3.232367     0.493354     0.557909     1.651736
  32 :    82.738748    13.600702     3.232367     0.493354     0.557909     1.651736
  33 :     0.435692     0.157521     0.275020     5.004548    31.187254   228.161557
  34 :     0.435706     0.157524     0.275020     5.004574    31.187598   228.165000
  35 :     0.947724     0.424924     0.471883     3.139520    12.792642   305.245435
  36 :     0.947724     0.424925     0.471883     3.139520    12.792643   305.245475
  37 :     0.947725     0.424925     0.471883     3.139523    12.792669   305.246235
  38 :     0.947726     0.424925     0.471883     3.139524    12.792677   305.246502
  39 :     0.947726     0.424925     0.471883     3.139525    12.792684   305.246699
  40 :     0.793011     0.372523     0.443363     2.759230     8.179878   177.705969
  41 :     0.793012     0.372523     0.443363     2.759230     8.179878   177.705964
  42 :     0.793001     0.372520     0.443362     2.759231     8.179878   177.705923
  43 :     0.792997     0.372518     0.443362     2.759231     8.179879   177.705934
  44 :     0.792996     0.372518     0.443362     2.759231     8.179878   177.705895
  45 :     0.792988     0.372515     0.443361     2.759231     8.179878   177.705872
  46 :     0.792989     0.372516     0.443361     2.759231     8.179878   177.705862
  47 :     1.954353     0.610657     0.555019     2.708230    10.239873    53.022976
  48 :     1.954351     0.610656     0.555019     2.708232    10.239887    53.023041
  49 :     1.954354     0.610656     0.555019     2.708235    10.239906    53.023135
  50 :     2.863853     1.078821     0.785451     1.878797     4.826447    81.558361
  51 :     2.863853     1.078821     0.785451     1.878797     4.826448    81.558377
  52 :     2.863852     1.078820     0.785450     1.878799     4.826457    81.558591
  53 :     2.863852     1.078820     0.785450     1.878800     4.826462    81.558716
  54 :     2.863852     1.078820     0.785450     1.878800     4.826464    81.558753
  55 :     3.153531     1.231017     0.835320     1.716430     3.665478    64.864004
  56 :    16.400013     3.992359     1.528537     1.081194     1.775597    21.507178
  57 :    16.400010     3.992359     1.528536     1.081194     1.775598    21.507201
  58 :    16.400011     3.992359     1.528537     1.081194     1.775598    21.507194
  59 :    16.400013     3.992359     1.528537     1.081194     1.775597    21.507180
  60 :    16.400013     3.992359     1.528537     1.081194     1.775597    21.507178
  61 :    10.029886     3.548816     1.642401     0.805689     0.859073     8.388489
  62 :    10.029896     3.548819     1.642402     0.805688     0.859069     8.388425
  63 :    10.029923     3.548827     1.642404     0.805686     0.859064     8.388327
  64 :    10.029907     3.548822     1.642403     0.805687     0.859066     8.388371
  65 :    10.029896     3.548819     1.642402     0.805688     0.859069     8.388420
  66 :    10.029909     3.548823     1.642403     0.805687     0.859068     8.388404
  67 :    10.029908     3.548822     1.642402     0.805688     0.859069     8.388441
  68 :     3.153535     1.231018     0.835320     1.716430     3.665477    64.863997
  69 :     3.153530     1.231017     0.835320     1.716431     3.665482    64.864129
  70 :     3.153525     1.231015     0.835319     1.716431     3.665484    64.864158
  71 :     3.153524     1.231015     0.835319     1.716432     3.665485    64.864203
  72 :     3.153515     1.231012     0.835318     1.716433     3.665489    64.864295
  73 :     3.153519     1.231013     0.835318     1.716433     3.665489    64.864291
  74 :    17.968975     2.851694     1.195170     1.418337     3.247482    12.222895
  75 :    17.968969     2.851692     1.195169     1.418338     3.247485    12.222906
  76 :    17.968961     2.851691     1.195169     1.418339     3.247489    12.222924
  77 :    10.823959     3.312237     1.446392     1.071017     1.616382    22.536315
  78 :    10.823958     3.312237     1.446392     1.071017     1.616382    22.536325
  79 :    10.823953     3.312236     1.446392     1.071017     1.616383    22.536345
  80 :    10.823956     3.312237     1.446392     1.071017     1.616383    22.536334
  81 :    10.823958     3.312237     1.446392     1.071017     1.616382    22.536321
  82 :    10.823955     3.312236     1.446392     1.071017     1.616382    22.536327
  83 :    10.823955     3.312236     1.446392     1.071017     1.616382    22.536318
Making the total density                ... o.k.
o.k.
Initializing the integrals              ... done
Making exponents                        ... done
Making rho(0)                           ... done (       371.733340195)
Integral calculation                    ... Two index integrals                     ... done
Solving the equation system             ... done
atomic density will be written to file 66_Dy_atom66.adf

-------
TIMINGS
-------

Total SCF time: 0 days 0 hours 0 min 8 sec 

Total time                  ....       8.152 sec
Sum of individual times     ....       7.541 sec  ( 92.5%)

Fock matrix formation       ....       7.321 sec  ( 89.8%)
Diagonalization             ....       0.097 sec  (  1.2%)
Density matrix formation    ....       0.005 sec  (  0.1%)
Population analysis         ....       0.000 sec  (  0.0%)
Initial guess               ....       0.001 sec  (  0.0%)
Orbital Transformation      ....       0.000 sec  (  0.0%)
Orbital Orthonormalization  ....       0.000 sec  (  0.0%)
DIIS solution               ....       0.117 sec  (  1.4%)

-------------------------   --------------------
FINAL SINGLE POINT ENERGY      -881.658680554884
-------------------------   --------------------


                            ***************************************
                            *     ORCA property calculations      *
                            ***************************************

                                    ---------------------
                                    Active property flags
                                    ---------------------
   (+) Dipole Moment


------------------------------------------------------------------------------
                       ORCA ELECTRIC PROPERTIES CALCULATION
------------------------------------------------------------------------------

Dipole Moment Calculation                       ... on
Quadrupole Moment Calculation                   ... off
Polarizability Calculation                      ... off
GBWName                                         ... 66_Dy_atom66.gbw
Electron density file                           ... 66_Dy_atom66.scfp
The origin for moment calculation is the CENTER OF MASS  = ( 0.000000,  0.000000  0.000000)

-------------
DIPOLE MOMENT
-------------
                                X             Y             Z
Electronic contribution:      0.00000       0.00000       0.00000
Nuclear contribution   :      0.00000       0.00000       0.00000
                        -----------------------------------------
Total Dipole Moment    :      0.00000       0.00000       0.00000
                        -----------------------------------------
Magnitude (a.u.)       :      0.00000
Magnitude (Debye)      :      0.00000



--------------------
Rotational spectrum 
--------------------
 
Rotational constants in cm-1:     0.000000     0.000000     0.000000 
Rotational constants in MHz :     0.000000     0.000000     0.000000 

 Dipole components along the rotational axes: 
x,y,z [a.u.] :     0.000000     0.000000     0.000000 
x,y,z [Debye]:     0.000000     0.000000     0.000000 

 

Timings for individual modules:

Sum of individual times         ...        9.901 sec (=   0.165 min)
GTO integral calculation        ...        1.727 sec (=   0.029 min)  17.4 %
SCF iterations                  ...        8.175 sec (=   0.136 min)  82.6 %
                             ****ORCA TERMINATED NORMALLY****
TOTAL RUN TIME: 0 days 0 hours 0 minutes 10 seconds 185 msec
