
                                 *****************
                                 * O   R   C   A *
                                 *****************

           --- An Ab Initio, DFT and Semiempirical electronic structure package ---

                  #######################################################
                  #                        -***-                        #
                  #          Department of theory and spectroscopy      #
                  #               Directorship: Frank Neese             #
                  #        Max Planck Institute fuer Kohlenforschung    #
                  #                Kaiser Wilhelm Platz 1               #
                  #                 D-45470 Muelheim/Ruhr               #
                  #                      Germany                        #
                  #                                                     #
                  #                  All rights reserved                #
                  #                        -***-                        #
                  #######################################################


                         Program Version 4.2.0 -  RELEASE  -


 With contributions from (in alphabetic order):
   Daniel Aravena         : Magnetic Suceptibility
   Michael Atanasov       : Ab Initio Ligand Field Theory (pilot matlab implementation)
   Alexander A. Auer      : GIAO ZORA, VPT2
   Ute Becker             : Parallelization
   Giovanni Bistoni       : ED, misc. LED, open-shell LED, HFLED
   Martin Brehm           : Molecular dynamics
   Dmytro Bykov           : SCF Hessian
   Vijay G. Chilkuri      : MRCI spin determinant printing, contributions to CSF-ICE
   Dipayan Datta          : RHF DLPNO-CCSD density
   Achintya Kumar Dutta   : EOM-CC, STEOM-CC
   Dmitry Ganyushin       : Spin-Orbit,Spin-Spin,Magnetic field MRCI
   Miquel Garcia          : C-PCM Hessian, Gaussian charge scheme
   Yang Guo               : DLPNO-NEVPT2, CIM, IAO-localization
   Andreas Hansen         : Spin unrestricted coupled pair/coupled cluster methods
   Benjamin Helmich-Paris : CASSCF linear response (MC-RPA)
   Lee Huntington         : MR-EOM, pCC
   Robert Izsak           : Overlap fitted RIJCOSX, COSX-SCS-MP3, EOM
   Christian Kollmar      : KDIIS, OOCD, Brueckner-CCSD(T), CCSD density
   Simone Kossmann        : Meta GGA functionals, TD-DFT gradient, OOMP2, MP2 Hessian
   Martin Krupicka        : AUTO-CI
   Lucas Lang             : DCDCAS
   Dagmar Lenk            : GEPOL surface, SMD
   Dimitrios Liakos       : Extrapolation schemes; Compound Job, initial MDCI parallelization
   Dimitrios Manganas     : Further ROCIS development; embedding schemes
   Dimitrios Pantazis     : SARC Basis sets
   Taras Petrenko         : DFT Hessian,TD-DFT gradient, ASA, ECA, R-Raman, ABS, FL, XAS/XES, NRVS
   Peter Pinski           : DLPNO-MP2, DLPNO-MP2 Gradient
   Christoph Reimann      : Effective Core Potentials
   Marius Retegan         : Local ZFS, SOC
   Christoph Riplinger    : Optimizer, TS searches, QM/MM, DLPNO-CCSD(T), (RO)-DLPNO pert. Triples
   Tobias Risthaus        : Range-separated hybrids, TD-DFT gradient, RPA, STAB
   Michael Roemelt        : Original ROCIS implementation
   Masaaki Saitow         : Open-shell DLPNO-CCSD energy and density
   Barbara Sandhoefer     : DKH picture change effects
   Avijit Sen             : IP-ROCIS
   Kantharuban Sivalingam : CASSCF convergence, NEVPT2, FIC-MRCI
   Bernardo de Souza      : ESD, SOC TD-DFT
   Georgi Stoychev        : AutoAux, RI-MP2 NMR
   Willem Van den Heuvel  : Paramagnetic NMR
   Boris Wezisla          : Elementary symmetry handling
   Frank Wennmohs         : Technical directorship


 We gratefully acknowledge several colleagues who have allowed us to
 interface, adapt or use parts of their codes:
   Stefan Grimme, W. Hujo, H. Kruse,             : VdW corrections, initial TS optimization,
                  C. Bannwarth                     DFT functionals, gCP, sTDA/sTD-DF
   Ed Valeev, F. Pavosevic, A. Kumar             : LibInt (2-el integral package), F12 methods
   Garnet Chan, S. Sharma, J. Yang, R. Olivares  : DMRG
   Ulf Ekstrom                                   : XCFun DFT Library
   Mihaly Kallay                                 : mrcc  (arbitrary order and MRCC methods)
   Andreas Klamt, Michael Diedenhofen            : otool_cosmo (COSMO solvation model)
   Jiri Pittner, Ondrej Demel                    : Mk-CCSD
   Frank Weinhold                                : gennbo (NPA and NBO analysis)
   Christopher J. Cramer and Donald G. Truhlar   : smd solvation model
   Lars Goerigk                                  : TD-DFT with DH, B97 family of functionals
   V. Asgeirsson, H. Jonsson                     : NEB implementation
   FAccTs GmbH                                   : IRC, NEB, NEB-TS, Multilevel, MM, QM/MM, CI optimization
   S Lehtola, MJT Oliveira, MAL Marques          : LibXC Library


 Your calculation uses the libint2 library for the computation of 2-el integrals
 For citations please refer to: http://libint.valeyev.net

 Your ORCA version has been built with support for libXC version: 4.2.3
 For citations please refer to: https://tddft.org/programs/libxc/

 This ORCA versions uses:
   CBLAS   interface :  Fast vector & matrix operations
   LAPACKE interface :  Fast linear algebra routines
   SCALAPACK package :  Parallel linear algebra routines


----- Orbital basis set information -----
Your calculation utilizes the basis: def2-SVP
   F. Weigend and R. Ahlrichs, Phys. Chem. Chem. Phys. 7, 3297 (2005).

----- AuxJ basis set information -----
Your calculation utilizes the auxiliary basis: def2/J
   F. Weigend, Phys. Chem. Chem. Phys. 8, 1057 (2006).

================================================================================
                                        WARNINGS
                       Please study these warnings very carefully!
================================================================================


INFO   : the flag for use of LIBINT has been found!

================================================================================
                                       INPUT FILE
================================================================================
NAME = 69_Tm_atom69.inp
|  1> # input to generate an atomic fitting density for Tm
|  2> # this file is use internally by ORCA
|  3> #
|  4> # atomic ground state (S=2): 1s2 2s2 2p6 3s2 3p6 4s2 3d10 4p6 5s2 4d10 5p6 6s2 4f13 
|  5> #
|  6> ! RHF AllowRHF def2-SVP def2/J  NoMulliken NoLoewdin NoMayer NoPrintMOs 
|  7> 
|  8> %output print[p_atomdensfit] 2 end
|  9> 
| 10> %scf
| 11>   guess hcore
| 12>   maxiter 1000
| 13>   maxdisk 500000
| 14>   SCFMode Conventional
| 15>   lshift 1.000000
| 16>   hftyp rohf
| 17>   rohf_case sahf
| 18>   rohf_numop   2
| 19>   rohf_norb[1] 7
| 20>   rohf_nel[1]  13
| 21> end
| 22> 
| 23> %basis
| 24>   NewECP 69
| 25>     N_core 28
| 26>     lmax h
| 27>     s 1
| 28>       1      31.1441220000    845.5107430000  2
| 29>     p 1
| 30>       1      18.0923530000    258.5852390000  2
| 31>     d 1
| 32>       1      11.4691590000     80.7290590000  2
| 33>     f 1
| 34>       1      23.6055440000    -48.7012660000  2
| 35>     g 1
| 36>       1      27.3297810000    -33.3954960000  2
| 37>     h 1
| 38>       1       1.0000000000      0.0000000000  2
| 39>   end
| 40>   NewGTO 69
| 41>     s 5 
| 42>      1   91965.7410000000      0.0034834473
| 43>      2   13821.7180000000      0.0261258549
| 44>      3    3143.9393000000      0.1250308770
| 45>      4     882.0348000000      0.3689343937
| 46>      5     261.8382000000      0.6015789110
| 47>     s 1 
| 48>      1      55.3108000000      1.0000000000
| 49>     s 1 
| 50>      1      39.5077000000      1.0000000000
| 51>     s 1 
| 52>      1      19.6251000000      1.0000000000
| 53>     s 1 
| 54>      1       4.8195000000      1.0000000000
| 55>     s 1 
| 56>      1       2.3954000000      1.0000000000
| 57>     s 1 
| 58>      1       0.8926000000      1.0000000000
| 59>     s 1 
| 60>      1       0.3765000000      1.0000000000
| 61>     s 1 
| 62>      1       0.0615000000      1.0000000000
| 63>     s 1 
| 64>      1       0.0250000000      1.0000000000
| 65>     p 6 
| 66>      1    1416.2116000000     -0.0048993097
| 67>      2     364.6677400000     -0.0286259042
| 68>      3     124.3216200000     -0.0829355363
| 69>      4      42.4521950000     -0.1873788839
| 70>      5      14.7305450000      1.2153502866
| 71>      6       5.4481245000     -1.5669124227
| 72>     p 3 
| 73>      1      11.9917720000     -0.3197039499
| 74>      2       9.8698236000     -0.4257686800
| 75>      3       2.0053929000     -0.4113108426
| 76>     p 1 
| 77>      1       3.5694494000      1.0000000000
| 78>     p 1 
| 79>      1       1.3379669000      1.0000000000
| 80>     p 1 
| 81>      1       0.5792940800      1.0000000000
| 82>     p 1 
| 83>      1       0.2369611000      1.0000000000
| 84>     p 1 
| 85>      1       0.0765125971      1.0000000000
| 86>     p 1 
| 87>      1       0.0283466997      1.0000000000
| 88>     d 6 
| 89>      1     462.7563000000      0.0020192489
| 90>      2     140.2688000000      0.0163724256
| 91>      3      54.0389000000      0.0652966673
| 92>      4      22.9937000000      0.1431291874
| 93>      5       9.1744000000      0.3743750946
| 94>      6       4.4985000000      0.5668730124
| 95>     d 1 
| 96>      1       2.1434000000      1.0000000000
| 97>     d 1 
| 98>      1       0.9195000000      1.0000000000
| 99>     d 1 
|100>      1       0.3131000000      1.0000000000
|101>     d 1 
|102>      1       0.0934000000      1.0000000000
|103>     f 5 
|104>      1     139.4592000000      0.0082508768
|105>      2      50.4688000000      0.0741419926
|106>      3      22.6469000000      0.2378501503
|107>      4      10.3467000000      0.4077864783
|108>      5       4.7136000000      0.4862746685
|109>     f 1 
|110>      1       2.0773000000      1.0000000000
|111>     f 1 
|112>      1       0.8490000000      1.0000000000
|113>     f 1 
|114>      1       0.3023000000      1.0000000000
|115>   end
|116>   NewAuxGTO 69
|117>     S 1
|118>      1 1310.72 1.0
|119>     S 1
|120>      1  655.36 1.0
|121>     S 1
|122>      1  327.68 1.0
|123>     S 1
|124>      1  163.84 1.0
|125>     S 1
|126>      1   81.82 1.0
|127>     S 1
|128>      1   40.96 1.0
|129>     S 1
|130>      1   20.48 1.0
|131>     S 1
|132>      1   10.24 1.0
|133>     S 1
|134>      1    5.12 1.0
|135>     S 1
|136>      1    2.56 1.0
|137>     S 1
|138>      1    1.28 1.0
|139>     S 1
|140>      1    0.64 1.0
|141>     S 1
|142>      1    0.32 1.0
|143>     S 1
|144>      1    0.16 1.0
|145>     S 1
|146>      1    0.08 1.0
|147>     S 1
|148>      1    0.04 1.0
|149>     S 1
|150>      1    0.02 1.0
|151>     S 1
|152>      1    0.01 1.0
|153>   end
|154> end
|155> 
|156> * xyz 0 2
|157> 69  0.0 0.0 0.0
|158> *
|159> 
|160> 
|161>                          ****END OF INPUT****
================================================================================

                       ****************************
                       * Single Point Calculation *
                       ****************************

---------------------------------
CARTESIAN COORDINATES (ANGSTROEM)
---------------------------------
  Tm     0.000000    0.000000    0.000000

----------------------------
CARTESIAN COORDINATES (A.U.)
----------------------------
  NO LB      ZA    FRAG     MASS         X           Y           Z
   0 Tm   41.0000*   0   168.934    0.000000    0.000000    0.000000
* core charge reduced due to ECP

--------------------------------
INTERNAL COORDINATES (ANGSTROEM)
--------------------------------
 Tm     0   0   0     0.000000000000     0.00000000     0.00000000

---------------------------
INTERNAL COORDINATES (A.U.)
---------------------------
 Tm     0   0   0     0.000000000000     0.00000000     0.00000000

---------------------
BASIS SET INFORMATION
---------------------
There are 1 groups of distinct atoms

 Group   1 Type Tm  : 14s15p10d8f contracted to 10s8p5d4f pattern {5111111111/63111111/61111/5111}

Atom   0Tm   basis set group =>   1
---------------------------------
AUXILIARY/J BASIS SET INFORMATION
---------------------------------
There are 1 groups of distinct atoms

 Group   1 Type Tm  : 18s contracted to 18s pattern {111111111111111111}

Atom   0Tm   basis set group =>   1
-------------------------
ECP PARAMETER INFORMATION
-------------------------

 Group 1, Type Tm ECP (replacing 28 core electrons, lmax=5)

Atom   0Tm   ECP group =>   1

------------------------------------------------------------------------------
                           ORCA GTO INTEGRAL CALCULATION
------------------------------------------------------------------------------

                         BASIS SET STATISTICS AND STARTUP INFO

 # of primitive gaussian shells          ...   47
 # of primitive gaussian functions       ...  165
 # of contracted shells                  ...   27
 # of contracted basis functions         ...   87
 Highest angular momentum                ...    3
 Maximum contraction depth               ...    6
 Integral package used                   ... LIBINT
 Integral threshhold            Thresh   ...  1.000e-10
 Primitive cut-off              TCut     ...  1.000e-11
 Storage cut-off                TCutStore... -1.000e+00
 Buffer length                           ... 1048576 integrals/buffer
 Generate file with integrals 4 distinct ...false


------------------------------ INTEGRAL EVALUATION ----------------------------


 * One electron integrals 

   ECP integrals                         ... done
 Pre-screening matrix                    ... done
 Shell pair data                         ... done (   0.000 sec)
 Statistics run                          ... done
 Maximum amount of storage needed        ...    86 MB
 Maximum amount of storage dedicated     ... 500000 MB
 Beginning two electron integral evaluation:
 Starting repulsion integrals
  <ss|ss>  ...         1540 b.         0 skpd (  0.0%)     0.000 s. (  0.000 ms/b)
  <ss|sp>  ...         4400 b.         0 skpd (  0.0%)     0.001 s. (  0.000 ms/b)
  <ss|sd>  ...         2750 b.         0 skpd (  0.0%)     0.001 s. (  0.001 ms/b)
  <ss|sf>  ...         2200 b.         0 skpd (  0.0%)     0.002 s. (  0.001 ms/b)
  <ss|pp>  ...         1980 b.         0 skpd (  0.0%)     0.002 s. (  0.001 ms/b)
  <ss|pd>  ...         2200 b.         0 skpd (  0.0%)     0.003 s. (  0.001 ms/b)
  <ss|pf>  ...         1760 b.         0 skpd (  0.0%)     0.003 s. (  0.002 ms/b)
  <ss|dd>  ...          825 b.         0 skpd (  0.0%)     0.002 s. (  0.002 ms/b)
  <ss|df>  ...         1100 b.         0 skpd (  0.0%)     0.003 s. (  0.003 ms/b)
  <ss|ff>  ...          550 b.         0 skpd (  0.0%)     0.003 s. (  0.005 ms/b)
  <sp|sp>  ...         3240 b.         0 skpd (  0.0%)     0.002 s. (  0.001 ms/b)
  <sp|sd>  ...         4000 b.         0 skpd (  0.0%)     0.004 s. (  0.001 ms/b)
  <sp|sf>  ...         3198 b.         2 skpd (  0.1%)     0.005 s. (  0.002 ms/b)
  <sp|pp>  ...         2880 b.         0 skpd (  0.0%)     0.005 s. (  0.002 ms/b)
  <sp|pd>  ...         3200 b.         0 skpd (  0.0%)     0.009 s. (  0.003 ms/b)
  <sp|pf>  ...         2560 b.         0 skpd (  0.0%)     0.011 s. (  0.004 ms/b)
  <sp|dd>  ...         1200 b.         0 skpd (  0.0%)     0.007 s. (  0.006 ms/b)
  <sp|df>  ...         1600 b.         0 skpd (  0.0%)     0.012 s. (  0.008 ms/b)
  <sp|ff>  ...          800 b.         0 skpd (  0.0%)     0.017 s. (  0.021 ms/b)
  <sd|sd>  ...         1273 b.         2 skpd (  0.2%)     0.003 s. (  0.002 ms/b)
  <sd|sf>  ...         1993 b.         7 skpd (  0.3%)     0.007 s. (  0.003 ms/b)
  <sd|pp>  ...         1800 b.         0 skpd (  0.0%)     0.006 s. (  0.003 ms/b)
  <sd|pd>  ...         2000 b.         0 skpd (  0.0%)     0.012 s. (  0.006 ms/b)
  <sd|pf>  ...         1600 b.         0 skpd (  0.0%)     0.016 s. (  0.010 ms/b)
  <sd|dd>  ...          750 b.         0 skpd (  0.0%)     0.010 s. (  0.014 ms/b)
  <sd|df>  ...         1000 b.         0 skpd (  0.0%)     0.021 s. (  0.021 ms/b)
  <sd|ff>  ...          500 b.         0 skpd (  0.0%)     0.020 s. (  0.039 ms/b)
  <sf|sf>  ...          813 b.         7 skpd (  0.9%)     0.006 s. (  0.007 ms/b)
  <sf|pp>  ...         1440 b.         0 skpd (  0.0%)     0.010 s. (  0.007 ms/b)
  <sf|pd>  ...         1600 b.         0 skpd (  0.0%)     0.026 s. (  0.016 ms/b)
  <sf|pf>  ...         1280 b.         0 skpd (  0.0%)     0.027 s. (  0.021 ms/b)
  <sf|dd>  ...          600 b.         0 skpd (  0.0%)     0.021 s. (  0.035 ms/b)
  <sf|df>  ...          800 b.         0 skpd (  0.0%)     0.043 s. (  0.054 ms/b)
  <sf|ff>  ...          400 b.         0 skpd (  0.0%)     0.038 s. (  0.094 ms/b)
  <pp|pp>  ...          666 b.         0 skpd (  0.0%)     0.004 s. (  0.005 ms/b)
  <pp|pd>  ...         1440 b.         0 skpd (  0.0%)     0.013 s. (  0.009 ms/b)
  <pp|pf>  ...         1152 b.         0 skpd (  0.0%)     0.023 s. (  0.020 ms/b)
  <pp|dd>  ...          540 b.         0 skpd (  0.0%)     0.011 s. (  0.021 ms/b)
  <pp|df>  ...          720 b.         0 skpd (  0.0%)     0.022 s. (  0.030 ms/b)
  <pp|ff>  ...          360 b.         0 skpd (  0.0%)     0.021 s. (  0.057 ms/b)
  <pd|pd>  ...          820 b.         0 skpd (  0.0%)     0.017 s. (  0.021 ms/b)
  <pd|pf>  ...         1280 b.         0 skpd (  0.0%)     0.045 s. (  0.035 ms/b)
  <pd|dd>  ...          600 b.         0 skpd (  0.0%)     0.026 s. (  0.044 ms/b)
  <pd|df>  ...          800 b.         0 skpd (  0.0%)     0.056 s. (  0.070 ms/b)
  <pd|ff>  ...          400 b.         0 skpd (  0.0%)     0.055 s. (  0.137 ms/b)
  <pf|pf>  ...          528 b.         0 skpd (  0.0%)     0.039 s. (  0.073 ms/b)
  <pf|dd>  ...          480 b.         0 skpd (  0.0%)     0.041 s. (  0.084 ms/b)
  <pf|df>  ...          640 b.         0 skpd (  0.0%)     0.089 s. (  0.139 ms/b)
  <pf|ff>  ...          320 b.         0 skpd (  0.0%)     0.096 s. (  0.301 ms/b)
  <dd|dd>  ...          120 b.         0 skpd (  0.0%)     0.016 s. (  0.130 ms/b)
  <dd|df>  ...          300 b.         0 skpd (  0.0%)     0.054 s. (  0.179 ms/b)
  <dd|ff>  ...          150 b.         0 skpd (  0.0%)     0.055 s. (  0.367 ms/b)
  <df|df>  ...          210 b.         0 skpd (  0.0%)     0.070 s. (  0.335 ms/b)
  <df|ff>  ...          200 b.         0 skpd (  0.0%)     0.121 s. (  0.606 ms/b)
  <ff|ff>  ...           55 b.         0 skpd (  0.0%)     0.081 s. (  1.473 ms/b)


                                      INTEGRAL STATISTICS

Integral type statistics:
 Number of integrals retained            ...    7328078 
 One   Center Integrals retained         ...    7328078 (100.0%)
 Two   Center Integrals retained         ...          0 (  0.0%)
 Three Center Integrals retained         ...          0 (  0.0%)
 Four  Center Integrals retained         ...          0 (  0.0%)

Storage statistics:
 Number of char integrals                ...          0 (  0.0%)
 Number of short int integrals           ...          0 (  0.0%)
 Number of double/float integrals        ...    7328078 (100.0%)
 Amount of memory used                   ...         90 MB
 Amount of memory estimated              ...         86 MB ( 95.3%)

Prescreening statistics:
 Total number of shell quadruples        ...      71631 
 Number of skipped shell quadruples      ...         32 (  0.0%)
 # of negligible batches done            ...          0 (  0.0%)

Timings:
 Total evaluation time               ...     1.678 sec (   0.028 min)
 One electron matrix time            ...     0.089 sec (   0.001 min) =  5.3%
 Schwartz matrix evaluation time     ...     0.146 sec (   0.002 min) =  8.7%
 Statistics run                      ...     0.053 sec (   0.001 min) =  3.2%
 Repulsion integral time             ...     1.310 sec (   0.022 min) = 78.0%

-------------------------------------------------------------------------------
                                 ORCA SCF
-------------------------------------------------------------------------------

------------
SCF SETTINGS
------------
Hamiltonian:
 Ab initio Hamiltonian  Method          .... Hartree-Fock(GTOs)


General Settings:
 Integral files         IntName         .... 69_Tm_atom69
 Hartree-Fock type      HFTyp           .... ROHF
 Total Charge           Charge          ....    0
 Multiplicity           Mult            ....    2
 Number of Electrons    NEL             ....   41
 Basis Dimension        Dim             ....   87
 Nuclear Repulsion      ENuc            ....      0.0000000000 Eh

Convergence Acceleration:
 DIIS                   CNVDIIS         .... on
   Start iteration      DIISMaxIt       ....    12
   Startup error        DIISStart       ....  0.200000
   # of expansion vecs  DIISMaxEq       ....     5
   Bias factor          DIISBfac        ....   1.050
   Max. coefficient     DIISMaxC        ....  10.000
 Newton-Raphson         CNVNR           .... off
 SOSCF                  CNVSOSCF        .... off
 Level Shifting         CNVShift        .... on
   Level shift para.    LevelShift      ....    1.0000
   Turn off err/grad.   ShiftErr        ....    0.0010
 Zerner damping         CNVZerner       .... off
 Static damping         CNVDamp         .... on
   Fraction old density DampFac         ....    0.7000
   Max. Damping (<1)    DampMax         ....    0.9800
   Min. Damping (>=0)   DampMin         ....    0.0000
   Turn off err/grad.   DampErr         ....    0.1000
 Fernandez-Rico         CNVRico         .... off

SCF Procedure:
 Maximum # iterations   MaxIter         ....  1000
 SCF integral mode      SCFMode         .... Conventional
 Integral Threshold     Thresh          ....  1.000e-10 Eh
 Primitive CutOff       TCut            ....  1.000e-11 Eh
 Integral Buffer length BufferLength    .... 1048576
 Integral index format  IndFormat       ....     0
 Integral value format  ValFormat       ....     0
 Integral Storage       Thresh          ....  1.000e-10 Eh

Convergence Tolerance:
 Convergence Check Mode ConvCheckMode   .... Total+1el-Energy
 Convergence forced     ConvForced      .... 0
 Energy Change          TolE            ....  1.000e-06 Eh
 1-El. energy change                    ....  1.000e-03 Eh
 DIIS Error             TolErr          ....  1.000e-06


Diagonalization of the overlap matrix:
Smallest eigenvalue                        ... 1.280e-03
Time for diagonalization                   ...    0.001 sec
Threshold for overlap eigenvalues          ... 1.000e-08
Number of eigenvalues below threshold      ... 0
Time for construction of square roots      ...    0.002 sec
Total time needed                          ...    0.004 sec

--------------------
INITIAL GUESS: HCORE
--------------------
AVERAGE-CONFIGURATION (SAHF) CASE FOUND

-------------------
FINAL ROHF SETTINGS
-------------------
Number of operators             ... 2
  operator   0:  14 orbitals  28 electrons n(mue)= 2.000
  operator   1:   7 orbitals  13 electrons n(mue)= 1.857
Vector coupling coefficients a and b (Zerner convention):
   1.000    1.000           1.000    1.000 
   1.000    0.994           1.000    0.994 

                      -----------------
                      INTIAL GUESS DONE 
                      -----------------

 InCore treatment chosen:
   Memory dedicated               ...    1024 MB
   Memory needed                  ...     90 MB
   Number of tiny    integrals    ...       0
   Number of small   integrals    ...       0
   Number of regular integrals    ... 7328078

--------------
SCF ITERATIONS
--------------
ITER       Energy         Delta-E        Max-DP      RMS-DP      [F,P]     Damp
  0   -770.1924994360   0.000000000000 3.92458314  0.08368825 10.9664305 0.7000
  1   -922.4059689178-152.213469481745 2.74720625  0.05317429  6.4060239 0.7000
  2  -1000.1107575034 -77.704788585647 1.89166302  0.03752342  1.5521757 0.7000
  3  -1042.6386842158 -42.527926712391 1.34316694  0.02607633  0.4860239 0.7000
  4  -1053.4920168470 -10.853332631247 0.94774442  0.01817062  0.2289608 0.7000
  5  -1061.4701345701  -7.978117723056 0.66559518  0.01281749  0.2314633 0.7000
                            ****Activating DIIS****
  6  -1067.3851025326  -5.914967962481 0.46668375  0.00950025  0.1818512 0.7000
  7  -1071.7934378209  -4.408335288354 1.08475478  0.02159700  0.0798869 0.0000
  8  -1081.6158396261  -9.822401805199 0.04101861  0.00078813  0.2424948 0.7000
  9  -1081.4017725243   0.214067101842 0.01650557  0.00027079  0.3330542 0.7000
 10  -1081.4702464735  -0.068473949192 0.02873944  0.00050766  0.3033353 0.7000
 11  -1081.6142907975  -0.144044324029 0.05223016  0.00096662  0.2461197 0.7000
 12  -1081.7546909527  -0.140400155206 0.10042070  0.00204896  0.1825267 0.7000
 13  -1081.9414770486  -0.186786095851 0.23912689  0.00510082  0.0735934 0.0000
 14  -1082.0896159085  -0.148138859887 0.01560671  0.00034376  0.0591378 0.0000
 15  -1082.1009880745  -0.011372166020 0.02027925  0.00033852  0.0598505 0.0000
 16  -1082.1113378327  -0.010349758221 0.04995008  0.00077316  0.0600733 0.0000
 17  -1082.1341922439  -0.022854411172 0.08980883  0.00148146  0.0596518 0.0000
 18  -1082.1735395628  -0.039347318966 0.07372690  0.00132093  0.0555016 0.0000
 19  -1082.2055759964  -0.032036433534 0.09022867  0.00161616  0.0463486 0.0000
 20  -1082.2391868424  -0.033610846071 0.08647112  0.00143943  0.0338466 0.0000
 21  -1082.2613385190  -0.022151676567 0.02800975  0.00042127  0.0263543 0.0000
 22  -1082.2670147050  -0.005676186032 0.03851865  0.00065138  0.0194732 0.0000
 23  -1082.2717901958  -0.004775490800 0.01795372  0.00032449  0.0087042 0.0000
 24  -1082.2728804345  -0.001090238687 0.01513508  0.00019197  0.0064092 0.0000
 25  -1082.2731603948  -0.000279960288 0.02273406  0.00028348  0.0058869 0.0000
 26  -1082.2734642263  -0.000303831519 0.03053502  0.00038251  0.0050659 0.0000
 27  -1082.2737378340  -0.000273607679 0.02270002  0.00030295  0.0042620 0.0000
 28  -1082.2738813100  -0.000143475968 0.01201211  0.00019804  0.0034572 0.0000
 29  -1082.2739578669  -0.000076556928 0.00250816  0.00009118  0.0027142 0.0000
 30  -1082.2740143459  -0.000056478949 0.00335486  0.00006974  0.0021812 0.0000
 31  -1082.2740526046  -0.000038258771 0.00894844  0.00010731  0.0017972 0.0000
 32  -1082.2740966105  -0.000044005887 0.01224790  0.00013951  0.0014140 0.0000
 33  -1082.2741336820  -0.000037071463 0.01107050  0.00012422  0.0010130 0.0000
 34  -1082.2741497996  -0.000016117654 0.00460878  0.00005360  0.0007196 0.0000
 35  -1082.2741527713  -0.000002971707 0.00029747  0.00001008  0.0005792 0.0000
 36  -1082.2741540849  -0.000001313588 0.00142745  0.00001806  0.0005293 0.0000
 37  -1082.2741555525  -0.000001467545 0.00208093  0.00002582  0.0004940 0.0000
 38  -1082.2741572038  -0.000001651330 0.00319787  0.00003977  0.0004467 0.0000
 39  -1082.2741589444  -0.000001740553 0.00317599  0.00004060  0.0003721 0.0000
 40  -1082.2741598403  -0.000000895972 0.00145903  0.00002127  0.0002839 0.0000
                 **** Energy Check signals convergence ****

               *****************************************************
               *                     SUCCESS                       *
               *           SCF CONVERGED AFTER  41 CYCLES          *
               *****************************************************


----------------
TOTAL SCF ENERGY
----------------

Total Energy       :        -1082.27416011 Eh          -29450.17711 eV

Components:
Nuclear Repulsion  :            0.00000000 Eh               0.00000 eV
Electronic Energy  :        -1082.27416011 Eh          -29450.17711 eV
One Electron Energy:        -1972.67251343 Eh          -53679.14809 eV
Two Electron Energy:          890.39835332 Eh           24228.97097 eV

Virial components:
Potential Energy   :        -1752.15825816 Eh          -47678.65014 eV
Kinetic Energy     :          669.88409805 Eh           18228.47303 eV
Virial Ratio       :            2.61561405


---------------
SCF CONVERGENCE
---------------

  Last Energy change         ...   -2.6865e-07  Tolerance :   1.0000e-06
  Last MAX-Density change    ...    3.0487e-04  Tolerance :   1.0000e-05
  Last RMS-Density change    ...    9.4713e-06  Tolerance :   1.0000e-06
  Last DIIS Error            ...    2.1741e-04  Tolerance :   1.0000e-06

             **** THE GBW FILE WAS UPDATED (69_Tm_atom69.gbw) ****
             **** DENSITY FILE WAS UPDATED (69_Tm_atom69.scfp) ****
             **** ENERGY FILE WAS UPDATED (69_Tm_atom69.en.tmp) ****
             **** THE GBW FILE WAS UPDATED (69_Tm_atom69.gbw) ****
             **** DENSITY FILE WAS UPDATED (69_Tm_atom69.scfp) ****
----------------
ORBITAL ENERGIES
----------------

  NO   OCC          E(Eh)            E(eV) 
   0   2.0000     -18.239310      -496.3169 
   1   2.0000     -12.434723      -338.3660 
   2   2.0000     -12.423661      -338.0650 
   3   2.0000     -12.423235      -338.0534 
   4   2.0000      -6.268083      -170.5632 
   5   2.0000      -6.265407      -170.4904 
   6   2.0000      -6.265105      -170.4822 
   7   2.0000      -6.265084      -170.4816 
   8   2.0000      -6.264792      -170.4737 
   9   2.0000      -2.299511       -62.5729 
  10   2.0000      -1.197364       -32.5819 
  11   2.0000      -1.192008       -32.4362 
  12   2.0000      -1.191796       -32.4304 
  13   2.0000      -0.463163       -12.6033 
  14   1.8571      -0.464435       -12.6379 
  15   1.8571      -0.463918       -12.6239 
  16   1.8571      -0.463789       -12.6203 
  17   1.8571      -0.460538       -12.5319 
  18   1.8571      -0.460209       -12.5229 
  19   1.8571      -0.448802       -12.2125 
  20   1.8571      -0.193664        -5.2699 
  21   0.0000       0.018389         0.5004 
  22   0.0000       0.018626         0.5069 
  23   0.0000       0.018637         0.5071 
  24   0.0000       0.101684         2.7670 
  25   0.0000       0.130629         3.5546 
  26   0.0000       0.130800         3.5593 
  27   0.0000       0.130825         3.5599 
  28   0.0000       0.131367         3.5747 
  29   0.0000       0.131368         3.5747 
  30   0.0000       0.186091         5.0638 
  31   0.0000       0.186673         5.0796 
  32   0.0000       0.186698         5.0803 
  33   0.0000       0.472649        12.8614 
  34   0.0000       0.473023        12.8716 
  35   0.0000       0.473073        12.8730 
  36   0.0000       0.474266        12.9054 
  37   0.0000       0.474267        12.9054 
  38   0.0000       0.940190        25.5839 
  39   0.0000       0.942364        25.6430 
  40   0.0000       0.942454        25.6455 
  41   0.0000       0.966805        26.3081 
  42   0.0000       0.967930        26.3387 
  43   0.0000       0.968036        26.3416 
  44   0.0000       0.968070        26.3425 
  45   0.0000       0.968530        26.3551 
  46   0.0000       0.968554        26.3557 
  47   0.0000       0.969779        26.3890 
  48   0.0000       1.470590        40.0168 
  49   0.0000       2.069322        56.3091 
  50   0.0000       2.070110        56.3305 
  51   0.0000       2.070210        56.3333 
  52   0.0000       2.073187        56.4143 
  53   0.0000       2.073205        56.4148 
  54   0.0000       3.114674        84.7546 
  55   0.0000       3.116201        84.7961 
  56   0.0000       3.116526        84.8050 
  57   0.0000       3.116612        84.8073 
  58   0.0000       3.118026        84.8458 
  59   0.0000       3.118102        84.8479 
  60   0.0000       3.121911        84.9515 
  61   0.0000       3.877014       105.4989 
  62   0.0000       3.883303       105.6701 
  63   0.0000       3.883551       105.6768 
  64   0.0000       7.378775       200.7867 
  65   0.0000       7.380217       200.8259 
  66   0.0000       7.380391       200.8306 
  67   0.0000       7.386462       200.9959 
  68   0.0000       7.386525       200.9976 
  69   0.0000       8.674527       236.0459 
  70   0.0000       8.675136       236.0624 
  71   0.0000       8.675297       236.0668 
  72   0.0000       8.676334       236.0951 
  73   0.0000       8.677935       236.1386 
  74   0.0000       8.678065       236.1421 
  75   0.0000       8.684914       236.3285 
  76   0.0000       9.653289       262.6794 
  77   0.0000      15.805558       430.0911 
  78   0.0000      15.816653       430.3930 
  79   0.0000      15.817081       430.4047 
  80   0.0000      25.449311       692.5110 
  81   0.0000      83.100036      2261.2669 
  82   0.0000      90.591480      2465.1195 
  83   0.0000      90.603612      2465.4496 
  84   0.0000      90.604078      2465.4623 
  85   0.0000     300.413254      8174.6602 
  86   0.0000     691.420182     18814.4997 
CleanUpVectors: The p-vectors have cracked symmetry
CleanUpVectors: The p-vectors have cracked symmetry
CleanUpVectors: The p-vectors have cracked symmetry
CleanUpVectors: The d-vectors have cracked symmetry at i=4
CleanUpVectors: The d-vectors have cracked symmetry at i=5
CleanUpVectors: The d-vectors have cracked symmetry at i=6
CleanUpVectors: The d-vectors have cracked symmetry at i=7
CleanUpVectors: The d-vectors have cracked symmetry at i=8
CleanUpVectors: The p-vectors have cracked symmetry
CleanUpVectors: The p-vectors have cracked symmetry
CleanUpVectors: The p-vectors have cracked symmetry
CleanUpVectors: The f-vectors have cracked symmetry
CleanUpVectors: The f-vectors have cracked symmetry
CleanUpVectors: The f-vectors have cracked symmetry
CleanUpVectors: The f-vectors have cracked symmetry
CleanUpVectors: The f-vectors have cracked symmetry
CleanUpVectors: The f-vectors have cracked symmetry
CleanUpVectors: The f-vectors have cracked symmetry
CleanUpVectors: The p-vectors have cracked symmetry
CleanUpVectors: The p-vectors have cracked symmetry
CleanUpVectors: The p-vectors have cracked symmetry
CleanUpVectors: The d-vectors have cracked symmetry at i=25
CleanUpVectors: The d-vectors have cracked symmetry at i=26
CleanUpVectors: The d-vectors have cracked symmetry at i=27
CleanUpVectors: The d-vectors have cracked symmetry at i=28
CleanUpVectors: The d-vectors have cracked symmetry at i=29
CleanUpVectors: The p-vectors have cracked symmetry
CleanUpVectors: The p-vectors have cracked symmetry
CleanUpVectors: The p-vectors have cracked symmetry
CleanUpVectors: The d-vectors have cracked symmetry at i=33
CleanUpVectors: The d-vectors have cracked symmetry at i=34
CleanUpVectors: The d-vectors have cracked symmetry at i=35
CleanUpVectors: The d-vectors have cracked symmetry at i=36
CleanUpVectors: The d-vectors have cracked symmetry at i=37
CleanUpVectors: The p-vectors have cracked symmetry
CleanUpVectors: The p-vectors have cracked symmetry
CleanUpVectors: The p-vectors have cracked symmetry
CleanUpVectors: The f-vectors have cracked symmetry
CleanUpVectors: The f-vectors have cracked symmetry
CleanUpVectors: The f-vectors have cracked symmetry
CleanUpVectors: The f-vectors have cracked symmetry
CleanUpVectors: The f-vectors have cracked symmetry
CleanUpVectors: The f-vectors have cracked symmetry
CleanUpVectors: The f-vectors have cracked symmetry
CleanUpVectors: The d-vectors have cracked symmetry at i=49
CleanUpVectors: The d-vectors have cracked symmetry at i=50
CleanUpVectors: The d-vectors have cracked symmetry at i=51
CleanUpVectors: The d-vectors have cracked symmetry at i=52
CleanUpVectors: The d-vectors have cracked symmetry at i=53
CleanUpVectors: The f-vectors have cracked symmetry
CleanUpVectors: The f-vectors have cracked symmetry
CleanUpVectors: The f-vectors have cracked symmetry
CleanUpVectors: The f-vectors have cracked symmetry
CleanUpVectors: The f-vectors have cracked symmetry
CleanUpVectors: The f-vectors have cracked symmetry
CleanUpVectors: The f-vectors have cracked symmetry
CleanUpVectors: The p-vectors have cracked symmetry
CleanUpVectors: The p-vectors have cracked symmetry
CleanUpVectors: The p-vectors have cracked symmetry
CleanUpVectors: The d-vectors have cracked symmetry at i=64
CleanUpVectors: The d-vectors have cracked symmetry at i=65
CleanUpVectors: The d-vectors have cracked symmetry at i=66
CleanUpVectors: The d-vectors have cracked symmetry at i=67
CleanUpVectors: The d-vectors have cracked symmetry at i=68
CleanUpVectors: The f-vectors have cracked symmetry
CleanUpVectors: The f-vectors have cracked symmetry
CleanUpVectors: The f-vectors have cracked symmetry
CleanUpVectors: The f-vectors have cracked symmetry
CleanUpVectors: The f-vectors have cracked symmetry
CleanUpVectors: The f-vectors have cracked symmetry
CleanUpVectors: The f-vectors have cracked symmetry
CleanUpVectors: The p-vectors have cracked symmetry
CleanUpVectors: The p-vectors have cracked symmetry
CleanUpVectors: The p-vectors have cracked symmetry
CleanUpVectors: The p-vectors have cracked symmetry
CleanUpVectors: The p-vectors have cracked symmetry
CleanUpVectors: The p-vectors have cracked symmetry
--------------------------
ATOM BASIS FOR ELEMENT Tm
--------------------------
 NewGTO Tm
 S 14
    1      91965.740999999995        -0.000055996731
    2      13821.718000000001        -0.000419975485
    3       3143.939300000000        -0.002009882678
    4        882.034800000000        -0.005930653812
    5        261.838200000000        -0.009670435511
    6         55.310800000000         0.193533319948
    7         39.507700000000        -0.609312123428
    8         19.625100000000         1.031289059736
    9          4.819500000000        -0.995289931559
   10          2.395400000000        -0.390319506228
   11          0.892600000000        -0.016017169211
   12          0.376500000000         0.000702327414
   13          0.061500000000         0.000547513711
   14          0.025000000000         0.000791549655
 P 47
    1       1416.211600000000         0.001356828635
    2        364.667740000000         0.007927738581
    3        124.321620000000         0.022968401146
    4         42.452195000000         0.051893236166
    5         14.730545000000        -0.336582533389
    6          5.448124500000         0.433945142109
    7       1416.211600000000        -0.000007313180
    8        364.667740000000        -0.000042729772
    9        124.321620000000        -0.000123797541
   10         42.452195000000        -0.000279699705
   11         14.730545000000         0.001814148473
   12          5.448124500000        -0.002338923856
   13       1416.211600000000         0.000025817756
   14        364.667740000000         0.000150849129
   15        124.321620000000         0.000437043083
   16         42.452195000000         0.000987425279
   17         14.730545000000        -0.006404497514
   18          5.448124500000         0.008257114699
   19         11.991772000000         0.138824484001
   20          9.869823600000         0.184880785250
   21          2.005392900000         0.178602783938
   22         11.991772000000        -0.000748261151
   23          9.869823600000        -0.000996503679
   24          2.005392900000        -0.000962665380
   25         11.991772000000         0.002641554182
   26          9.869823600000         0.003517914113
   27          2.005392900000         0.003398456218
   28          3.569449400000         0.355306161774
   29          3.569449400000        -0.001914901732
   30          3.569449400000         0.006760773988
   31          1.337966900000         0.021087991390
   32          1.337966900000        -0.000113753281
   33          1.337966900000         0.000401261065
   34          0.579294080000         0.004885785121
   35          0.579294080000        -0.000026386407
   36          0.579294080000         0.000092966221
   37          0.236961100000        -0.000385996943
   38          0.236961100000         0.000002114721
   39          0.236961100000        -0.000007344135
   40          0.076512597100         0.000052397304
   41          0.028346699700        -0.000023826100
   42        139.459200000000         0.000697465644
   43         50.468800000000         0.002268103039
   44         22.646900000000         0.003265034245
   45         10.346700000000         0.002557468105
   46          4.713600000000         0.001389344415
   47        139.459200000000        -0.000010357761
 D 47
    1      91965.740999999995        -0.000000000000
    2      13821.718000000001        -0.000000000007
    3       3143.939300000000        -0.000000000153
    4        882.034800000000        -0.000000001610
    5        261.838200000000        -0.000000008841
    6         55.310800000000         0.000000830242
    7         39.507700000000        -0.000003492279
    8         19.625100000000         0.000011241351
    9          4.819500000000        -0.000043244938
   10          2.395400000000        -0.000032807462
   11          0.892600000000         0.000007724573
   12          0.376500000000        -0.000002511581
   13          0.061500000000        -0.000034404401
   14          0.025000000000        -0.000026162837
   15        462.756300000000         0.001582358278
   16        140.268800000000         0.012830039519
   17         54.038900000000         0.051168888619
   18         22.993700000000         0.112161336114
   19          9.174400000000         0.293374199778
   20          4.498500000000         0.444222702811
   21        462.756300000000        -0.000015585783
   22        140.268800000000        -0.000126372272
   23         54.038900000000        -0.000503999127
   24         22.993700000000        -0.001104757539
   25          9.174400000000        -0.002889653157
   26          4.498500000000        -0.004375468383
   27        462.756300000000         0.000051531089
   28        140.268800000000         0.000417823139
   29         54.038900000000         0.001666366313
   30         22.993700000000         0.003652646699
   31          9.174400000000         0.009554025831
   32          4.498500000000         0.014466559025
   33        462.756300000000        -0.000038164292
   34        140.268800000000        -0.000309442798
   35         54.038900000000        -0.001234122781
   36         22.993700000000        -0.002705176206
   37          9.174400000000        -0.007075779697
   38          4.498500000000        -0.010714036830
   39        462.756300000000         0.000019426847
   40        140.268800000000         0.000157516294
   41         54.038900000000         0.000628208017
   42         22.993700000000         0.001377021320
   43          9.174400000000         0.003601798460
   44          4.498500000000         0.005453787853
   45          2.143400000000         0.269042526258
   46          2.143400000000        -0.002649820550
   47          2.143400000000         0.008761628104
 S 14
    1      91965.740999999995        -0.000040324137
    2      13821.718000000001        -0.000302431033
    3       3143.939300000000        -0.001447348513
    4        882.034800000000        -0.004270758225
    5        261.838200000000        -0.006963834562
    6         55.310800000000         0.078739354344
    7         39.507700000000        -0.265540182055
    8         19.625100000000         0.499572280482
    9          4.819500000000        -0.717192368126
   10          2.395400000000        -0.404090998718
   11          0.892600000000         0.758297638657
   12          0.376500000000         0.592871228089
   13          0.061500000000         0.043954269940
   14          0.025000000000         0.012193649494
 S 14
    1      91965.740999999995        -0.000012462208
    2      13821.718000000001        -0.000093466558
    3       3143.939300000000        -0.000447304243
    4        882.034800000000        -0.001319881324
    5        261.838200000000        -0.002152178771
    6         55.310800000000         0.022841834697
    7         39.507700000000        -0.077352356454
    8         19.625100000000         0.146711840567
    9          4.819500000000        -0.221005293695
   10          2.395400000000        -0.127274218456
   11          0.892600000000         0.278138962767
   12          0.376500000000         0.404275222976
   13          0.061500000000        -0.675195299499
   14          0.025000000000        -0.490472378675
 S 14
    1      91965.740999999995        -0.000009495692
    2      13821.718000000001        -0.000071217692
    3       3143.939300000000        -0.000340827524
    4        882.034800000000        -0.001005695544
    5        261.838200000000        -0.001639872131
    6         55.310800000000         0.019595866900
    7         39.507700000000        -0.062837031458
    8         19.625100000000         0.114642962457
    9          4.819500000000        -0.192326068812
   10          2.395400000000        -0.026287108814
   11          0.892600000000         0.050548707209
   12          0.376500000000         0.638901361207
   13          0.061500000000        -2.395635302641
   14          0.025000000000         2.114629695363
 S 14
    1      91965.740999999995        -0.000034751366
    2      13821.718000000001        -0.000260635249
    3       3143.939300000000        -0.001247325836
    4        882.034800000000        -0.003680542054
    5        261.838200000000        -0.006001436892
    6         55.310800000000         0.017433136003
    7         39.507700000000        -0.120545772077
    8         19.625100000000         0.312924622088
    9          4.819500000000        -0.175416872759
   10          2.395400000000        -1.737346317766
   11          0.892600000000         4.414300255967
   12          0.376500000000        -3.611117040410
   13          0.061500000000         1.433313254698
   14          0.025000000000        -0.686082243048
 S 14
    1      91965.740999999995         0.000190616447
    2      13821.718000000001         0.001429623362
    3       3143.939300000000         0.006841768946
    4        882.034800000000         0.020188324183
    5        261.838200000000         0.032918779827
    6         55.310800000000        -0.460967052585
    7         39.507700000000         1.239447622329
    8         19.625100000000        -1.975003369249
    9          4.819500000000         6.191081910003
   10          2.395400000000        -8.139513604451
   11          0.892600000000         5.132766336824
   12          0.376500000000        -2.152502713883
   13          0.061500000000         0.527388676775
   14          0.025000000000        -0.248937436651
 S 14
    1      91965.740999999995         0.003105974765
    2      13821.718000000001         0.023294810870
    3       3143.939300000000         0.111482309143
    4        882.034800000000         0.328956007658
    5        261.838200000000         0.536390751941
    6         55.310800000000         0.278171112746
    7         39.507700000000        -0.316941670730
    8         19.625100000000         0.411533150005
    9          4.819500000000        -0.633313723650
   10          2.395400000000         0.645875214150
   11          0.892600000000        -0.326820731117
   12          0.376500000000         0.128385819022
   13          0.061500000000        -0.031515578752
   14          0.025000000000         0.014958179367
 S 14
    1      91965.740999999995         0.000557565589
    2      13821.718000000001         0.004181741942
    3       3143.939300000000         0.020012622146
    4        882.034800000000         0.059052170111
    5        261.838200000000         0.096289586426
    6         55.310800000000        -4.956349752642
    7         39.507700000000         9.822958494857
    8         19.625100000000        -7.236837114520
    9          4.819500000000         4.599924176572
   10          2.395400000000        -3.815333827650
   11          0.892600000000         1.715411621493
   12          0.376500000000        -0.661243867461
   13          0.061500000000         0.163542087638
   14          0.025000000000        -0.077887769038
 S 14
    1      91965.740999999995        -0.000398791786
    2      13821.718000000001        -0.002990938413
    3       3143.939300000000        -0.014313776687
    4        882.034800000000        -0.042236323141
    5        261.838200000000        -0.068869917562
    6         55.310800000000        -8.209876428343
    7         39.507700000000        13.064754139103
    8         19.625100000000        -5.417153602503
    9          4.819500000000         2.165129622856
   10          2.395400000000        -1.686994418374
   11          0.892600000000         0.743475383419
   12          0.376500000000        -0.287232018279
   13          0.061500000000         0.071531010006
   14          0.025000000000        -0.034120230568
 S 14
    1      91965.740999999995        -0.003940897748
    2      13821.718000000001        -0.029556733276
    3       3143.939300000000        -0.141450080656
    4        882.034800000000        -0.417383297612
    5        261.838200000000        -0.680578969959
    6         55.310800000000        10.601086938660
    7         39.507700000000       -12.901116062006
    8         19.625100000000         4.167394460784
    9          4.819500000000        -1.485988156829
   10          2.395400000000         1.149632771481
   11          0.892600000000        -0.506931491444
   12          0.376500000000         0.196260171460
   13          0.061500000000        -0.048989442169
   14          0.025000000000         0.023377663019
 P 47
    1       1416.211600000000         0.000742701937
    2        364.667740000000         0.004339491849
    3        124.321620000000         0.012572461685
    4         42.452195000000         0.028405360880
    5         14.730545000000        -0.184238814794
    6          5.448124500000         0.237533236982
    7       1416.211600000000        -0.000003746273
    8        364.667740000000        -0.000021888888
    9        124.321620000000        -0.000063416918
   10         42.452195000000        -0.000143279852
   11         14.730545000000         0.000929321415
   12          5.448124500000        -0.001198144506
   13       1416.211600000000         0.000014139168
   14        364.667740000000         0.000082612956
   15        124.321620000000         0.000239347893
   16         42.452195000000         0.000540766274
   17         14.730545000000        -0.003507441356
   18          5.448124500000         0.004522032448
   19         11.991772000000         0.099815039547
   20          9.869823600000         0.132929598291
   21          2.005392900000         0.128415704695
   22         11.991772000000        -0.000503480375
   23          9.869823600000        -0.000670514627
   24          2.005392900000        -0.000647745945
   25         11.991772000000         0.001900226052
   26          9.869823600000         0.002530643547
   27          2.005392900000         0.002444710423
   28          3.569449400000         0.148861463800
   29          3.569449400000        -0.000750644630
   30          3.569449400000         0.002833950111
   31          1.337966900000        -0.362194104206
   32          1.337966900000         0.001826599246
   33          1.337966900000        -0.006895267646
   34          0.579294080000        -0.606015771143
   35          0.579294080000         0.003054473355
   36          0.579294080000        -0.011537052213
   37          0.236961100000        -0.278333542314
   38          0.236961100000         0.001407840802
   39          0.236961100000        -0.005298691539
   40          0.076512597100        -0.008649815495
   41          0.076512597100         0.000049791845
   42          0.076512597100        -0.000164553218
   43          0.028346699700        -0.001893556392
   44          0.028346699700         0.000011922804
   45          0.028346699700        -0.000036001408
   46        139.459200000000         0.002740242424
   47         50.468800000000         0.008911051346
 F 47
    1       1416.211600000000        -0.000000000000
    2        364.667740000000        -0.000000000002
    3        124.321620000000        -0.000000000017
    4         42.452195000000        -0.000000000110
    5         14.730545000000         0.000000002062
    6          5.448124500000        -0.000000007189
    7       1416.211600000000        -0.000000000003
    8        364.667740000000        -0.000000000068
    9        124.321620000000        -0.000000000576
   10         42.452195000000        -0.000000003809
   11         14.730545000000         0.000000071191
   12          5.448124500000        -0.000000248166
   13       1416.211600000000         0.000000000004
   14        364.667740000000         0.000000000086
   15        124.321620000000         0.000000000731
   16         42.452195000000         0.000000004839
   17         14.730545000000        -0.000000090447
   18          5.448124500000         0.000000315291
   19         11.991772000000        -0.000000000951
   20          9.869823600000        -0.000000001538
   21          2.005392900000        -0.000000007313
   22         11.991772000000        -0.000000033419
   23          9.869823600000        -0.000000054075
   24          2.005392900000        -0.000000257102
   25         11.991772000000         0.000000032390
   26          9.869823600000         0.000000052409
   27          2.005392900000         0.000000249180
   28          3.569449400000        -0.000000007709
   29          3.569449400000        -0.000000260197
   30          3.569449400000         0.000000406688
   31          1.337966900000        -0.000000025488
   32          1.337966900000        -0.000000901537
   33          1.337966900000         0.000002819283
   34          0.579294080000        -0.000000070655
   35          0.579294080000         0.000004972511
   36          0.236961100000        -0.000006658601
   37          0.236961100000         0.000006022548
   38          0.076512597100        -0.000010431866
   39          0.076512597100        -0.000022691729
   40          0.028346699700        -0.000342803704
   41        139.459200000000         0.000008769098
   42         50.468800000000         0.000078798708
   43         22.646900000000         0.000252789058
   44         10.346700000000         0.000433398759
   45          4.713600000000         0.000516816640
   46        139.459200000000         0.000097972686
   47         50.468800000000         0.000880377973
 P 47
    1       1416.211600000000         0.000107626601
    2        364.667740000000         0.000628845483
    3        124.321620000000         0.001821903581
    4         42.452195000000         0.004116284464
    5         14.730545000000        -0.026698459285
    6          5.448124500000         0.034421473366
    7       1416.211600000000        -0.000000848663
    8        364.667740000000        -0.000004958608
    9        124.321620000000        -0.000014366178
   10         42.452195000000        -0.000032457961
   11         14.730545000000         0.000210524211
   12          5.448124500000        -0.000271422161
   13       1416.211600000000         0.000002040013
   14        364.667740000000         0.000011919479
   15        124.321620000000         0.000034533349
   16         42.452195000000         0.000078022290
   17         14.730545000000        -0.000506057090
   18          5.448124500000         0.000652443291
   19         11.991772000000         0.014804971306
   20          9.869823600000         0.019716656901
   21          2.005392900000         0.019047137904
   22         11.991772000000        -0.000116719010
   23          9.869823600000        -0.000155441617
   24          2.005392900000        -0.000150163283
   25         11.991772000000         0.000280621882
   26          9.869823600000         0.000373720776
   27          2.005392900000         0.000361030331
   28          3.569449400000         0.015388615912
   29          3.569449400000        -0.000121448596
   30          3.569449400000         0.000291682329
   31          1.337966900000        -0.043444923280
   32          1.337966900000         0.000341885291
   33          1.337966900000        -0.000823492565
   34          0.579294080000        -0.140013497912
   35          0.579294080000         0.001102194938
   36          0.579294080000        -0.002653926007
   37          0.236961100000         0.004429268630
   38          0.236961100000        -0.000033725308
   39          0.236961100000         0.000083976375
   40          0.076512597100        -0.069538060387
   41          0.076512597100         0.000565189487
   42          0.076512597100        -0.001317726062
   43          0.028346699700         1.052183793660
   44          0.028346699700        -0.008278493156
   45          0.028346699700         0.019943973874
   46        139.459200000000         0.000809417088
   47         50.468800000000         0.002632160266
 D 47
    1      91965.740999999995        -0.000000000000
    2      13821.718000000001        -0.000000000002
    3       3143.939300000000        -0.000000000039
    4        882.034800000000        -0.000000000410
    5        261.838200000000        -0.000000002255
    6         55.310800000000         0.000000145523
    7         39.507700000000        -0.000000651290
    8         19.625100000000         0.000002276052
    9          4.819500000000        -0.000010529310
   10          2.395400000000        -0.000010093940
   11          0.892600000000        -0.000010694582
   12          0.376500000000        -0.000045575965
   13          0.061500000000         0.009869213577
   14          0.025000000000        -0.015532146282
   15        462.756300000000         0.000234311774
   16        140.268800000000         0.001899841115
   17         54.038900000000         0.007576964845
   18         22.993700000000         0.016608578447
   19          9.174400000000         0.043442139513
   20          4.498500000000         0.065779419748
   21        462.756300000000        -0.000004249531
   22        140.268800000000        -0.000034455943
   23         54.038900000000        -0.000137417529
   24         22.993700000000        -0.000301216893
   25          9.174400000000        -0.000787876358
   26          4.498500000000        -0.001192990268
   27        462.756300000000         0.000007725211
   28        140.268800000000         0.000062637371
   29         54.038900000000         0.000249810972
   30         22.993700000000         0.000547581415
   31          9.174400000000         0.001432278404
   32          4.498500000000         0.002168733939
   33        462.756300000000         0.000005154017
   34        140.268800000000         0.000041789680
   35         54.038900000000         0.000166666009
   36         22.993700000000         0.000365329065
   37          9.174400000000         0.000955571017
   38          4.498500000000         0.001446910943
   39        462.756300000000        -0.000001889796
   40        140.268800000000        -0.000015322800
   41         54.038900000000        -0.000061110539
   42         22.993700000000        -0.000133953264
   43          9.174400000000        -0.000350374140
   44          4.498500000000        -0.000530531136
   45          2.143400000000         0.007290394114
   46          2.143400000000        -0.000132713706
   47          2.143400000000         0.000240394970
 P 47
    1       1416.211600000000         0.000193148535
    2        364.667740000000         0.001128536835
    3        124.321620000000         0.003269619257
    4         42.452195000000         0.007387154343
    5         14.730545000000        -0.047913510646
    6          5.448124500000         0.061773363510
    7       1416.211600000000        -0.000001511957
    8        364.667740000000        -0.000008834130
    9        124.321620000000        -0.000025594417
   10         42.452195000000        -0.000057826277
   11         14.730545000000         0.000375064582
   12          5.448124500000        -0.000483558822
   13       1416.211600000000         0.000003661301
   14        364.667740000000         0.000021392415
   15        124.321620000000         0.000061978527
   16         42.452195000000         0.000140030049
   17         14.730545000000        -0.000908243003
   18          5.448124500000         0.001170968781
   19         11.991772000000         0.026211464952
   20          9.869823600000         0.034907359878
   21          2.005392900000         0.033722009811
   22         11.991772000000        -0.000205161729
   23          9.869823600000        -0.000273226022
   24          2.005392900000        -0.000263948079
   25         11.991772000000         0.000496861916
   26          9.869823600000         0.000661700433
   27          2.005392900000         0.000639231056
   28          3.569449400000         0.062476660972
   29          3.569449400000        -0.000488576401
   30          3.569449400000         0.001184309324
   31          1.337966900000        -0.177284831283
   32          1.337966900000         0.001384907933
   33          1.337966900000        -0.003360645290
   34          0.579294080000        -0.039247406855
   35          0.579294080000         0.000308540300
   36          0.579294080000        -0.000743946080
   37          0.236961100000        -0.582228375465
   38          0.236961100000         0.004555016447
   39          0.236961100000        -0.011036694059
   40          0.076512597100         1.959120825036
   41          0.076512597100        -0.015295049751
   42          0.076512597100         0.037137627774
   43          0.028346699700        -1.248500675674
   44          0.028346699700         0.009734526472
   45          0.028346699700        -0.023667168495
   46        139.459200000000         0.001230602109
   47         50.468800000000         0.004001820598
 D 47
    1      91965.740999999995        -0.000000000000
    2      13821.718000000001        -0.000000000007
    3       3143.939300000000        -0.000000000149
    4        882.034800000000        -0.000000001562
    5        261.838200000000        -0.000000008580
    6         55.310800000000         0.000000525236
    7         39.507700000000        -0.000002335404
    8         19.625100000000         0.000008301962
    9          4.819500000000        -0.000047473834
   10          2.395400000000        -0.000024768415
   11          0.892600000000        -0.000023527195
   12          0.376500000000         0.001416325726
   13          0.061500000000        -0.008041223706
   14          0.025000000000         0.009587416712
   15        462.756300000000         0.000465719804
   16        140.268800000000         0.003776138168
   17         54.038900000000         0.015060031032
   18         22.993700000000         0.033011332630
   19          9.174400000000         0.086345915888
   20          4.498500000000         0.130743658310
   21        462.756300000000        -0.000005717486
   22        140.268800000000        -0.000046358383
   23         54.038900000000        -0.000184886956
   24         22.993700000000        -0.000405269073
   25          9.174400000000        -0.001060039886
   26          4.498500000000        -0.001605096097
   27        462.756300000000         0.000015450258
   28        140.268800000000         0.000125273414
   29         54.038900000000         0.000499616651
   30         22.993700000000         0.001095151227
   31          9.174400000000         0.002864526459
   32          4.498500000000         0.004337421923
   33        462.756300000000         0.000008788484
   34        140.268800000000         0.000071258579
   35         54.038900000000         0.000284194160
   36         22.993700000000         0.000622948779
   37          9.174400000000         0.001629412646
   38          4.498500000000         0.002467231577
   39        462.756300000000        -0.000003750378
   40        140.268800000000        -0.000030408728
   41         54.038900000000        -0.000121276384
   42         22.993700000000        -0.000265835777
   43          9.174400000000        -0.000695331929
   44          4.498500000000        -0.001052860917
   45          2.143400000000        -0.043103102739
   46          2.143400000000         0.000529253792
   47          2.143400000000        -0.001429921387
 P 47
    1       1416.211600000000         0.000593331414
    2        364.667740000000         0.003466743124
    3        124.321620000000         0.010043916804
    4         42.452195000000         0.022692539347
    5         14.730545000000        -0.147185123664
    6          5.448124500000         0.189761092953
    7       1416.211600000000        -0.000004131414
    8        364.667740000000        -0.000024139209
    9        124.321620000000        -0.000069936595
   10         42.452195000000        -0.000158009963
   11         14.730545000000         0.001024861769
   12          5.448124500000        -0.001321321643
   13       1416.211600000000         0.000011262063
   14        364.667740000000         0.000065802479
   15        124.321620000000         0.000190644246
   16         42.452195000000         0.000430728582
   17         14.730545000000        -0.002793730514
   18          5.448124500000         0.003601867787
   19         11.991772000000         0.084693153504
   20          9.869823600000         0.112790887268
   21          2.005392900000         0.108960844372
   22         11.991772000000        -0.000589698585
   23          9.869823600000        -0.000785336522
   24          2.005392900000        -0.000758668831
   25         11.991772000000         0.001607566846
   26          9.869823600000         0.002140891954
   27          2.005392900000         0.002068193634
   28          3.569449400000        -0.046041580690
   29          3.569449400000         0.000320974121
   30          3.569449400000        -0.000873910455
   31          1.337966900000         0.110448901504
   32          1.337966900000        -0.000772440411
   33          1.337966900000         0.002096369793
   34          0.579294080000        -1.928580353585
   35          0.579294080000         0.013429345724
   36          0.579294080000        -0.036606494452
   37          0.236961100000         2.755556245400
   38          0.236961100000        -0.019174416031
   39          0.236961100000         0.052303633940
   40          0.076512597100        -1.617921491729
   41          0.076512597100         0.011253967039
   42          0.076512597100        -0.030710099589
   43          0.028346699700         0.579453095555
   44          0.028346699700        -0.004030700997
   45          0.028346699700         0.010998715385
   46        139.459200000000        -0.005096777888
   47         50.468800000000        -0.016574318044
 F 47
    1       1416.211600000000         0.000000000001
    2        364.667740000000         0.000000000028
    3        124.321620000000         0.000000000238
    4         42.452195000000         0.000000001572
    5         14.730545000000        -0.000000029392
    6          5.448124500000         0.000000102457
    7       1416.211600000000         0.000000000040
    8        364.667740000000         0.000000000916
    9        124.321620000000         0.000000007788
   10         42.452195000000         0.000000051527
   11         14.730545000000        -0.000000963155
   12          5.448124500000         0.000003357463
   13       1416.211600000000        -0.000000000092
   14        364.667740000000        -0.000000002087
   15        124.321620000000        -0.000000017738
   16         42.452195000000        -0.000000117362
   17         14.730545000000         0.000002193768
   18          5.448124500000        -0.000007647257
   19         11.991772000000         0.000000020945
   20          9.869823600000         0.000000033890
   21          2.005392900000         0.000000161131
   22         11.991772000000         0.000000688142
   23          9.869823600000         0.000001113468
   24          2.005392900000         0.000005294001
   25         11.991772000000        -0.000001564301
   26          9.869823600000        -0.000002531162
   27          2.005392900000        -0.000012034451
   28          3.569449400000        -0.000000049192
   29          3.569449400000        -0.000001681969
   30          3.569449400000         0.000003604881
   31          1.337966900000         0.000000301233
   32          1.337966900000         0.000010022054
   33          1.337966900000        -0.000021533193
   34          0.579294080000        -0.000010377268
   35          0.579294080000        -0.000342609501
   36          0.579294080000         0.000770069079
   37          0.236961100000         0.000036562017
   38          0.236961100000         0.001208949079
   39          0.236961100000        -0.002717419882
   40          0.076512597100        -0.000065502887
   41          0.076512597100        -0.002158094871
   42          0.076512597100         0.004858638860
   43          0.028346699700         0.000062930968
   44          0.028346699700         0.002080096451
   45          0.028346699700        -0.004665663189
   46        139.459200000000         0.000003371342
   47         50.468800000000         0.000030294718
 D 47
    1      91965.740999999995        -0.000000000000
    2      13821.718000000001        -0.000000000023
    3       3143.939300000000        -0.000000000492
    4        882.034800000000        -0.000000005177
    5        261.838200000000        -0.000000028437
    6         55.310800000000         0.000000763545
    7         39.507700000000        -0.000004831236
    8         19.625100000000         0.000021525474
    9          4.819500000000        -0.000073286114
   10          2.395400000000        -0.000653160027
   11          0.892600000000         0.004230749155
   12          0.376500000000        -0.006989516042
   13          0.061500000000         0.013487402066
   14          0.025000000000        -0.015952674290
   15        462.756300000000         0.000772250621
   16        140.268800000000         0.006261544000
   17         54.038900000000         0.024972350788
   18         22.993700000000         0.054738969438
   19          9.174400000000         0.143177693061
   20          4.498500000000         0.216797461542
   21        462.756300000000        -0.000007568756
   22        140.268800000000        -0.000061368808
   23         54.038900000000        -0.000244751679
   24         22.993700000000        -0.000536491529
   25          9.174400000000        -0.001403271203
   26          4.498500000000        -0.002124811681
   27        462.756300000000         0.000025667609
   28        140.268800000000         0.000208117497
   29         54.038900000000         0.000830016228
   30         22.993700000000         0.001819381496
   31          9.174400000000         0.004758855493
   32          4.498500000000         0.007205785822
   33        462.756300000000         0.000013697260
   34        140.268800000000         0.000111059796
   35         54.038900000000         0.000442929762
   36         22.993700000000         0.000970894528
   37          9.174400000000         0.002539515087
   38          4.498500000000         0.003845294700
   39        462.756300000000        -0.000006911663
   40        140.268800000000        -0.000056040984
   41         54.038900000000        -0.000223503198
   42         22.993700000000        -0.000489915220
   43          9.174400000000        -0.001281444129
   44          4.498500000000        -0.001940342999
   45          2.143400000000         0.181890236435
   46          2.143400000000        -0.001782943606
   47          2.143400000000         0.006045639626
 F 47
    1       1416.211600000000        -0.000000000000
    2        364.667740000000        -0.000000000007
    3        124.321620000000        -0.000000000056
    4         42.452195000000        -0.000000000374
    5         14.730545000000         0.000000006985
    6          5.448124500000        -0.000000024348
    7       1416.211600000000        -0.000000000011
    8        364.667740000000        -0.000000000243
    9        124.321620000000        -0.000000002066
   10         42.452195000000        -0.000000013668
   11         14.730545000000         0.000000255489
   12          5.448124500000        -0.000000890608
   13       1416.211600000000         0.000000000021
   14        364.667740000000         0.000000000483
   15        124.321620000000         0.000000004102
   16         42.452195000000         0.000000027139
   17         14.730545000000        -0.000000507285
   18          5.448124500000         0.000001768345
   19         11.991772000000        -0.000000004906
   20          9.869823600000        -0.000000007939
   21          2.005392900000        -0.000000037746
   22         11.991772000000        -0.000000176616
   23          9.869823600000        -0.000000285779
   24          2.005392900000        -0.000001358743
   25         11.991772000000         0.000000349509
   26          9.869823600000         0.000000565534
   27          2.005392900000         0.000002688840
   28          3.569449400000         0.000000012375
   29          3.569449400000         0.000000613760
   30          3.569449400000        -0.000000821998
   31          1.337966900000        -0.000002369137
   32          1.337966900000         0.000001656381
   33          0.579294080000         0.000000814709
   34          0.579294080000         0.000037512942
   35          0.579294080000        -0.000066741760
   36          0.236961100000        -0.000001418937
   37          0.236961100000        -0.000062490279
   38          0.236961100000         0.000114130134
   39          0.076512597100         0.000072211010
   40          0.076512597100        -0.000126692364
   41          0.028346699700        -0.000065729389
   42          0.028346699700         0.000114476005
   43        139.459200000000         0.000009119629
   44         50.468800000000         0.000081948560
   45         22.646900000000         0.000262893898
   46         10.346700000000         0.000450723182
   47          4.713600000000         0.000537475561
 P 47
    1       1416.211600000000         0.000780850232
    2        364.667740000000         0.004562386398
    3        124.321620000000         0.013218236184
    4         42.452195000000         0.029864379659
    5         14.730545000000        -0.193702095041
    6          5.448124500000         0.249733942855
    7       1416.211600000000        -0.000004308488
    8        364.667740000000        -0.000025173824
    9        124.321620000000        -0.000072934102
   10         42.452195000000        -0.000164782328
   11         14.730545000000         0.001068787714
   12          5.448124500000        -0.001377953965
   13       1416.211600000000         0.000014854751
   14        364.667740000000         0.000086793996
   15        124.321620000000         0.000251461284
   16         42.452195000000         0.000568134443
   17         14.730545000000        -0.003684952880
   18          5.448124500000         0.004750892404
   19         11.991772000000         0.108753386494
   20          9.869823600000         0.144833324166
   21          2.005392900000         0.139915215462
   22         11.991772000000        -0.000600073828
   23          9.869823600000        -0.000799153848
   24          2.005392900000        -0.000772016961
   25         11.991772000000         0.002068904269
   26          9.869823600000         0.002755282317
   27          2.005392900000         0.002661721128
   28          3.569449400000         0.870469609546
   29          3.569449400000        -0.004803259105
   30          3.569449400000         0.016559645946
   31          1.337966900000        -3.401655318003
   32          1.337966900000         0.018768750210
   33          1.337966900000        -0.064712469333
   34          0.579294080000         3.690262564425
   35          0.579294080000        -0.020359251319
   36          0.579294080000         0.070202918500
   37          0.236961100000        -1.990814116652
   38          0.236961100000         0.010982536298
   39          0.236961100000        -0.037872920647
   40          0.076512597100         0.749500078080
   41          0.076512597100        -0.004134670142
   42          0.076512597100         0.014258366830
   43          0.028346699700        -0.252190327204
   44          0.028346699700         0.001391305343
   45          0.028346699700        -0.004797625951
   46        139.459200000000         0.002696626356
   47         50.468800000000         0.008769215346
 D 47
    1      91965.740999999995         0.000000000001
    2      13821.718000000001         0.000000000050
    3       3143.939300000000         0.000000001054
    4        882.034800000000         0.000000011089
    5        261.838200000000         0.000000060909
    6         55.310800000000        -0.000004606908
    7         39.507700000000         0.000017006256
    8         19.625100000000        -0.000054172065
    9          4.819500000000         0.000754872242
   10          2.395400000000        -0.002199194704
   11          0.892600000000         0.004352775619
   12          0.376500000000        -0.004731655685
   13          0.061500000000         0.007411354520
   14          0.025000000000        -0.008720155647
   15        462.756300000000         0.002181793001
   16        140.268800000000         0.017690361786
   17         54.038900000000         0.070552873238
   18         22.993700000000         0.154650701681
   19          9.174400000000         0.404511281894
   20          4.498500000000         0.612504763871
   21        462.756300000000        -0.000020230477
   22        140.268800000000        -0.000164032269
   23         54.038900000000        -0.000654195093
   24         22.993700000000        -0.001433984549
   25          9.174400000000        -0.003750794028
   26          4.498500000000        -0.005679394650
   27        462.756300000000         0.000072507276
   28        140.268800000000         0.000587901760
   29         54.038900000000         0.002344675526
   30         22.993700000000         0.005139488992
   31          9.174400000000         0.013443076933
   32          4.498500000000         0.020355300411
   33        462.756300000000         0.000038204694
   34        140.268800000000         0.000309770389
   35         54.038900000000         0.001235429282
   36         22.993700000000         0.002708040036
   37          9.174400000000         0.007083270457
   38          4.498500000000         0.010725379225
   39        462.756300000000        -0.000020720372
   40        140.268800000000        -0.000168004428
   41         54.038900000000        -0.000670036896
   42         22.993700000000        -0.001468709513
   43          9.174400000000        -0.003841622194
   44          4.498500000000        -0.005816925263
   45          2.143400000000        -2.180929916046
   46          2.143400000000         0.020222560378
   47          2.143400000000        -0.072478524087
 F 47
    1       1416.211600000000         0.000000000000
    2        364.667740000000         0.000000000009
    3        124.321620000000         0.000000000072
    4         42.452195000000         0.000000000479
    5         14.730545000000        -0.000000008953
    6          5.448124500000         0.000000031210
    7       1416.211600000000        -0.000000000000
    8        364.667740000000        -0.000000000001
[...]
  BAS[ATNO][ 25].a[  8] =       124.321620000000;     BAS[ATNO][ 25].d[  8] =         0.000534859815;
  BAS[ATNO][ 25].a[  9] =        42.452195000000;     BAS[ATNO][ 25].d[  9] =         0.001208425720;
  BAS[ATNO][ 25].a[ 10] =        14.730545000000;     BAS[ATNO][ 25].d[ 10] =        -0.007837919162;
  BAS[ATNO][ 25].a[ 11] =         5.448124500000;     BAS[ATNO][ 25].d[ 11] =         0.010105179584;
  BAS[ATNO][ 25].a[ 12] =      1416.211600000000;     BAS[ATNO][ 25].d[ 12] =        -0.000111362561;
  BAS[ATNO][ 25].a[ 13] =       364.667740000000;     BAS[ATNO][ 25].d[ 13] =        -0.000650674115;
  BAS[ATNO][ 25].a[ 14] =       124.321620000000;     BAS[ATNO][ 25].d[ 14] =        -0.001885145927;
  BAS[ATNO][ 25].a[ 15] =        42.452195000000;     BAS[ATNO][ 25].d[ 15] =        -0.004259169899;
  BAS[ATNO][ 25].a[ 16] =        14.730545000000;     BAS[ATNO][ 25].d[ 16] =         0.027625222487;
  BAS[ATNO][ 25].a[ 17] =         5.448124500000;     BAS[ATNO][ 25].d[ 17] =        -0.035616319650;
  BAS[ATNO][ 25].a[ 18] =        11.991772000000;     BAS[ATNO][ 25].d[ 18] =        -1.110574342723;
  BAS[ATNO][ 25].a[ 19] =         9.869823600000;     BAS[ATNO][ 25].d[ 19] =        -1.479017610170;
  BAS[ATNO][ 25].a[ 20] =         2.005392900000;     BAS[ATNO][ 25].d[ 20] =        -1.428794573287;
  BAS[ATNO][ 25].a[ 21] =        11.991772000000;     BAS[ATNO][ 25].d[ 21] =         0.005995601038;
  BAS[ATNO][ 25].a[ 22] =         9.869823600000;     BAS[ATNO][ 25].d[ 22] =         0.007984696906;
  BAS[ATNO][ 25].a[ 23] =         2.005392900000;     BAS[ATNO][ 25].d[ 23] =         0.007713560360;
  BAS[ATNO][ 25].a[ 24] =        11.991772000000;     BAS[ATNO][ 25].d[ 24] =        -0.021131676521;
  BAS[ATNO][ 25].a[ 25] =         9.869823600000;     BAS[ATNO][ 25].d[ 25] =        -0.028142304846;
  BAS[ATNO][ 25].a[ 26] =         2.005392900000;     BAS[ATNO][ 25].d[ 26] =        -0.027186675917;
  BAS[ATNO][ 25].a[ 27] =         3.569449400000;     BAS[ATNO][ 25].d[ 27] =         5.108895911833;
  BAS[ATNO][ 25].a[ 28] =         3.569449400000;     BAS[ATNO][ 25].d[ 28] =        -0.027581122544;
  BAS[ATNO][ 25].a[ 29] =         3.569449400000;     BAS[ATNO][ 25].d[ 29] =         0.097210544242;
  BAS[ATNO][ 25].a[ 30] =         1.337966900000;     BAS[ATNO][ 25].d[ 30] =        -1.981044826604;
  BAS[ATNO][ 25].a[ 31] =         1.337966900000;     BAS[ATNO][ 25].d[ 31] =         0.010694885143;
  BAS[ATNO][ 25].a[ 32] =         1.337966900000;     BAS[ATNO][ 25].d[ 32] =        -0.037694730617;
  BAS[ATNO][ 25].a[ 33] =         0.579294080000;     BAS[ATNO][ 25].d[ 33] =         1.659434990055;
  BAS[ATNO][ 25].a[ 34] =         0.579294080000;     BAS[ATNO][ 25].d[ 34] =        -0.008958487696;
  BAS[ATNO][ 25].a[ 35] =         0.579294080000;     BAS[ATNO][ 25].d[ 35] =         0.031575237351;
  BAS[ATNO][ 25].a[ 36] =         0.236961100000;     BAS[ATNO][ 25].d[ 36] =        -0.755579356735;
  BAS[ATNO][ 25].a[ 37] =         0.236961100000;     BAS[ATNO][ 25].d[ 37] =         0.004078964584;
  BAS[ATNO][ 25].a[ 38] =         0.236961100000;     BAS[ATNO][ 25].d[ 38] =        -0.014376940970;
  BAS[ATNO][ 25].a[ 39] =         0.076512597100;     BAS[ATNO][ 25].d[ 39] =         0.278704816197;
  BAS[ATNO][ 25].a[ 40] =         0.076512597100;     BAS[ATNO][ 25].d[ 40] =        -0.001504584689;
  BAS[ATNO][ 25].a[ 41] =         0.076512597100;     BAS[ATNO][ 25].d[ 41] =         0.005303112813;
  BAS[ATNO][ 25].a[ 42] =         0.028346699700;     BAS[ATNO][ 25].d[ 42] =        -0.095545290226;
  BAS[ATNO][ 25].a[ 43] =         0.028346699700;     BAS[ATNO][ 25].d[ 43] =         0.000515806694;
  BAS[ATNO][ 25].a[ 44] =         0.028346699700;     BAS[ATNO][ 25].d[ 44] =        -0.001818007394;
  BAS[ATNO][ 25].a[ 45] =       139.459200000000;     BAS[ATNO][ 25].d[ 45] =         0.000746730719;
  BAS[ATNO][ 25].a[ 46] =        50.468800000000;     BAS[ATNO][ 25].d[ 46] =         0.002428309159;

  // Basis function  27 L = p
  InitBFNGauss(BAS[ATNO][ 26]);
  BAS[ATNO][ 26].l  = 1;
  BAS[ATNO][ 26].ng = 47;
  BAS[ATNO][ 26].a[  0] =      1416.211600000000;     BAS[ATNO][ 26].d[  0] =        -0.018821556124;
  BAS[ATNO][ 26].a[  1] =       364.667740000000;     BAS[ATNO][ 26].d[  1] =        -0.109971423625;
  BAS[ATNO][ 26].a[  2] =       124.321620000000;     BAS[ATNO][ 26].d[  2] =        -0.318611385419;
  BAS[ATNO][ 26].a[  3] =        42.452195000000;     BAS[ATNO][ 26].d[  3] =        -0.719848794148;
  BAS[ATNO][ 26].a[  4] =        14.730545000000;     BAS[ATNO][ 26].d[  4] =         4.668980944210;
  BAS[ATNO][ 26].a[  5] =         5.448124500000;     BAS[ATNO][ 26].d[  5] =        -6.019568451576;
  BAS[ATNO][ 26].a[  6] =      1416.211600000000;     BAS[ATNO][ 26].d[  6] =         0.000104553961;
  BAS[ATNO][ 26].a[  7] =       364.667740000000;     BAS[ATNO][ 26].d[  7] =         0.000610892523;
  BAS[ATNO][ 26].a[  8] =       124.321620000000;     BAS[ATNO][ 26].d[  8] =         0.001769889911;
  BAS[ATNO][ 26].a[  9] =        42.452195000000;     BAS[ATNO][ 26].d[  9] =         0.003998768332;
  BAS[ATNO][ 26].a[ 10] =        14.730545000000;     BAS[ATNO][ 26].d[ 10] =        -0.025936242854;
  BAS[ATNO][ 26].a[ 11] =         5.448124500000;     BAS[ATNO][ 26].d[ 11] =         0.033438771994;
  BAS[ATNO][ 26].a[ 12] =      1416.211600000000;     BAS[ATNO][ 26].d[ 12] =        -0.000358048851;
  BAS[ATNO][ 26].a[ 13] =       364.667740000000;     BAS[ATNO][ 26].d[ 13] =        -0.002092023719;
  BAS[ATNO][ 26].a[ 14] =       124.321620000000;     BAS[ATNO][ 26].d[ 14] =        -0.006061052531;
  BAS[ATNO][ 26].a[ 15] =        42.452195000000;     BAS[ATNO][ 26].d[ 15] =        -0.013693927949;
  BAS[ATNO][ 26].a[ 16] =        14.730545000000;     BAS[ATNO][ 26].d[ 16] =         0.088819609291;
  BAS[ATNO][ 26].a[ 17] =         5.448124500000;     BAS[ATNO][ 26].d[ 17] =        -0.114512293873;
  BAS[ATNO][ 26].a[ 18] =        11.991772000000;     BAS[ATNO][ 26].d[ 18] =        -1.102330424752;
  BAS[ATNO][ 26].a[ 19] =         9.869823600000;     BAS[ATNO][ 26].d[ 19] =        -1.468038696480;
  BAS[ATNO][ 26].a[ 20] =         2.005392900000;     BAS[ATNO][ 26].d[ 20] =        -1.418188470835;
  BAS[ATNO][ 26].a[ 21] =        11.991772000000;     BAS[ATNO][ 26].d[ 21] =         0.006123470922;
  BAS[ATNO][ 26].a[ 22] =         9.869823600000;     BAS[ATNO][ 26].d[ 22] =         0.008154988803;
  BAS[ATNO][ 26].a[ 23] =         2.005392900000;     BAS[ATNO][ 26].d[ 23] =         0.007878069650;
  BAS[ATNO][ 26].a[ 24] =        11.991772000000;     BAS[ATNO][ 26].d[ 24] =        -0.020970005608;
  BAS[ATNO][ 26].a[ 25] =         9.869823600000;     BAS[ATNO][ 26].d[ 25] =        -0.027926998118;
  BAS[ATNO][ 26].a[ 26] =         2.005392900000;     BAS[ATNO][ 26].d[ 26] =        -0.026978680365;
  BAS[ATNO][ 26].a[ 27] =         3.569449400000;     BAS[ATNO][ 26].d[ 27] =         7.082576177922;
  BAS[ATNO][ 26].a[ 28] =         3.569449400000;     BAS[ATNO][ 26].d[ 28] =        -0.039343812411;
  BAS[ATNO][ 26].a[ 29] =         3.569449400000;     BAS[ATNO][ 26].d[ 29] =         0.134734250335;
  BAS[ATNO][ 26].a[ 30] =         1.337966900000;     BAS[ATNO][ 26].d[ 30] =        -1.448811704610;
  BAS[ATNO][ 26].a[ 31] =         1.337966900000;     BAS[ATNO][ 26].d[ 31] =         0.008048127118;
  BAS[ATNO][ 26].a[ 32] =         1.337966900000;     BAS[ATNO][ 26].d[ 32] =        -0.027561237574;
  BAS[ATNO][ 26].a[ 33] =         0.579294080000;     BAS[ATNO][ 26].d[ 33] =         1.131099561349;
  BAS[ATNO][ 26].a[ 34] =         0.579294080000;     BAS[ATNO][ 26].d[ 34] =        -0.006283228557;
  BAS[ATNO][ 26].a[ 35] =         0.579294080000;     BAS[ATNO][ 26].d[ 35] =         0.021517291705;
  BAS[ATNO][ 26].a[ 36] =         0.236961100000;     BAS[ATNO][ 26].d[ 36] =        -0.513093222342;
  BAS[ATNO][ 26].a[ 37] =         0.236961100000;     BAS[ATNO][ 26].d[ 37] =         0.002850214652;
  BAS[ATNO][ 26].a[ 38] =         0.236961100000;     BAS[ATNO][ 26].d[ 38] =        -0.009760746991;
  BAS[ATNO][ 26].a[ 39] =         0.076512597100;     BAS[ATNO][ 26].d[ 39] =         0.192524687336;
  BAS[ATNO][ 26].a[ 40] =         0.076512597100;     BAS[ATNO][ 26].d[ 40] =        -0.001069468336;
  BAS[ATNO][ 26].a[ 41] =         0.076512597100;     BAS[ATNO][ 26].d[ 41] =         0.003662462638;
  BAS[ATNO][ 26].a[ 42] =         0.028346699700;     BAS[ATNO][ 26].d[ 42] =        -0.066669956463;
  BAS[ATNO][ 26].a[ 43] =         0.028346699700;     BAS[ATNO][ 26].d[ 43] =         0.000370350229;
  BAS[ATNO][ 26].a[ 44] =         0.028346699700;     BAS[ATNO][ 26].d[ 44] =        -0.001268285252;
  BAS[ATNO][ 26].a[ 45] =       139.459200000000;     BAS[ATNO][ 26].d[ 45] =         0.000012181177;
  BAS[ATNO][ 26].a[ 46] =        50.468800000000;     BAS[ATNO][ 26].d[ 46] =         0.000039612222;

-------------------------------------------
RADIAL EXPECTATION VALUES <R**-3> TO <R**3>
-------------------------------------------
   0 :     0.000000     5.854231     2.131742     0.512404     0.285067     0.172202
   1 :    31.239098     5.986354     2.154252     0.537483     0.323936     0.216248
   2 :    31.232302     5.985555     2.154096     0.537536     0.324012     0.216337
   3 :    31.232035     5.985524     2.154090     0.537539     0.324015     0.216341
   4 :    21.501015     5.751458     2.122712     0.570932     0.382697     1.477652
   5 :    21.499155     5.751078     2.122633     0.570959     0.382738     1.477919
   6 :    21.494577     5.750102     2.122417     0.571045     0.382878     1.478921
   7 :    21.498897     5.751025     2.122622     0.570963     0.382744     1.477958
   8 :    21.494496     5.750087     2.122414     0.571045     0.382879     1.478922
   9 :     0.000000     1.618564     0.928890     1.287183     1.889227     3.179202
  10 :     0.000000     0.185755     0.288767     4.313461    21.410139   119.957140
  11 :     0.000000     0.107872     0.205633     6.593439    50.596137   422.639833
  12 :     0.000000     1.076814     0.651629     2.335735     8.390564    46.030689
  13 :     0.000000    12.958478     1.512778     1.081175     1.996110     7.298235
  14 :     0.000000  2916.371441    37.460680     0.047493     0.010799     0.026944
  15 :     0.000000    66.447291     3.745994     0.392242     0.295920     0.742520
  16 :     0.000000   129.357849     6.921728     0.205134     0.079436     0.145847
  17 :     0.000000  2084.383135    22.954116     0.116116     0.036404     0.067675
  18 :     7.597740     1.379396     0.865731     1.477056     2.514831     4.822242
  19 :     7.571454     1.375803     0.864620     1.478957     2.521619     4.842910
  20 :     7.570383     1.375655     0.864573     1.479039     2.521917     4.843842
  21 :    12.493369     4.122676     1.770562     0.752299     0.759320     7.141353
  22 :    12.499572     4.124508     1.771108     0.751851     0.758155     7.121897
  23 :    12.498026     4.124068     1.770983     0.751946     0.758400     7.126020
  24 :    12.497677     4.123969     1.770955     0.751967     0.758454     7.126923
  25 :    12.488179     4.121264     1.770183     0.752555     0.759968     7.152478
  26 :    12.487232     4.120994     1.770106     0.752614     0.760121     7.155062
  27 :    12.453981     4.111515     1.767396     0.754688     0.765491     7.245945
  28 :     0.157316     0.054653     0.177940     6.493457    46.274083   356.100398
  29 :     0.156617     0.054484     0.177711     6.499756    46.352579   356.895754
  30 :     0.156622     0.054483     0.177706     6.499940    46.354904   356.919475
  31 :     0.427568     0.208576     0.346162     3.584181    14.652180   330.038593
  32 :     0.426585     0.208260     0.345967     3.585428    14.660564   330.275603
  33 :     0.426469     0.208223     0.345944     3.585576    14.661561   330.303750
  34 :     0.423873     0.207353     0.345381     3.589303    14.686725   331.014710
  35 :     0.423890     0.207357     0.345383     3.589299    14.686696   331.013977
  36 :     0.550824     0.138712     0.246520     5.550809    38.177303   306.067125
  37 :     0.551455     0.138906     0.246691     5.546449    38.119177   305.450324
  38 :     0.551512     0.138919     0.246698     5.546324    38.117536   305.432937
  39 :     1.530932     0.526957     0.502449     3.005247    11.874756   278.105332
  40 :     1.530644     0.526939     0.502508     3.004371    11.868178   277.909847
  41 :     1.530616     0.526938     0.502516     3.004264    11.867377   277.886062
  42 :     1.530449     0.527023     0.502715     3.001676    11.847960   277.307842
  43 :     1.530455     0.527024     0.502715     3.001677    11.847968   277.308082
  44 :     4.028223     0.621107     0.485295     3.170510    13.867244    81.465408
  45 :     4.034665     0.622140     0.485757     3.167962    13.846422    81.300761
  46 :     4.034923     0.622182     0.485775     3.167865    13.845616    81.295155
  47 :     0.925277     0.404782     0.457219     2.682916     7.732546   163.338290
  48 :     0.916873     0.402262     0.456389     2.684279     7.738296   163.465596
  49 :     0.917373     0.402412     0.456434     2.684252     7.738263   163.466464
  50 :     0.917495     0.402445     0.456443     2.684250     7.738296   163.466016
  51 :     0.920505     0.403394     0.456734     2.684012     7.737533   163.471121
  52 :     0.920843     0.403496     0.456766     2.683986     7.737473   163.470441
  53 :     0.932491     0.407011     0.457844     2.683154     7.735752   163.454749
  54 :     4.234717     1.252850     0.797985     1.932319     5.138185    89.088674
  55 :     4.235110     1.252999     0.798071     1.932021     5.136645    89.053385
  56 :     4.235149     1.253017     0.798081     1.931987     5.136469    89.049289
  57 :     4.236326     1.253526     0.798355     1.931050     5.131573    88.933201
  58 :     4.236337     1.253528     0.798355     1.931050     5.131571    88.933085
  59 :     3.544901     1.310879     0.857087     1.668527     3.454629    59.291091
  60 :     3.538021     1.309153     0.856728     1.668100     3.451525    59.193708
  61 :     3.538490     1.309295     0.856772     1.668058     3.451378    59.190285
  62 :     3.538591     1.309326     0.856781     1.668048     3.451346    59.189521
  63 :     3.541602     1.310230     0.857050     1.667803     3.450547    59.171527
  64 :     3.541927     1.310325     0.857078     1.667780     3.450479    59.170099
  65 :     3.552914     1.313590     0.858038     1.666954     3.447903    59.113931
  66 :    11.815478     2.067961     0.987650     1.696860     4.503272    19.130263
  67 :    11.815310     2.069257     0.988226     1.695689     4.497464    19.098115
  68 :    11.815310     2.069306     0.988248     1.695646     4.497248    19.096906
  69 :    23.234327     4.789489     1.609514     1.090354     1.843356    23.041003
  70 :    23.237350     4.790039     1.609647     1.090251     1.843031    23.035814
  71 :    23.237684     4.790105     1.609662     1.090240     1.842996    23.035221
  72 :    23.243720     4.791331     1.609962     1.089956     1.842023    23.018018
  73 :    23.243611     4.791310     1.609958     1.089957     1.842024    23.017986
  74 :    11.909593     3.491997     1.477892     1.045779     1.531947    20.681240
  75 :    11.910038     3.492110     1.477920     1.045760     1.531894    20.680204
  76 :    11.910211     3.492155     1.477932     1.045752     1.531874    20.679840
  77 :    11.900572     3.489631     1.477263     1.046228     1.533031    20.697028
  78 :    11.913593     3.493018     1.478148     1.045612     1.531505    20.673235
  79 :    11.913876     3.493090     1.478166     1.045601     1.531479    20.672782
  80 :    11.924492     3.495790     1.478837     1.045184     1.530407    20.653753
  81 :   290.502632    20.639279     3.047841     0.710554     1.007566     3.042500
  82 :   290.549838    20.642045     3.048141     0.710397     1.007033     3.040125
  83 :   290.551592    20.642147     3.048152     0.710392     1.007013     3.040036
  84 :  1297.663648    55.507115     4.752100     0.483915     0.523253     1.449584
  85 :  1297.643313    55.506388     4.752087     0.483898     0.523199     1.449345
  86 :  1297.642560    55.506361     4.752086     0.483898     0.523197     1.449336
Making the total density                ... o.k.
o.k.
Initializing the integrals              ... done
Making exponents                        ... done
Making rho(0)                           ... done (        17.641812435)
Integral calculation                    ... Two index integrals                     ... done
Solving the equation system             ... done
atomic density will be written to file 69_Tm_atom69.adf

-------
TIMINGS
-------

Total SCF time: 0 days 0 hours 0 min 9 sec 

Total time                  ....       9.020 sec
Sum of individual times     ....       8.380 sec  ( 92.9%)

Fock matrix formation       ....       8.117 sec  ( 90.0%)
Diagonalization             ....       0.125 sec  (  1.4%)
Density matrix formation    ....       0.005 sec  (  0.1%)
Population analysis         ....       0.000 sec  (  0.0%)
Initial guess               ....       0.001 sec  (  0.0%)
Orbital Transformation      ....       0.000 sec  (  0.0%)
Orbital Orthonormalization  ....       0.000 sec  (  0.0%)
DIIS solution               ....       0.132 sec  (  1.5%)

-------------------------   --------------------
FINAL SINGLE POINT ENERGY     -1082.274160108987
-------------------------   --------------------


                            ***************************************
                            *     ORCA property calculations      *
                            ***************************************

                                    ---------------------
                                    Active property flags
                                    ---------------------
   (+) Dipole Moment


------------------------------------------------------------------------------
                       ORCA ELECTRIC PROPERTIES CALCULATION
------------------------------------------------------------------------------

Dipole Moment Calculation                       ... on
Quadrupole Moment Calculation                   ... off
Polarizability Calculation                      ... off
GBWName                                         ... 69_Tm_atom69.gbw
Electron density file                           ... 69_Tm_atom69.scfp
The origin for moment calculation is the CENTER OF MASS  = ( 0.000000,  0.000000  0.000000)

-------------
DIPOLE MOMENT
-------------
                                X             Y             Z
Electronic contribution:      0.00000       0.00000       0.00000
Nuclear contribution   :      0.00000       0.00000       0.00000
                        -----------------------------------------
Total Dipole Moment    :      0.00000       0.00000       0.00000
                        -----------------------------------------
Magnitude (a.u.)       :      0.00000
Magnitude (Debye)      :      0.00000



--------------------
Rotational spectrum 
--------------------
 
Rotational constants in cm-1:     0.000000     0.000000     0.000000 
Rotational constants in MHz :     0.000000     0.000000     0.000000 

 Dipole components along the rotational axes: 
x,y,z [a.u.] :     0.000000     0.000000     0.000000 
x,y,z [Debye]:     0.000000     0.000000     0.000000 

 

Timings for individual modules:

Sum of individual times         ...       10.922 sec (=   0.182 min)
GTO integral calculation        ...        1.879 sec (=   0.031 min)  17.2 %
SCF iterations                  ...        9.043 sec (=   0.151 min)  82.8 %
                             ****ORCA TERMINATED NORMALLY****
TOTAL RUN TIME: 0 days 0 hours 0 minutes 11 seconds 196 msec
