
                                 *****************
                                 * O   R   C   A *
                                 *****************

           --- An Ab Initio, DFT and Semiempirical electronic structure package ---

                  #######################################################
                  #                        -***-                        #
                  #          Department of theory and spectroscopy      #
                  #               Directorship: Frank Neese             #
                  #        Max Planck Institute fuer Kohlenforschung    #
                  #                Kaiser Wilhelm Platz 1               #
                  #                 D-45470 Muelheim/Ruhr               #
                  #                      Germany                        #
                  #                                                     #
                  #                  All rights reserved                #
                  #                        -***-                        #
                  #######################################################


                         Program Version 4.2.0 -  RELEASE  -


 With contributions from (in alphabetic order):
   Daniel Aravena         : Magnetic Suceptibility
   Michael Atanasov       : Ab Initio Ligand Field Theory (pilot matlab implementation)
   Alexander A. Auer      : GIAO ZORA, VPT2
   Ute Becker             : Parallelization
   Giovanni Bistoni       : ED, misc. LED, open-shell LED, HFLED
   Martin Brehm           : Molecular dynamics
   Dmytro Bykov           : SCF Hessian
   Vijay G. Chilkuri      : MRCI spin determinant printing, contributions to CSF-ICE
   Dipayan Datta          : RHF DLPNO-CCSD density
   Achintya Kumar Dutta   : EOM-CC, STEOM-CC
   Dmitry Ganyushin       : Spin-Orbit,Spin-Spin,Magnetic field MRCI
   Miquel Garcia          : C-PCM Hessian, Gaussian charge scheme
   Yang Guo               : DLPNO-NEVPT2, CIM, IAO-localization
   Andreas Hansen         : Spin unrestricted coupled pair/coupled cluster methods
   Benjamin Helmich-Paris : CASSCF linear response (MC-RPA)
   Lee Huntington         : MR-EOM, pCC
   Robert Izsak           : Overlap fitted RIJCOSX, COSX-SCS-MP3, EOM
   Christian Kollmar      : KDIIS, OOCD, Brueckner-CCSD(T), CCSD density
   Simone Kossmann        : Meta GGA functionals, TD-DFT gradient, OOMP2, MP2 Hessian
   Martin Krupicka        : AUTO-CI
   Lucas Lang             : DCDCAS
   Dagmar Lenk            : GEPOL surface, SMD
   Dimitrios Liakos       : Extrapolation schemes; Compound Job, initial MDCI parallelization
   Dimitrios Manganas     : Further ROCIS development; embedding schemes
   Dimitrios Pantazis     : SARC Basis sets
   Taras Petrenko         : DFT Hessian,TD-DFT gradient, ASA, ECA, R-Raman, ABS, FL, XAS/XES, NRVS
   Peter Pinski           : DLPNO-MP2, DLPNO-MP2 Gradient
   Christoph Reimann      : Effective Core Potentials
   Marius Retegan         : Local ZFS, SOC
   Christoph Riplinger    : Optimizer, TS searches, QM/MM, DLPNO-CCSD(T), (RO)-DLPNO pert. Triples
   Tobias Risthaus        : Range-separated hybrids, TD-DFT gradient, RPA, STAB
   Michael Roemelt        : Original ROCIS implementation
   Masaaki Saitow         : Open-shell DLPNO-CCSD energy and density
   Barbara Sandhoefer     : DKH picture change effects
   Avijit Sen             : IP-ROCIS
   Kantharuban Sivalingam : CASSCF convergence, NEVPT2, FIC-MRCI
   Bernardo de Souza      : ESD, SOC TD-DFT
   Georgi Stoychev        : AutoAux, RI-MP2 NMR
   Willem Van den Heuvel  : Paramagnetic NMR
   Boris Wezisla          : Elementary symmetry handling
   Frank Wennmohs         : Technical directorship


 We gratefully acknowledge several colleagues who have allowed us to
 interface, adapt or use parts of their codes:
   Stefan Grimme, W. Hujo, H. Kruse,             : VdW corrections, initial TS optimization,
                  C. Bannwarth                     DFT functionals, gCP, sTDA/sTD-DF
   Ed Valeev, F. Pavosevic, A. Kumar             : LibInt (2-el integral package), F12 methods
   Garnet Chan, S. Sharma, J. Yang, R. Olivares  : DMRG
   Ulf Ekstrom                                   : XCFun DFT Library
   Mihaly Kallay                                 : mrcc  (arbitrary order and MRCC methods)
   Andreas Klamt, Michael Diedenhofen            : otool_cosmo (COSMO solvation model)
   Jiri Pittner, Ondrej Demel                    : Mk-CCSD
   Frank Weinhold                                : gennbo (NPA and NBO analysis)
   Christopher J. Cramer and Donald G. Truhlar   : smd solvation model
   Lars Goerigk                                  : TD-DFT with DH, B97 family of functionals
   V. Asgeirsson, H. Jonsson                     : NEB implementation
   FAccTs GmbH                                   : IRC, NEB, NEB-TS, Multilevel, MM, QM/MM, CI optimization
   S Lehtola, MJT Oliveira, MAL Marques          : LibXC Library


 Your calculation uses the libint2 library for the computation of 2-el integrals
 For citations please refer to: http://libint.valeyev.net

 Your ORCA version has been built with support for libXC version: 4.2.3
 For citations please refer to: https://tddft.org/programs/libxc/

 This ORCA versions uses:
   CBLAS   interface :  Fast vector & matrix operations
   LAPACKE interface :  Fast linear algebra routines
   SCALAPACK package :  Parallel linear algebra routines


----- Orbital basis set information -----
Your calculation utilizes the basis: def2-SVP
   F. Weigend and R. Ahlrichs, Phys. Chem. Chem. Phys. 7, 3297 (2005).

----- AuxJ basis set information -----
Your calculation utilizes the auxiliary basis: def2/J
   F. Weigend, Phys. Chem. Chem. Phys. 8, 1057 (2006).

================================================================================
                                        WARNINGS
                       Please study these warnings very carefully!
================================================================================


INFO   : the flag for use of LIBINT has been found!

================================================================================
                                       INPUT FILE
================================================================================
NAME = 71_Lu_atom71.inp
|  1> # input to generate an atomic fitting density for Lu
|  2> # this file is use internally by ORCA
|  3> #
|  4> # atomic ground state (S=4): 1s2 2s2 2p6 3s2 3p6 4s2 3d10 4p6 5s2 4d10 5p6 6s2 5d3 
|  5> #
|  6> ! RHF AllowRHF def2-SVP def2/J  NoMulliken NoLoewdin NoMayer NoPrintMOs 
|  7> 
|  8> %output print[p_atomdensfit] 2 end
|  9> 
| 10> %scf
| 11>   guess hcore
| 12>   maxiter 1000
| 13>   maxdisk 500000
| 14>   SCFMode Conventional
| 15>   lshift 1.000000
| 16>   hftyp rohf
| 17>   rohf_case sahf
| 18>   rohf_numop   2
| 19>   rohf_norb[1] 5
| 20>   rohf_nel[1]  3
| 21> end
| 22> 
| 23> %basis
| 24>   NewECP 71
| 25>     N_core 28
| 26>     lmax h
| 27>     s 1
| 28>       1      35.1620970000    989.9955840000  2
| 29>     p 1
| 30>       1      19.4644020000    278.8656520000  2
| 31>     d 1
| 32>       1      10.0068650000     71.0091780000  2
| 33>     f 1
| 34>       1      23.5179320000    -47.4058900000  2
| 35>     g 1
| 36>       1      29.4122380000    -35.5571460000  2
| 37>     h 1
| 38>       1       1.0000000000      0.0000000000  2
| 39>   end
| 40>   NewGTO 71
| 41>     s 5 
| 42>      1   95169.7670000000      0.0030885291
| 43>      2   15488.4030000000      0.0203562145
| 44>      3    3776.2335000000      0.0913923835
| 45>      4    1079.0501000000      0.2861101039
| 46>      5     268.9538000000      0.7197676657
| 47>     s 1 
| 48>      1      63.4679000000      1.0000000000
| 49>     s 1 
| 50>      1      45.1332000000      1.0000000000
| 51>     s 1 
| 52>      1      21.4568000000      1.0000000000
| 53>     s 1 
| 54>      1       5.3483000000      1.0000000000
| 55>     s 1 
| 56>      1       2.6778000000      1.0000000000
| 57>     s 1 
| 58>      1       1.0287000000      1.0000000000
| 59>     s 1 
| 60>      1       0.4408000000      1.0000000000
| 61>     s 1 
| 62>      1       0.0791000000      1.0000000000
| 63>     s 1 
| 64>      1       0.0313000000      1.0000000000
| 65>     p 6 
| 66>      1    1500.5317313000     -0.0052121446
| 67>      2     382.3974893700     -0.0304141760
| 68>      3     132.9996962800     -0.0831746759
| 69>      4      46.1100324190     -0.1821686147
| 70>      5      15.5835290110      1.2124089220
| 71>      6       5.7856677022     -1.5684127914
| 72>     p 3 
| 73>      1      12.3337339200     -0.3236172205
| 74>      2      11.0803314150     -0.4290231439
| 75>      3       2.0341747228     -0.4112223607
| 76>     p 1 
| 77>      1       3.7823361008      1.0000000000
| 78>     p 1 
| 79>      1       1.3682592248      1.0000000000
| 80>     p 1 
| 81>      1       0.5728820560      1.0000000000
| 82>     p 1 
| 83>      1       0.2279316513      1.0000000000
| 84>     p 1 
| 85>      1       0.0814039180      1.0000000000
| 86>     p 1 
| 87>      1       0.0290910718      1.0000000000
| 88>     d 6 
| 89>      1     484.5275000000      0.0027300578
| 90>      2     146.6655000000      0.0222477021
| 91>      3      56.3779000000      0.0884796691
| 92>      4      23.6711000000      0.1929360283
| 93>      5       9.4401000000      0.3679379890
| 94>      6       4.3712000000      0.5354233339
| 95>     d 1 
| 96>      1       1.9580000000      1.0000000000
| 97>     d 1 
| 98>      1       0.7272000000      1.0000000000
| 99>     d 1 
|100>      1       0.2460000000      1.0000000000
|101>     d 1 
|102>      1       0.0744000000      1.0000000000
|103>     f 5 
|104>      1     175.1559000000      0.0060676828
|105>      2      62.8909000000      0.0578160531
|106>      3      28.3624000000      0.2175076424
|107>      4      13.2478000000      0.4009995769
|108>      5       6.1440000000      0.5113080385
|109>     f 1 
|110>      1       2.7623000000      1.0000000000
|111>     f 1 
|112>      1       1.1574000000      1.0000000000
|113>     f 1 
|114>      1       0.4244000000      1.0000000000
|115>   end
|116>   NewAuxGTO 71
|117>     S 1
|118>      1 1310.72 1.0
|119>     S 1
|120>      1  655.36 1.0
|121>     S 1
|122>      1  327.68 1.0
|123>     S 1
|124>      1  163.84 1.0
|125>     S 1
|126>      1   81.82 1.0
|127>     S 1
|128>      1   40.96 1.0
|129>     S 1
|130>      1   20.48 1.0
|131>     S 1
|132>      1   10.24 1.0
|133>     S 1
|134>      1    5.12 1.0
|135>     S 1
|136>      1    2.56 1.0
|137>     S 1
|138>      1    1.28 1.0
|139>     S 1
|140>      1    0.64 1.0
|141>     S 1
|142>      1    0.32 1.0
|143>     S 1
|144>      1    0.16 1.0
|145>     S 1
|146>      1    0.08 1.0
|147>     S 1
|148>      1    0.04 1.0
|149>     S 1
|150>      1    0.02 1.0
|151>     S 1
|152>      1    0.01 1.0
|153>   end
|154> end
|155> 
|156> * xyz 0 4
|157> 71  0.0 0.0 0.0
|158> *
|159> 
|160> 
|161>                          ****END OF INPUT****
================================================================================

                       ****************************
                       * Single Point Calculation *
                       ****************************

---------------------------------
CARTESIAN COORDINATES (ANGSTROEM)
---------------------------------
  Lu     0.000000    0.000000    0.000000

----------------------------
CARTESIAN COORDINATES (A.U.)
----------------------------
  NO LB      ZA    FRAG     MASS         X           Y           Z
   0 Lu   43.0000*   0   174.967    0.000000    0.000000    0.000000
* core charge reduced due to ECP

--------------------------------
INTERNAL COORDINATES (ANGSTROEM)
--------------------------------
 Lu     0   0   0     0.000000000000     0.00000000     0.00000000

---------------------------
INTERNAL COORDINATES (A.U.)
---------------------------
 Lu     0   0   0     0.000000000000     0.00000000     0.00000000

---------------------
BASIS SET INFORMATION
---------------------
There are 1 groups of distinct atoms

 Group   1 Type Lu  : 14s15p10d8f contracted to 10s8p5d4f pattern {5111111111/63111111/61111/5111}

Atom   0Lu   basis set group =>   1
---------------------------------
AUXILIARY/J BASIS SET INFORMATION
---------------------------------
There are 1 groups of distinct atoms

 Group   1 Type Lu  : 18s contracted to 18s pattern {111111111111111111}

Atom   0Lu   basis set group =>   1
-------------------------
ECP PARAMETER INFORMATION
-------------------------

 Group 1, Type Lu ECP (replacing 28 core electrons, lmax=5)

Atom   0Lu   ECP group =>   1

------------------------------------------------------------------------------
                           ORCA GTO INTEGRAL CALCULATION
------------------------------------------------------------------------------

                         BASIS SET STATISTICS AND STARTUP INFO

 # of primitive gaussian shells          ...   47
 # of primitive gaussian functions       ...  165
 # of contracted shells                  ...   27
 # of contracted basis functions         ...   87
 Highest angular momentum                ...    3
 Maximum contraction depth               ...    6
 Integral package used                   ... LIBINT
 Integral threshhold            Thresh   ...  1.000e-10
 Primitive cut-off              TCut     ...  1.000e-11
 Storage cut-off                TCutStore... -1.000e+00
 Buffer length                           ... 1048576 integrals/buffer
 Generate file with integrals 4 distinct ...false


------------------------------ INTEGRAL EVALUATION ----------------------------


 * One electron integrals 

   ECP integrals                         ... done
 Pre-screening matrix                    ... done
 Shell pair data                         ... done (   0.000 sec)
 Statistics run                          ... done
 Maximum amount of storage needed        ...    86 MB
 Maximum amount of storage dedicated     ... 500000 MB
 Beginning two electron integral evaluation:
 Starting repulsion integrals
  <ss|ss>  ...         1540 b.         0 skpd (  0.0%)     0.000 s. (  0.000 ms/b)
  <ss|sp>  ...         4400 b.         0 skpd (  0.0%)     0.001 s. (  0.000 ms/b)
  <ss|sd>  ...         2750 b.         0 skpd (  0.0%)     0.001 s. (  0.001 ms/b)
  <ss|sf>  ...         2200 b.         0 skpd (  0.0%)     0.002 s. (  0.001 ms/b)
  <ss|pp>  ...         1980 b.         0 skpd (  0.0%)     0.001 s. (  0.001 ms/b)
  <ss|pd>  ...         2200 b.         0 skpd (  0.0%)     0.002 s. (  0.001 ms/b)
  <ss|pf>  ...         1760 b.         0 skpd (  0.0%)     0.003 s. (  0.002 ms/b)
  <ss|dd>  ...          825 b.         0 skpd (  0.0%)     0.002 s. (  0.002 ms/b)
  <ss|df>  ...         1100 b.         0 skpd (  0.0%)     0.003 s. (  0.003 ms/b)
  <ss|ff>  ...          550 b.         0 skpd (  0.0%)     0.003 s. (  0.005 ms/b)
  <sp|sp>  ...         3240 b.         0 skpd (  0.0%)     0.002 s. (  0.001 ms/b)
  <sp|sd>  ...         4000 b.         0 skpd (  0.0%)     0.004 s. (  0.001 ms/b)
  <sp|sf>  ...         3199 b.         1 skpd (  0.0%)     0.005 s. (  0.002 ms/b)
  <sp|pp>  ...         2880 b.         0 skpd (  0.0%)     0.005 s. (  0.002 ms/b)
  <sp|pd>  ...         3200 b.         0 skpd (  0.0%)     0.009 s. (  0.003 ms/b)
  <sp|pf>  ...         2560 b.         0 skpd (  0.0%)     0.011 s. (  0.004 ms/b)
  <sp|dd>  ...         1200 b.         0 skpd (  0.0%)     0.007 s. (  0.006 ms/b)
  <sp|df>  ...         1600 b.         0 skpd (  0.0%)     0.012 s. (  0.008 ms/b)
  <sp|ff>  ...          800 b.         0 skpd (  0.0%)     0.017 s. (  0.021 ms/b)
  <sd|sd>  ...         1271 b.         4 skpd (  0.3%)     0.003 s. (  0.002 ms/b)
  <sd|sf>  ...         1994 b.         6 skpd (  0.3%)     0.007 s. (  0.004 ms/b)
  <sd|pp>  ...         1800 b.         0 skpd (  0.0%)     0.006 s. (  0.003 ms/b)
  <sd|pd>  ...         2000 b.         0 skpd (  0.0%)     0.012 s. (  0.006 ms/b)
  <sd|pf>  ...         1600 b.         0 skpd (  0.0%)     0.016 s. (  0.010 ms/b)
  <sd|dd>  ...          750 b.         0 skpd (  0.0%)     0.010 s. (  0.014 ms/b)
  <sd|df>  ...         1000 b.         0 skpd (  0.0%)     0.021 s. (  0.021 ms/b)
  <sd|ff>  ...          500 b.         0 skpd (  0.0%)     0.020 s. (  0.040 ms/b)
  <sf|sf>  ...          816 b.         4 skpd (  0.5%)     0.006 s. (  0.007 ms/b)
  <sf|pp>  ...         1440 b.         0 skpd (  0.0%)     0.010 s. (  0.007 ms/b)
  <sf|pd>  ...         1600 b.         0 skpd (  0.0%)     0.026 s. (  0.016 ms/b)
  <sf|pf>  ...         1280 b.         0 skpd (  0.0%)     0.027 s. (  0.021 ms/b)
  <sf|dd>  ...          600 b.         0 skpd (  0.0%)     0.018 s. (  0.030 ms/b)
  <sf|df>  ...          800 b.         0 skpd (  0.0%)     0.040 s. (  0.049 ms/b)
  <sf|ff>  ...          400 b.         0 skpd (  0.0%)     0.038 s. (  0.095 ms/b)
  <pp|pp>  ...          666 b.         0 skpd (  0.0%)     0.004 s. (  0.005 ms/b)
  <pp|pd>  ...         1440 b.         0 skpd (  0.0%)     0.013 s. (  0.009 ms/b)
  <pp|pf>  ...         1152 b.         0 skpd (  0.0%)     0.023 s. (  0.020 ms/b)
  <pp|dd>  ...          540 b.         0 skpd (  0.0%)     0.011 s. (  0.021 ms/b)
  <pp|df>  ...          720 b.         0 skpd (  0.0%)     0.022 s. (  0.031 ms/b)
  <pp|ff>  ...          360 b.         0 skpd (  0.0%)     0.021 s. (  0.058 ms/b)
  <pd|pd>  ...          820 b.         0 skpd (  0.0%)     0.017 s. (  0.021 ms/b)
  <pd|pf>  ...         1280 b.         0 skpd (  0.0%)     0.045 s. (  0.035 ms/b)
  <pd|dd>  ...          600 b.         0 skpd (  0.0%)     0.026 s. (  0.044 ms/b)
  <pd|df>  ...          800 b.         0 skpd (  0.0%)     0.057 s. (  0.071 ms/b)
  <pd|ff>  ...          400 b.         0 skpd (  0.0%)     0.055 s. (  0.137 ms/b)
  <pf|pf>  ...          528 b.         0 skpd (  0.0%)     0.039 s. (  0.073 ms/b)
  <pf|dd>  ...          480 b.         0 skpd (  0.0%)     0.040 s. (  0.084 ms/b)
  <pf|df>  ...          640 b.         0 skpd (  0.0%)     0.089 s. (  0.139 ms/b)
  <pf|ff>  ...          320 b.         0 skpd (  0.0%)     0.096 s. (  0.300 ms/b)
  <dd|dd>  ...          120 b.         0 skpd (  0.0%)     0.016 s. (  0.130 ms/b)
  <dd|df>  ...          300 b.         0 skpd (  0.0%)     0.054 s. (  0.179 ms/b)
  <dd|ff>  ...          150 b.         0 skpd (  0.0%)     0.055 s. (  0.367 ms/b)
  <df|df>  ...          210 b.         0 skpd (  0.0%)     0.070 s. (  0.335 ms/b)
  <df|ff>  ...          200 b.         0 skpd (  0.0%)     0.121 s. (  0.607 ms/b)
  <ff|ff>  ...           55 b.         0 skpd (  0.0%)     0.081 s. (  1.473 ms/b)


                                      INTEGRAL STATISTICS

Integral type statistics:
 Number of integrals retained            ...    7328210 
 One   Center Integrals retained         ...    7328210 (100.0%)
 Two   Center Integrals retained         ...          0 (  0.0%)
 Three Center Integrals retained         ...          0 (  0.0%)
 Four  Center Integrals retained         ...          0 (  0.0%)

Storage statistics:
 Number of char integrals                ...          0 (  0.0%)
 Number of short int integrals           ...          0 (  0.0%)
 Number of double/float integrals        ...    7328210 (100.0%)
 Amount of memory used                   ...         90 MB
 Amount of memory estimated              ...         86 MB ( 95.3%)

Prescreening statistics:
 Total number of shell quadruples        ...      71631 
 Number of skipped shell quadruples      ...         27 (  0.0%)
 # of negligible batches done            ...          0 (  0.0%)

Timings:
 Total evaluation time               ...     1.671 sec (   0.028 min)
 One electron matrix time            ...     0.087 sec (   0.001 min) =  5.2%
 Schwartz matrix evaluation time     ...     0.145 sec (   0.002 min) =  8.7%
 Statistics run                      ...     0.053 sec (   0.001 min) =  3.2%
 Repulsion integral time             ...     1.305 sec (   0.022 min) = 78.1%

-------------------------------------------------------------------------------
                                 ORCA SCF
-------------------------------------------------------------------------------

------------
SCF SETTINGS
------------
Hamiltonian:
 Ab initio Hamiltonian  Method          .... Hartree-Fock(GTOs)


General Settings:
 Integral files         IntName         .... 71_Lu_atom71
 Hartree-Fock type      HFTyp           .... ROHF
 Total Charge           Charge          ....    0
 Multiplicity           Mult            ....    4
 Number of Electrons    NEL             ....   43
 Basis Dimension        Dim             ....   87
 Nuclear Repulsion      ENuc            ....      0.0000000000 Eh

Convergence Acceleration:
 DIIS                   CNVDIIS         .... on
   Start iteration      DIISMaxIt       ....    12
   Startup error        DIISStart       ....  0.200000
   # of expansion vecs  DIISMaxEq       ....     5
   Bias factor          DIISBfac        ....   1.050
   Max. coefficient     DIISMaxC        ....  10.000
 Newton-Raphson         CNVNR           .... off
 SOSCF                  CNVSOSCF        .... off
 Level Shifting         CNVShift        .... on
   Level shift para.    LevelShift      ....    1.0000
   Turn off err/grad.   ShiftErr        ....    0.0010
 Zerner damping         CNVZerner       .... off
 Static damping         CNVDamp         .... on
   Fraction old density DampFac         ....    0.7000
   Max. Damping (<1)    DampMax         ....    0.9800
   Min. Damping (>=0)   DampMin         ....    0.0000
   Turn off err/grad.   DampErr         ....    0.1000
 Fernandez-Rico         CNVRico         .... off

SCF Procedure:
 Maximum # iterations   MaxIter         ....  1000
 SCF integral mode      SCFMode         .... Conventional
 Integral Threshold     Thresh          ....  1.000e-10 Eh
 Primitive CutOff       TCut            ....  1.000e-11 Eh
 Integral Buffer length BufferLength    .... 1048576
 Integral index format  IndFormat       ....     0
 Integral value format  ValFormat       ....     0
 Integral Storage       Thresh          ....  1.000e-10 Eh

Convergence Tolerance:
 Convergence Check Mode ConvCheckMode   .... Total+1el-Energy
 Convergence forced     ConvForced      .... 0
 Energy Change          TolE            ....  1.000e-06 Eh
 1-El. energy change                    ....  1.000e-03 Eh
 DIIS Error             TolErr          ....  1.000e-06


Diagonalization of the overlap matrix:
Smallest eigenvalue                        ... 1.342e-03
Time for diagonalization                   ...    0.001 sec
Threshold for overlap eigenvalues          ... 1.000e-08
Number of eigenvalues below threshold      ... 0
Time for construction of square roots      ...    0.002 sec
Total time needed                          ...    0.004 sec

--------------------
INITIAL GUESS: HCORE
--------------------
AVERAGE-CONFIGURATION (SAHF) CASE FOUND

-------------------
FINAL ROHF SETTINGS
-------------------
Number of operators             ... 2
  operator   0:  20 orbitals  40 electrons n(mue)= 2.000
  operator   1:   5 orbitals   3 electrons n(mue)= 0.600
Vector coupling coefficients a and b (Zerner convention):
   1.000    1.000           1.000    1.000 
   1.000    0.833           1.000    1.667 

                      -----------------
                      INTIAL GUESS DONE 
                      -----------------

 InCore treatment chosen:
   Memory dedicated               ...    1024 MB
   Memory needed                  ...     90 MB
   Number of tiny    integrals    ...       0
   Number of small   integrals    ...       0
   Number of regular integrals    ... 7328210

--------------
SCF ITERATIONS
--------------
ITER       Energy         Delta-E        Max-DP      RMS-DP      [F,P]     Damp
  0   -998.2298731379   0.000000000000 5.10075121  0.10018585 10.5811690 0.7000
  1  -1116.6575073918-118.427634253864 3.25674832  0.06153105  3.2082784 0.7000
  2  -1146.3451555750 -29.687648183261 2.14518412  0.04243413  1.7738058 0.7000
  3  -1200.9059650452 -54.560809470122 1.52630388  0.03046018  0.2978663 0.7000
  4  -1208.7701187595  -7.864153714311 1.09475944  0.02153319  0.3147552 0.7000
  5  -1215.0821077065  -6.311988947025 0.80053569  0.01499888  0.2496211 0.7000
                            ****Activating DIIS****
  6  -1219.8507050734  -4.768597366911 0.55149892  0.01067912  0.1886903 0.7000
  7  -1223.3815516312  -3.530846557820 0.43623590  0.00963524  0.1392752 0.7000
  8  -1226.0476345188  -2.666082887541 0.91794649  0.02059338  0.0950756 0.0000
  9  -1231.7480628038  -5.700428284982 0.02460778  0.00036615  0.1573992 0.7000
 10  -1231.7835671766  -0.035504372875 0.01997661  0.00035984  0.1393820 0.7000
 11  -1231.7902458980  -0.006678721336 0.03766340  0.00055489  0.1440549 0.7000
 12  -1231.8194122063  -0.029166308335 0.06278092  0.00085331  0.1396393 0.7000
 13  -1231.8515961846  -0.032183978336 0.11109478  0.00148062  0.1368988 0.7000
 14  -1231.9511060095  -0.099509824901 0.48033619  0.00650613  0.0798235 0.0000
 15  -1232.0666021941  -0.115496184520 0.03478235  0.00065828  0.0704799 0.0000
 16  -1232.0898194295  -0.023217235399 0.23105991  0.00351183  0.0606641 0.0000
 17  -1232.1489497334  -0.059130303990 0.14545404  0.00212605  0.0418398 0.0000
 18  -1232.1841488707  -0.035199137276 0.16064963  0.00246233  0.0271287 0.0000
 19  -1232.2121848290  -0.028035958236 0.15112716  0.00199337  0.0238505 0.0000
 20  -1232.2283891245  -0.016204295494 0.16036462  0.00174406  0.0197478 0.0000
 21  -1232.2381170432  -0.009727918739 0.11217204  0.00122411  0.0143049 0.0000
 22  -1232.2430583505  -0.004941307312 0.11708025  0.00132678  0.0098867 0.0000
 23  -1232.2472157487  -0.004157398231 0.14322515  0.00167954  0.0097542 0.0000
 24  -1232.2508713410  -0.003655592288 0.09317986  0.00113370  0.0065608 0.0000
 25  -1232.2522525481  -0.001381207102 0.05683981  0.00070203  0.0039766 0.0000
 26  -1232.2526412933  -0.000388745211 0.02441659  0.00029888  0.0040060 0.0000
 27  -1232.2527134640  -0.000072170626 0.01118356  0.00014213  0.0040514 0.0000
 28  -1232.2527518870  -0.000038423061 0.00642973  0.00011488  0.0041035 0.0000
 29  -1232.2528008747  -0.000048987674 0.00576975  0.00010569  0.0041726 0.0000
 30  -1232.2528412495  -0.000040374796 0.00364860  0.00006993  0.0042480 0.0000
 31  -1232.2528671855  -0.000025936006 0.00291827  0.00006154  0.0043033 0.0000
 32  -1232.2528892935  -0.000022108013 0.00186880  0.00004556  0.0043527 0.0000
 33  -1232.2529065671  -0.000017273562 0.00215643  0.00004887  0.0043881 0.0000
 34  -1232.2529217070  -0.000015139925 0.00169364  0.00003388  0.0044196 0.0000
 35  -1232.2529312001  -0.000009493109 0.00135041  0.00002606  0.0044366 0.0000
 36  -1232.2529374004  -0.000006200296 0.00091098  0.00001858  0.0044464 0.0000
 37  -1232.2529411411  -0.000003740660 0.00062391  0.00001459  0.0044516 0.0000
 38  -1232.2529435399  -0.000002398856 0.00052832  0.00001208  0.0044551 0.0000
 39  -1232.2529451517  -0.000001611739 0.00047224  0.00000923  0.0044579 0.0000
 40  -1232.2529461558  -0.000001004120 0.00039136  0.00000739  0.0044600 0.0000
 41  -1232.2529468300  -0.000000674217 0.00030745  0.00000570  0.0044618 0.0000
 42  -1232.2529472683  -0.000000438272 0.00029771  0.00000472  0.0044634 0.0000
 43  -1232.2529475843  -0.000000316021 0.00027878  0.00000400  0.0044647 0.0000
 44  -1232.2529478191  -0.000000234822 0.00026106  0.00000355  0.0044659 0.0000
 45  -1232.2529480056  -0.000000186479 0.00024518  0.00000322  0.0044671 0.0000
 46  -1232.2529481578  -0.000000152164 0.00023161  0.00000296  0.0044681 0.0000
 47  -1232.2529482848  -0.000000127040 0.00021964  0.00000276  0.0044692 0.0000
 48  -1232.2529483921  -0.000000107264 0.00020830  0.00000258  0.0044701 0.0000
 49  -1232.2529484833  -0.000000091218 0.00019780  0.00000242  0.0044711 0.0000
 50  -1232.2529485613  -0.000000078031 0.00018761  0.00000228  0.0044720 0.0000
 51  -1232.2529486283  -0.000000067006 0.00017805  0.00000214  0.0044729 0.0000
 52  -1232.2529486861  -0.000000057767 0.00016879  0.00000202  0.0044737 0.0000
 53  -1232.2529487360  -0.000000049929 0.00016005  0.00000191  0.0044746 0.0000
 54  -1232.2529487793  -0.000000043274 0.00015163  0.00000180  0.0044754 0.0000
 55  -1232.2529488169  -0.000000037575 0.00014366  0.00000170  0.0044762 0.0000
 56  -1232.2529488496  -0.000000032691 0.00013601  0.00000161  0.0044769 0.0000
 57  -1232.2529488780  -0.000000028478 0.00012877  0.00000152  0.0044777 0.0000
 58  -1232.2529489029  -0.000000024849 0.00012184  0.00000143  0.0044784 0.0000
 59  -1232.2529489246  -0.000000021704 0.00011527  0.00000135  0.0044791 0.0000
 60  -1232.2529489436  -0.000000018985 0.00010901  0.00000128  0.0044797 0.0000
 61  -1232.2529489602  -0.000000016616 0.00010308  0.00000121  0.0044804 0.0000
                 **** Energy Check signals convergence ****

               *****************************************************
               *                     SUCCESS                       *
               *           SCF CONVERGED AFTER  62 CYCLES          *
               *****************************************************


----------------
TOTAL SCF ENERGY
----------------

Total Energy       :        -1232.25294897 Eh          -33531.30744 eV

Components:
Nuclear Repulsion  :            0.00000000 Eh               0.00000 eV
Electronic Energy  :        -1232.25294897 Eh          -33531.30744 eV
One Electron Energy:        -2253.49180901 Eh          -61320.62960 eV
Two Electron Energy:         1021.23886003 Eh           27789.32216 eV

Virial components:
Potential Energy   :        -2040.55052594 Eh          -55526.20271 eV
Kinetic Energy     :          808.29757696 Eh           21994.89527 eV
Virial Ratio       :            2.52450407


---------------
SCF CONVERGENCE
---------------

  Last Energy change         ...   -1.4563e-08  Tolerance :   1.0000e-06
  Last MAX-Density change    ...    9.7438e-05  Tolerance :   1.0000e-05
  Last RMS-Density change    ...    1.1388e-06  Tolerance :   1.0000e-06
  Last DIIS Error            ...    4.4810e-03  Tolerance :   1.0000e-06

             **** THE GBW FILE WAS UPDATED (71_Lu_atom71.gbw) ****
             **** DENSITY FILE WAS UPDATED (71_Lu_atom71.scfp) ****
             **** ENERGY FILE WAS UPDATED (71_Lu_atom71.en.tmp) ****
             **** THE GBW FILE WAS UPDATED (71_Lu_atom71.gbw) ****
             **** DENSITY FILE WAS UPDATED (71_Lu_atom71.scfp) ****
----------------
ORBITAL ENERGIES
----------------

  NO   OCC          E(Eh)            E(eV) 
   0   2.0000     -20.282446      -551.9134 
   1   2.0000     -13.518328      -367.8524 
   2   2.0000     -13.518083      -367.8457 
   3   2.0000     -13.514893      -367.7589 
   4   2.0000      -6.504993      -177.0099 
   5   2.0000      -6.502276      -176.9359 
   6   2.0000      -6.502070      -176.9303 
   7   2.0000      -6.501229      -176.9074 
   8   2.0000      -6.501075      -176.9032 
   9   2.0000      -2.629097       -71.5414 
  10   2.0000      -1.362348       -37.0714 
  11   2.0000      -1.362029       -37.0627 
  12   2.0000      -1.357820       -36.9482 
  13   2.0000      -0.747761       -20.3476 
  14   2.0000      -0.747749       -20.3473 
  15   2.0000      -0.745644       -20.2900 
  16   2.0000      -0.745252       -20.2793 
  17   2.0000      -0.744210       -20.2510 
  18   2.0000      -0.744035       -20.2462 
  19   2.0000      -0.743696       -20.2370 
  20   0.6000      -0.239719        -6.5231 
  21   0.6000      -0.140966        -3.8359 
  22   0.6000      -0.132421        -3.6034 
  23   0.6000      -0.131785        -3.5860 
  24   0.6000      -0.129144        -3.5142 
  25   0.0000      -0.047511        -1.2928 
  26   0.0000      -0.047508        -1.2928 
  27   0.0000      -0.047362        -1.2888 
  28   0.0000       0.011413         0.3106 
  29   0.0000       0.062535         1.7017 
  30   0.0000       0.095874         2.6089 
  31   0.0000       0.095869         2.6087 
  32   0.0000       0.095834         2.6078 
  33   0.0000       0.216509         5.8915 
  34   0.0000       0.221772         6.0347 
  35   0.0000       0.222167         6.0455 
  36   0.0000       0.223825         6.0906 
  37   0.0000       0.237541         6.4638 
  38   0.0000       0.774976        21.0882 
  39   0.0000       0.775316        21.0974 
  40   0.0000       0.779939        21.2232 
  41   0.0000       1.148163        31.2431 
  42   0.0000       1.148623        31.2556 
  43   0.0000       1.140528        31.0353 
  44   0.0000       1.151829        31.3429 
  45   0.0000       1.148513        31.2526 
  46   0.0000       1.148160        31.2430 
  47   0.0000       1.146015        31.1847 
  48   0.0000       1.299878        35.3715 
  49   0.0000       1.312401        35.7122 
  50   0.0000       1.305745        35.5311 
  51   0.0000       1.306191        35.5433 
  52   0.0000       1.308015        35.5929 
  53   0.0000       1.637839        44.5679 
  54   0.0000       3.545279        96.4719 
  55   0.0000       3.545775        96.4854 
  56   0.0000       3.552203        96.6604 
  57   0.0000       4.018489       109.3487 
  58   0.0000       4.018400       109.3462 
  59   0.0000       4.021152       109.4211 
  60   0.0000       4.018748       109.3557 
  61   0.0000       4.021138       109.4207 
  62   0.0000       4.021481       109.4301 
  63   0.0000       4.022013       109.4445 
  64   0.0000       5.372848       146.2026 
  65   0.0000       5.377912       146.3404 
  66   0.0000       5.376949       146.3142 
  67   0.0000       5.377263       146.3228 
  68   0.0000       5.378536       146.3574 
  69   0.0000      10.942720       297.7665 
  70   0.0000      11.530579       313.7630 
  71   0.0000      11.530580       313.7630 
  72   0.0000      11.532800       313.8234 
  73   0.0000      11.533007       313.8291 
  74   0.0000      11.534158       313.8604 
  75   0.0000      11.534357       313.8658 
  76   0.0000      11.534739       313.8762 
  77   0.0000      15.832612       430.8273 
  78   0.0000      15.832853       430.8338 
  79   0.0000      15.835969       430.9186 
  80   0.0000      85.925185      2338.1431 
  81   0.0000      95.275187      2592.5696 
  82   0.0000      95.275386      2592.5751 
  83   0.0000      95.277968      2592.6453 
  84   0.0000      95.461820      2597.6482 
  85   0.0000     358.441824      9753.6979 
  86   0.0000     780.839538     21247.7240 
CleanUpVectors: The p-vectors have cracked symmetry
CleanUpVectors: The p-vectors have cracked symmetry
CleanUpVectors: The p-vectors have cracked symmetry
CleanUpVectors: The d-vectors have cracked symmetry at i=4
CleanUpVectors: The d-vectors have cracked symmetry at i=5
CleanUpVectors: The d-vectors have cracked symmetry at i=6
CleanUpVectors: The d-vectors have cracked symmetry at i=7
CleanUpVectors: The d-vectors have cracked symmetry at i=8
CleanUpVectors: The p-vectors have cracked symmetry
CleanUpVectors: The p-vectors have cracked symmetry
CleanUpVectors: The p-vectors have cracked symmetry
CleanUpVectors: The f-vectors have cracked symmetry
CleanUpVectors: The f-vectors have cracked symmetry
CleanUpVectors: The f-vectors have cracked symmetry
CleanUpVectors: The f-vectors have cracked symmetry
CleanUpVectors: The f-vectors have cracked symmetry
CleanUpVectors: The f-vectors have cracked symmetry
CleanUpVectors: The f-vectors have cracked symmetry
CleanUpVectors: The d-vectors have cracked symmetry at i=21
CleanUpVectors: The d-vectors have cracked symmetry at i=22
CleanUpVectors: The d-vectors have cracked symmetry at i=23
CleanUpVectors: The d-vectors have cracked symmetry at i=24
CleanUpVectors: The p-vectors have cracked symmetry
CleanUpVectors: The p-vectors have cracked symmetry
CleanUpVectors: The p-vectors have cracked symmetry
CleanUpVectors: The d-vectors have cracked symmetry at i=28
CleanUpVectors: The p-vectors have cracked symmetry
CleanUpVectors: The p-vectors have cracked symmetry
CleanUpVectors: The p-vectors have cracked symmetry
CleanUpVectors: The d-vectors have cracked symmetry at i=33
CleanUpVectors: The d-vectors have cracked symmetry at i=34
CleanUpVectors: The d-vectors have cracked symmetry at i=35
CleanUpVectors: The d-vectors have cracked symmetry at i=36
CleanUpVectors: The d-vectors have cracked symmetry at i=37
CleanUpVectors: The p-vectors have cracked symmetry
CleanUpVectors: The p-vectors have cracked symmetry
CleanUpVectors: The p-vectors have cracked symmetry
CleanUpVectors: The f-vectors have cracked symmetry
CleanUpVectors: The f-vectors have cracked symmetry
CleanUpVectors: The f-vectors have cracked symmetry
CleanUpVectors: The f-vectors have cracked symmetry
CleanUpVectors: The f-vectors have cracked symmetry
CleanUpVectors: The f-vectors have cracked symmetry
CleanUpVectors: The f-vectors have cracked symmetry
CleanUpVectors: The d-vectors have cracked symmetry at i=48
CleanUpVectors: The d-vectors have cracked symmetry at i=49
CleanUpVectors: The d-vectors have cracked symmetry at i=50
CleanUpVectors: The d-vectors have cracked symmetry at i=51
CleanUpVectors: The d-vectors have cracked symmetry at i=52
CleanUpVectors: The p-vectors have cracked symmetry
CleanUpVectors: The p-vectors have cracked symmetry
CleanUpVectors: The p-vectors have cracked symmetry
CleanUpVectors: The f-vectors have cracked symmetry
CleanUpVectors: The f-vectors have cracked symmetry
CleanUpVectors: The f-vectors have cracked symmetry
CleanUpVectors: The f-vectors have cracked symmetry
CleanUpVectors: The f-vectors have cracked symmetry
CleanUpVectors: The f-vectors have cracked symmetry
CleanUpVectors: The f-vectors have cracked symmetry
CleanUpVectors: The d-vectors have cracked symmetry at i=64
CleanUpVectors: The d-vectors have cracked symmetry at i=65
CleanUpVectors: The d-vectors have cracked symmetry at i=66
CleanUpVectors: The d-vectors have cracked symmetry at i=67
CleanUpVectors: The d-vectors have cracked symmetry at i=68
CleanUpVectors: The f-vectors have cracked symmetry
CleanUpVectors: The f-vectors have cracked symmetry
CleanUpVectors: The f-vectors have cracked symmetry
CleanUpVectors: The f-vectors have cracked symmetry
CleanUpVectors: The f-vectors have cracked symmetry
CleanUpVectors: The f-vectors have cracked symmetry
CleanUpVectors: The f-vectors have cracked symmetry
CleanUpVectors: The p-vectors have cracked symmetry
CleanUpVectors: The p-vectors have cracked symmetry
CleanUpVectors: The p-vectors have cracked symmetry
CleanUpVectors: The p-vectors have cracked symmetry
CleanUpVectors: The p-vectors have cracked symmetry
CleanUpVectors: The p-vectors have cracked symmetry
--------------------------
ATOM BASIS FOR ELEMENT Lu
--------------------------
 NewGTO Lu
 S 14
    1      95169.767000000007         0.000021997186
    2      15488.403000000000         0.000144981456
    3       3776.233500000000         0.000650916740
    4       1079.050100000000         0.002037739350
    5        268.953800000000         0.005126344283
    6         63.467900000000        -0.202456912035
    7         45.133200000000         0.592724871621
    8         21.456800000000        -1.016399258288
    9          5.348300000000         0.989146816824
   10          2.677800000000         0.400766667631
   11          1.028700000000         0.016913494811
   12          0.440800000000        -0.001281396826
   13          0.079100000000         0.000327433969
   14          0.031300000000        -0.000154592538
 P 47
    1       1500.531731300000        -0.000110063387
    2        382.397489370000        -0.000642247571
    3        132.999696280000        -0.001756376158
    4         46.110032419000        -0.003846803226
    5         15.583529011000         0.025602097049
    6          5.785667702200        -0.033119730291
    7       1500.531731300000        -0.000131978702
    8        382.397489370000        -0.000770128955
    9        132.999696280000        -0.002106097704
   10         46.110032419000        -0.004612761001
   11         15.583529011000         0.030699868918
   12          5.785667702200        -0.039714378731
   13       1500.531731300000         0.001496008026
   14        382.397489370000         0.008729583479
   15        132.999696280000         0.023873087228
   16         46.110032419000         0.052286674783
   17         15.583529011000        -0.347989861550
   18          5.785667702200         0.450171340897
   19         12.333733920000        -0.010672935057
   20         11.080331415000        -0.014149235154
   21          2.034174722800        -0.013562163172
   22         12.333733920000        -0.012798078905
   23         11.080331415000        -0.016966563272
   24          2.034174722800        -0.016262596321
   25         12.333733920000         0.145069098673
   26         11.080331415000         0.192319805168
   27          2.034174722800         0.184340181678
   28          3.782336100800        -0.025479977586
   29          3.782336100800        -0.030553461267
   30          3.782336100800         0.346329998736
   31          1.368259224800         0.000067733580
   32          1.368259224800         0.000081225751
   33          1.368259224800        -0.000920657553
   34          0.572882056000        -0.000505266679
   35          0.572882056000        -0.000605857536
   36          0.572882056000         0.006867759461
   37          0.227931651300         0.000112503035
   38          0.227931651300         0.000134899735
   39          0.227931651300        -0.001529171552
   40          0.081403918000        -0.000040258075
   41          0.081403918000        -0.000048272722
   42          0.081403918000         0.000547188494
   43          0.029091071800         0.000012266555
   44          0.029091071800         0.000014708794
   45          0.029091071800        -0.000166730338
   46        175.155900000000         0.000057217489
   47         62.890900000000         0.000195757048
 D 47
    1       3776.233500000000         0.000000000000
    2       1079.050100000000         0.000000000000
    3        268.953800000000         0.000000000002
    4         63.467900000000        -0.000000000361
    5         45.133200000000         0.000000001459
    6         21.456800000000        -0.000000005363
    7          5.348300000000         0.000000029799
    8          2.677800000000         0.000000019582
    9          1.028700000000        -0.000000167528
   10        484.527500000000         0.000087241356
   11        146.665500000000         0.000710944548
   12         56.377900000000         0.002827444294
   13         23.671100000000         0.006165437527
   14          9.440100000000         0.011757776425
   15          4.371200000000         0.017109915369
   16        484.527500000000        -0.000107030003
   17        146.665500000000        -0.000872205571
   18         56.377900000000        -0.003468783426
   19         23.671100000000        -0.007563921792
   20          9.440100000000        -0.014424751032
   21          4.371200000000        -0.020990896616
   22        484.527500000000        -0.000678124753
   23        146.665500000000        -0.005526153142
   24         56.377900000000        -0.021977649611
   25         23.671100000000        -0.047923782610
   26          9.440100000000        -0.091392884751
   27          4.371200000000        -0.132994919010
   28        484.527500000000        -0.000309685301
   29        146.665500000000        -0.002523677822
   30         56.377900000000        -0.010036729979
   31         23.671100000000        -0.021885782790
   32          9.440100000000        -0.041737206775
   33          4.371200000000        -0.060735980158
   34        484.527500000000         0.002157548654
   35        146.665500000000         0.017582228380
   36         56.377900000000         0.069924963130
   37         23.671100000000         0.152476210666
   38          9.440100000000         0.290779232978
   39          4.371200000000         0.423141917944
   40          1.958000000000         0.008978994055
   41          1.958000000000        -0.011015396901
   42          1.958000000000        -0.069791868303
   43          1.958000000000        -0.031872464006
   44          1.958000000000         0.222052465219
   45          0.727200000000         0.001106683242
   46          0.727200000000        -0.001357733358
   47          0.727200000000        -0.008602337455
 S 14
    1      95169.767000000007        -0.000011773031
    2      15488.403000000000        -0.000077594980
    3       3776.233500000000        -0.000348374700
    4       1079.050100000000        -0.001090610813
    5        268.953800000000        -0.002743651442
    6         63.467900000000         0.087962332610
    7         45.133200000000        -0.269172587802
    8         21.456800000000         0.510265686710
    9          5.348300000000        -0.733343930539
   10          2.677800000000        -0.436780422042
   11          1.028700000000         0.762670165014
   12          0.440800000000         0.627803887164
   13          0.079100000000         0.026372293148
   14          0.031300000000        -0.007958331304
 S 14
    1      95169.767000000007        -0.000003259433
    2      15488.403000000000        -0.000021482629
    3       3776.233500000000        -0.000096449597
    4       1079.050100000000        -0.000301942055
    5        268.953800000000        -0.000759596133
    6         63.467900000000         0.023745591167
    7         45.133200000000        -0.072846828493
    8         21.456800000000         0.139527136406
    9          5.348300000000        -0.212349231341
   10          2.677800000000        -0.132529295125
   11          1.028700000000         0.273997517732
   12          0.440800000000         0.425853181627
   13          0.079100000000        -0.697394096107
   14          0.031300000000        -0.492782062133
 S 14
    1      95169.767000000007        -0.000003053927
    2      15488.403000000000        -0.000020128158
    3       3776.233500000000        -0.000090368489
    4       1079.050100000000        -0.000282904733
    5        268.953800000000        -0.000711703908
    6         63.467900000000         0.023233387465
    7         45.133200000000        -0.067558863238
    8         21.456800000000         0.123629228905
    9          5.348300000000        -0.213916285376
   10          2.677800000000        -0.012829617757
   11          1.028700000000         0.008656584256
   12          0.440800000000         0.746458652318
   13          0.079100000000        -2.422077588581
   14          0.031300000000         2.086541136109
 S 14
    1      95169.767000000007        -0.000005506776
    2      15488.403000000000        -0.000036294658
    3       3776.233500000000        -0.000162950500
    4       1079.050100000000        -0.000510127680
    5        268.953800000000        -0.001283329055
    6         63.467900000000         0.025175468128
    7         45.133200000000        -0.127077038492
    8         21.456800000000         0.323756617885
    9          5.348300000000        -0.153053253919
   10          2.677800000000        -1.925636125554
   11          1.028700000000         4.753150520303
   12          0.440800000000        -3.878432813038
   13          0.079100000000         1.529636931303
   14          0.031300000000        -0.691385466547
 S 14
    1      95169.767000000007         0.000061182723
    2      15488.403000000000         0.000403249768
    3       3776.233500000000         0.001810452401
    4       1079.050100000000         0.005667745000
    5        268.953800000000         0.014258355553
    6         63.467900000000        -0.485498786261
    7         45.133200000000         1.222093913437
    8         21.456800000000        -1.994156552253
    9          5.348300000000         6.492000861926
   10          2.677800000000        -8.681093026264
   11          1.028700000000         5.598972364178
   12          0.440800000000        -2.371647278302
   13          0.079100000000         0.583197457850
   14          0.031300000000        -0.259902349674
 S 14
    1      95169.767000000007         0.003032139540
    2      15488.403000000000         0.019984556036
    3       3776.233500000000         0.089723765159
    4       1079.050100000000         0.280886380122
    5        268.953800000000         0.706626335078
    6         63.467900000000        -0.655998615762
    7         45.133200000000         0.707545422828
    8         21.456800000000         0.200102941578
    9          5.348300000000        -0.425410109256
   10          2.677800000000         0.408637907064
   11          1.028700000000        -0.203924145021
   12          0.440800000000         0.081163670395
   13          0.079100000000        -0.020378101531
   14          0.031300000000         0.009202785467
 S 14
    1      95169.767000000007         0.000775781562
    2      15488.403000000000         0.005113105741
    3       3776.233500000000         0.022956081583
    4       1079.050100000000         0.071865582616
    5        268.953800000000         0.180792366080
    6         63.467900000000        -5.063480719948
    7         45.133200000000         9.587220392734
    8         21.456800000000        -6.941698606310
    9          5.348300000000         4.722601292049
   10          2.677800000000        -4.023104487966
   11          1.028700000000         1.871955402389
   12          0.440800000000        -0.728061098015
   13          0.079100000000         0.180544148046
   14          0.031300000000        -0.081423805629
 S 14
    1      95169.767000000007        -0.000417767837
    2      15488.403000000000        -0.002753469829
    3       3776.233500000000        -0.012362130029
    4       1079.050100000000        -0.038700493099
    5        268.953800000000        -0.097358895053
    6         63.467900000000        -7.949668101202
    7         45.133200000000        12.314604060436
    8         21.456800000000        -4.943509958306
    9          5.348300000000         2.183895804324
   10          2.677800000000        -1.757116964584
   11          1.028700000000         0.803546893544
   12          0.440800000000        -0.313384146133
   13          0.079100000000         0.078286837162
   14          0.031300000000        -0.035373274558
 S 14
    1      95169.767000000007        -0.003926632684
    2      15488.403000000000        -0.025880079023
    3       3776.233500000000        -0.116192630366
    4       1079.050100000000        -0.363748971997
    5        268.953800000000        -0.915083895696
    6         63.467900000000        10.750586319710
    7         45.133200000000       -12.558779411237
    8         21.456800000000         3.857115295379
    9          5.348300000000        -1.519436882139
   10          2.677800000000         1.211802095445
   11          1.028700000000        -0.553545122017
   12          0.440800000000         0.216171353990
   13          0.079100000000        -0.054100043557
   14          0.031300000000         0.024454635636
 P 47
    1       1500.531731300000        -0.000063864441
    2        382.397489370000        -0.000372665090
    3        132.999696280000        -0.001019139827
    4         46.110032419000        -0.002232113181
    5         15.583529011000         0.014855654144
    6          5.785667702200        -0.019217771794
    7       1500.531731300000        -0.000070714763
    8        382.397489370000        -0.000412638448
    9        132.999696280000        -0.001128456321
   10         46.110032419000        -0.002471537430
   11         15.583529011000         0.016449123446
   12          5.785667702200        -0.021279137056
   13       1500.531731300000         0.000852643912
   14        382.397489370000         0.004975391894
   15        132.999696280000         0.013606372511
   16         46.110032419000         0.029800585390
   17         15.583529011000        -0.198335457881
   18          5.785667702200         0.256573391604
   19         12.333733920000        -0.008062453553
   20         11.080331415000        -0.010688489214
   21          2.034174722800        -0.010245008525
   22         12.333733920000        -0.008927258453
   23         11.080331415000        -0.011834971211
   24          2.034174722800        -0.011343921346
   25         12.333733920000         0.107640527528
   26         11.080331415000         0.142700309519
   27          2.034174722800         0.136779469797
   28          3.782336100800        -0.010696570623
   29          3.782336100800        -0.011843968067
   30          3.782336100800         0.142808089148
   31          1.368259224800         0.033921568099
   32          1.368259224800         0.037560144435
   33          1.368259224800        -0.452881403547
   34          0.572882056000         0.045376269766
   35          0.572882056000         0.050243545068
   36          0.572882056000        -0.605807676004
   37          0.227931651300         0.015183240542
   38          0.227931651300         0.016811656825
   39          0.227931651300        -0.202719597150
   40          0.081403918000         0.000026099340
   41          0.081403918000         0.000029103293
   42          0.081403918000        -0.000344715813
   43          0.029091071800         0.000200249964
   44          0.029091071800         0.000221543474
   45          0.029091071800        -0.002673178251
   46        175.155900000000        -0.001221795264
   47         62.890900000000        -0.004180103621
 F 47
    1       1500.531731300000         0.000000000037
    2        382.397489370000         0.000000000855
    3        132.999696280000         0.000000006720
    4         46.110032419000         0.000000042453
    5         15.583529011000        -0.000000836014
    6          5.785667702200         0.000002912978
    7       1500.531731300000         0.000000000039
    8        382.397489370000         0.000000000882
    9        132.999696280000         0.000000006936
   10         46.110032419000         0.000000043817
   11         15.583529011000        -0.000000862871
   12          5.785667702200         0.000003006557
   13       1500.531731300000        -0.000000000491
   14        382.397489370000        -0.000000011241
   15        132.999696280000        -0.000000088388
   16         46.110032419000        -0.000000558383
   17         15.583529011000         0.000010996066
   18          5.785667702200        -0.000038314303
   19         12.333733920000         0.000000619925
   20         11.080331415000         0.000000914808
   21          2.034174722800         0.000004776289
   22         12.333733920000         0.000000640006
   23         11.080331415000         0.000000944441
   24          2.034174722800         0.000004931002
   25         12.333733920000        -0.000008154304
   26         11.080331415000        -0.000012033109
   27          2.034174722800        -0.000062825846
   28          3.782336100800         0.000001201009
   29          3.782336100800         0.000001235232
   30          3.782336100800        -0.000015784816
   31          1.368259224800        -0.000030200819
   32          1.368259224800        -0.000031183155
   33          1.368259224800         0.000397256840
   34          0.572882056000        -0.000055147882
   35          0.572882056000        -0.000056976003
   36          0.572882056000         0.000725493646
   37          0.227931651300         0.000131239112
   38          0.227931651300         0.000136079758
   39          0.227931651300        -0.001728144727
   40          0.081403918000         0.000397806855
   41          0.081403918000         0.000412762018
   42          0.081403918000        -0.005231668713
   43          0.029091071800         0.000184109728
   44        175.155900000000         0.000102858541
   45         62.890900000000         0.000980089944
   46         28.362400000000         0.003687160254
   47         13.247800000000         0.006797690811
 D 47
    1      95169.767000000007         0.000000000000
    2      15488.403000000000         0.000000000000
    3       3776.233500000000         0.000000000001
    4       1079.050100000000         0.000000000009
    5        268.953800000000         0.000000000087
    6         63.467900000000        -0.000000011769
    7         45.133200000000         0.000000049653
    8         21.456800000000        -0.000000196450
    9          5.348300000000         0.000001268232
   10          2.677800000000         0.000000962185
   11          1.028700000000        -0.000004924501
   12          0.440800000000        -0.000043713130
   13          0.079100000000         0.000871378214
   14          0.031300000000        -0.001824199339
   15        484.527500000000         0.000020200512
   16        146.665500000000         0.000164617380
   17         56.377900000000         0.000654687449
   18         23.671100000000         0.001427591191
   19          9.440100000000         0.002722482869
   20          4.371200000000         0.003961756866
   21        484.527500000000        -0.000024544251
   22        146.665500000000        -0.000200015247
   23         56.377900000000        -0.000795465654
   24         23.671100000000        -0.001734567788
   25          9.440100000000        -0.003307901533
   26          4.371200000000        -0.004813658062
   27        484.527500000000        -0.000155738484
   28        146.665500000000        -0.001269139207
   29         56.377900000000        -0.005047398449
   30         23.671100000000        -0.011006200859
   31          9.440100000000        -0.020989337483
   32          4.371200000000        -0.030543682325
   33        484.527500000000        -0.000071084569
   34        146.665500000000        -0.000579280156
   35         56.377900000000        -0.002303811707
   36         23.671100000000        -0.005023620513
   37          9.440100000000        -0.009580278217
   38          4.371200000000        -0.013941220141
   39        484.527500000000         0.000495157093
   40        146.665500000000         0.004035118781
   41         56.377900000000         0.016047768572
   42         23.671100000000         0.034993267525
   43          9.440100000000         0.066733790444
   44          4.371200000000         0.097111006832
   45          1.958000000000        -0.002273343741
   46          1.958000000000         0.002764395342
   47          1.958000000000         0.017539623606
 P 47
    1       1500.531731300000        -0.000031708413
    2        382.397489370000        -0.000185026576
    3        132.999696280000        -0.000505998435
    4         46.110032419000        -0.001108234364
    5         15.583529011000         0.007375766855
    6          5.785667702200        -0.009541539057
    7       1500.531731300000         0.000102918004
    8        382.397489370000         0.000600552465
    9        132.999696280000         0.001642351140
   10         46.110032419000         0.003597066400
   11         15.583529011000        -0.023939993194
   12          5.785667702200         0.030969577070
   13       1500.531731300000         0.000005934628
   14        382.397489370000         0.000034630049
   15        132.999696280000         0.000094703965
   16         46.110032419000         0.000207419987
   17         15.583529011000        -0.001380467450
   18          5.785667702200         0.001785818932
   19         12.333733920000        -0.004100217500
   20         11.080331415000        -0.005435706418
   21          2.034174722800        -0.005210171193
   22         12.333733920000         0.013308334589
   23         11.080331415000         0.017643015216
   24          2.034174722800         0.016910981308
   25         12.333733920000         0.000767408051
   26         11.080331415000         0.001017361852
   27          2.034174722800         0.000975150055
   28          3.782336100800        -0.003356394395
   29          3.782336100800         0.010894156578
   30          3.782336100800         0.000628127752
   31          1.368259224800         0.013997566084
   32          1.368259224800        -0.045433072067
   33          1.368259224800        -0.002619685768
   34          0.572882056000         0.039927513311
   35          0.572882056000        -0.129594600065
   36          0.572882056000        -0.007473044692
   37          0.227931651300        -0.018442093816
   38          0.227931651300         0.059856710871
   39          0.227931651300         0.003452832950
   40          0.081403918000         0.046018384477
   41          0.081403918000        -0.149357993092
   42          0.081403918000        -0.008619361870
   43          0.029091071800        -0.322636102751
   44          0.029091071800         1.047188832435
   45          0.029091071800         0.060394669105
   46        175.155900000000         0.000937668237
   47         62.890900000000         0.003208025526
 P 47
    1       1500.531731300000        -0.000015919990
    2        382.397489370000        -0.000092897150
    3        132.999696280000        -0.000254048978
    4         46.110032419000        -0.000556416360
    5         15.583529011000         0.003703185430
    6          5.785667702200        -0.004790564711
    7       1500.531731300000        -0.000017870859
    8        382.397489370000        -0.000104280964
    9        132.999696280000        -0.000285180681
   10         46.110032419000        -0.000624600806
   11         15.583529011000         0.004156981657
   12          5.785667702200        -0.005377610711
   13       1500.531731300000         0.000213399570
   14        382.397489370000         0.001245240219
   15        132.999696280000         0.003405400549
   16         46.110032419000         0.007458485336
   17         15.583529011000        -0.049639363954
   18          5.785667702200         0.064215143892
   19         12.333733920000        -0.002038425659
   20         11.080331415000        -0.002702364799
   21          2.034174722800        -0.002590239822
   22         12.333733920000        -0.002288218848
   23         11.080331415000        -0.003033518558
   24          2.034174722800        -0.002907653539
   25         12.333733920000         0.027324085213
   26         11.080331415000         0.036223860165
   27          2.034174722800         0.034720880452
   28          3.782336100800        -0.004231589394
   29          3.782336100800        -0.004750092029
   30          3.782336100800         0.056722213060
   31          1.368259224800         0.014768923197
   32          1.368259224800         0.016578577072
   33          1.368259224800        -0.197970138405
   34          0.572882056000         0.002628525468
   35          0.572882056000         0.002951318585
   36          0.572882056000        -0.035230756417
   37          0.227931651300         0.043943294784
   38          0.227931651300         0.049325379119
   39          0.227931651300        -0.589040705019
   40          0.081403918000        -0.145507010006
   41          0.081403918000        -0.163332013653
   42          0.081403918000         1.950416622889
   43          0.029091071800         0.086624086585
   44          0.029091071800         0.097236614398
   45          0.029091071800        -1.161094654290
   46        175.155900000000         0.000487331112
   47         62.890900000000         0.001667296156
 D 47
    1      95169.767000000007        -0.000000000000
    2      15488.403000000000        -0.000000000000
    3       3776.233500000000        -0.000000000000
    4       1079.050100000000        -0.000000000002
    5        268.953800000000        -0.000000000023
    6         63.467900000000         0.000000002990
    7         45.133200000000        -0.000000013126
    8         21.456800000000         0.000000053600
    9          5.348300000000        -0.000000312171
   10          2.677800000000        -0.000000520807
   11          1.028700000000         0.000002701082
   12          0.440800000000         0.000007616247
   13          0.079100000000        -0.000167150292
   14          0.031300000000         0.000298164207
   15        484.527500000000         0.000018100858
   16        146.665500000000         0.000147506949
   17         56.377900000000         0.000586638833
   18         23.671100000000         0.001279206485
   19          9.440100000000         0.002439506326
   20          4.371200000000         0.003549969423
   21        484.527500000000        -0.000023118814
   22        146.665500000000        -0.000188399119
   23         56.377900000000        -0.000749268020
   24         23.671100000000        -0.001633830657
   25          9.440100000000        -0.003115791134
   26          4.371200000000        -0.004534099023
   27        484.527500000000        -0.000146797145
   28        146.665500000000        -0.001196274725
   29         56.377900000000        -0.004757614578
   30         23.671100000000        -0.010374307117
   31          9.440100000000        -0.019784286695
   32          4.371200000000        -0.028790092510
   33        484.527500000000        -0.000067011494
   34        146.665500000000        -0.000546087986
   35         56.377900000000        -0.002171805612
   36         23.671100000000        -0.004735772108
   37          9.440100000000        -0.009031337905
   38          4.371200000000        -0.013142402240
   39        484.527500000000         0.000467481195
   40        146.665500000000         0.003809583210
   41         56.377900000000         0.015150807948
   42         23.671100000000         0.033037382947
   43          9.440100000000         0.063003827489
   44          4.371200000000         0.091683165020
   45          1.958000000000        -0.002946918089
   46          1.958000000000         0.003767354871
   47          1.958000000000         0.023921043559
 P 47
    1       1500.531731300000        -0.000044452321
    2        382.397489370000        -0.000259390483
    3        132.999696280000        -0.000709363929
    4         46.110032419000        -0.001553644097
    5         15.583529011000         0.010340156386
    6          5.785667702200        -0.013376372647
    7       1500.531731300000        -0.000049540652
    8        382.397489370000        -0.000289082176
    9        132.999696280000        -0.000790562806
   10         46.110032419000        -0.001731485330
   11         15.583529011000         0.011523764761
   12          5.785667702200        -0.014907528086
   13       1500.531731300000         0.000594669069
   14        382.397489370000         0.003470043737
   15        132.999696280000         0.009489645985
   16         46.110032419000         0.020784158693
   17         15.583529011000        -0.138327337434
   18          5.785667702200         0.178944877008
   19         12.333733920000        -0.005904384047
   20         11.080331415000        -0.007827511164
   21          2.034174722800        -0.007502736543
   22         12.333733920000        -0.006580240196
   23         11.080331415000        -0.008723501587
   24          2.034174722800        -0.008361551043
   25         12.333733920000         0.078986987583
   26         11.080331415000         0.104713975628
   27          2.034174722800         0.100369243171
   28          3.782336100800         0.002172621387
   29          3.782336100800         0.002421181183
   30          3.782336100800        -0.029065850119
   31          1.368259224800         0.000805075631
   32          1.368259224800         0.000897578002
   33          1.368259224800        -0.010767805989
   34          0.572882056000         0.125378587917
   35          0.572882056000         0.139730091073
   36          0.572882056000        -1.677269009044
   37          0.227931651300        -0.210092791920
   38          0.227931651300        -0.234142247324
   39          0.227931651300         2.810529638233
   40          0.081403918000         0.134349081034
   41          0.081403918000         0.149729146564
   42          0.081403918000        -1.797255803640
   43          0.029091071800        -0.044226385488
   44          0.029091071800        -0.049289303405
   45          0.029091071800         0.591638579361
   46        175.155900000000        -0.000785951395
   47         62.890900000000        -0.002688959739
 F 47
    1       1500.531731300000        -0.000000000011
    2        382.397489370000        -0.000000000258
    3        132.999696280000        -0.000000002032
    4         46.110032419000        -0.000000012838
    5         15.583529011000         0.000000252809
    6          5.785667702200        -0.000000880878
    7       1500.531731300000        -0.000000000009
    8        382.397489370000        -0.000000000211
    9        132.999696280000        -0.000000001659
   10         46.110032419000        -0.000000010482
   11         15.583529011000         0.000000206417
   12          5.785667702200        -0.000000719232
   13       1500.531731300000         0.000000000142
   14        382.397489370000         0.000000003250
   15        132.999696280000         0.000000025555
   16         46.110032419000         0.000000161441
   17         15.583529011000        -0.000003179218
   18          5.785667702200         0.000011077555
   19         12.333733920000        -0.000000206060
   20         11.080331415000        -0.000000304078
   21          2.034174722800        -0.000001587617
   22         12.333733920000        -0.000000170585
   23         11.080331415000        -0.000000251728
   24          2.034174722800        -0.000001314290
   25         12.333733920000         0.000002596268
   26         11.080331415000         0.000003831250
   27          2.034174722800         0.000020003269
   28          3.782336100800         0.000003036144
   29          3.782336100800         0.000002752749
   30          3.782336100800        -0.000038802538
   31          1.368259224800        -0.000024370045
   32          1.368259224800        -0.000022390915
   33          1.368259224800         0.000312091523
   34          0.572882056000         0.000283008314
   35          0.572882056000         0.000251744144
   36          0.572882056000        -0.003602547611
   37          0.227931651300        -0.001208539989
   38          0.227931651300        -0.001075363385
   39          0.227931651300         0.015375751996
   40          0.081403918000         0.000954098137
   41          0.081403918000         0.000814719660
   42          0.081403918000        -0.012046853262
   43          0.029091071800        -0.001139829447
   44          0.029091071800        -0.000995022710
   45          0.029091071800         0.014455519250
   46        175.155900000000         0.000040991317
   47         62.890900000000         0.000390586689
 D 47
    1       3776.233500000000         0.000000000000
    2       1079.050100000000         0.000000000000
    3        268.953800000000         0.000000000002
    4         63.467900000000        -0.000000000325
    5         45.133200000000         0.000000001387
    6         21.456800000000        -0.000000005567
    7          5.348300000000         0.000000035737
    8          2.677800000000         0.000000060499
    9          1.028700000000        -0.000000749818
   10          0.440800000000         0.000001797635
   11          0.079100000000        -0.000012370999
   12          0.031300000000         0.000024058969
   13        484.527500000000         0.000035909754
   14        146.665500000000         0.000292634649
   15         56.377900000000         0.001163815335
   16         23.671100000000         0.002537779704
   17          9.440100000000         0.004839664054
   18          4.371200000000         0.007042678767
   19        484.527500000000        -0.000044344355
   20        146.665500000000        -0.000361369637
   21         56.377900000000        -0.001437176106
   22         23.671100000000        -0.003133861741
   23          9.440100000000        -0.005976420252
   24          4.371200000000        -0.008696886300
   25        484.527500000000        -0.000281185053
   26        146.665500000000        -0.002291424486
   27         56.377900000000        -0.009113052637
   28         23.671100000000        -0.019871640563
   29          9.440100000000        -0.037896143769
   30          4.371200000000        -0.055146465561
   31        484.527500000000        -0.000128368971
   32        146.665500000000        -0.001046100422
   33         56.377900000000        -0.004160367610
   34         23.671100000000        -0.009071968862
   35          9.440100000000        -0.017300667008
   36          4.371200000000        -0.025175929327
   37        484.527500000000         0.000894568245
   38        146.665500000000         0.007289987713
   39         56.377900000000         0.028992463926
   40         23.671100000000         0.063220069620
   41          9.440100000000         0.120563616269
   42          4.371200000000         0.175444165320
   43          1.958000000000        -0.001290543249
   44          1.958000000000         0.001593413285
   45          1.958000000000         0.010103718802
   46          1.958000000000         0.004612666347
   47          1.958000000000        -0.032144223960
 P 47
    1       1500.531731300000        -0.000065136940
    2        382.397489370000        -0.000380090447
    3        132.999696280000        -0.001039446202
    4         46.110032419000        -0.002276588067
    5         15.583529011000         0.015151653256
    6          5.785667702200        -0.019600686160
    7       1500.531731300000        -0.000074446947
    8        382.397489370000        -0.000434416679
    9        132.999696280000        -0.001188013987
   10         46.110032419000        -0.002601980229
   11         15.583529011000         0.017317275261
   12          5.785667702200        -0.022402207324
   13       1500.531731300000         0.000875753781
   14        382.397489370000         0.005110243798
   15        132.999696280000         0.013975156574
   16         46.110032419000         0.030608293759
   17         15.583529011000        -0.203711097553
   18          5.785667702200         0.263527499143
   19         12.333733920000        -0.008636497925
   20         11.080331415000        -0.011449506569
   21          2.034174722800        -0.010974450184
   22         12.333733920000        -0.009870909007
   23         11.080331415000        -0.013085979816
   24          2.034174722800        -0.012543023817
   25         12.333733920000         0.116116078448
   26         11.080331415000         0.153936446757
   27          2.034174722800         0.147549403647
   28          3.782336100800        -0.052773442301
   29          3.782336100800        -0.060316288703
   30          3.782336100800         0.709528639313
   31          1.368259224800         0.231095153338
   32          1.368259224800         0.264125536463
   33          1.368259224800        -3.107027739420
   34          0.572882056000        -0.260774893410
   35          0.572882056000        -0.298047745469
   36          0.572882056000         3.506061722376
   37          0.227931651300         0.153757396164
   38          0.227931651300         0.175734354382
   39          0.227931651300        -2.067231797123
   40          0.081403918000        -0.063638070652
   41          0.081403918000        -0.072734022149
   42          0.081403918000         0.855598496248
   43          0.029091071800         0.019415240049
   44          0.029091071800         0.022190279521
   45          0.029091071800        -0.261033453619
   46        175.155900000000        -0.000887940024
   47         62.890900000000        -0.003037891387
 F 47
    1       1500.531731300000        -0.000000000025
    2        382.397489370000        -0.000000000568
    3        132.999696280000        -0.000000004466
    4         46.110032419000        -0.000000028215
    5         15.583529011000         0.000000555634
    6          5.785667702200        -0.000001936032
    7       1500.531731300000        -0.000000000027
    8        382.397489370000        -0.000000000618
    9        132.999696280000        -0.000000004857
   10         46.110032419000        -0.000000030685
   11         15.583529011000         0.000000604279
   12          5.785667702200        -0.000002105530
   13       1500.531731300000         0.000000000330
   14        382.397489370000         0.000000007559
   15        132.999696280000         0.000000059434
   16         46.110032419000         0.000000375468
   17         15.583529011000        -0.000007393976
   18          5.785667702200         0.000025763309
   19         12.333733920000        -0.000000378190
   20         11.080331415000        -0.000000558086
   21          2.034174722800        -0.000002913812
   22         12.333733920000        -0.000000411479
   23         11.080331415000        -0.000000607209
   24          2.034174722800        -0.000003170289
   25         12.333733920000         0.000005032901
   26         11.080331415000         0.000007426930
   27          2.034174722800         0.000038776610
   28          3.782336100800        -0.000010659002
   29          3.782336100800        -0.000011535187
   30          3.782336100800         0.000141692834
   31          1.368259224800         0.000112472172
   32          1.368259224800         0.000121887783
   33          1.368259224800        -0.001495413660
   34          0.572882056000        -0.000317294947
   35          0.572882056000        -0.000343784689
   36          0.572882056000         0.004218228637
   37          0.227931651300         0.000559975383
   38          0.227931651300         0.000606808448
   39          0.227931651300        -0.007445212897
   40          0.081403918000        -0.000659453277
   41          0.081403918000        -0.000714350120
   42          0.081403918000         0.008766621465
   43          0.029091071800         0.000542590244
   44          0.029091071800         0.000587763712
   45          0.029091071800        -0.007213789349
   46        175.155900000000         0.000067364269
   47         62.890900000000         0.000641881959
 D 47
    1         45.133200000000         0.000000000313
    2         21.456800000000        -0.000000002602
    3          5.348300000000        -0.000000005027
    4          2.677800000000         0.000000199834
    5          1.028700000000        -0.000001081308
    6          0.440800000000         0.000001862780
    7          0.079100000000        -0.000003514788
    8        484.527500000000         0.000090921338
    9        146.665500000000         0.000740933341
   10         56.377900000000         0.002946710477
   11         23.671100000000         0.006425505675
   12          9.440100000000         0.012253738492
   13          4.371200000000         0.017831639332
   14        484.527500000000        -0.000111778550
   15        146.665500000000        -0.000910902280
   16         56.377900000000        -0.003622681209
   17         23.671100000000        -0.007899506534
   18          9.440100000000        -0.015064726759
   19          4.371200000000        -0.021922189246
   20        484.527500000000        -0.000706629926
   21        146.665500000000        -0.005758446611
   22         56.377900000000        -0.022901486562
   23         23.671100000000        -0.049938272876
   24          9.440100000000        -0.095234611483
[...]
  BAS[ATNO][ 25].a[  8] =       132.999696280000;     BAS[ATNO][ 25].d[  8] =         0.008563879942;
  BAS[ATNO][ 25].a[  9] =        46.110032419000;     BAS[ATNO][ 25].d[  9] =         0.018756552143;
  BAS[ATNO][ 25].a[ 10] =        15.583529011000;     BAS[ATNO][ 25].d[ 10] =        -0.124832761129;
  BAS[ATNO][ 25].a[ 11] =         5.785667702200;     BAS[ATNO][ 25].d[ 11] =         0.161487841097;
  BAS[ATNO][ 25].a[ 12] =      1500.531731300000;     BAS[ATNO][ 25].d[ 12] =        -0.006173698075;
  BAS[ATNO][ 25].a[ 13] =       382.397489370000;     BAS[ATNO][ 25].d[ 13] =        -0.036025082616;
  BAS[ATNO][ 25].a[ 14] =       132.999696280000;     BAS[ATNO][ 25].d[ 14] =        -0.098519012018;
  BAS[ATNO][ 25].a[ 15] =        46.110032419000;     BAS[ATNO][ 25].d[ 15] =        -0.215775676271;
  BAS[ATNO][ 25].a[ 16] =        15.583529011000;     BAS[ATNO][ 25].d[ 16] =         1.436078083442;
  BAS[ATNO][ 25].a[ 17] =         5.785667702200;     BAS[ATNO][ 25].d[ 17] =        -1.857758710489;
  BAS[ATNO][ 25].a[ 18] =        12.333733920000;     BAS[ATNO][ 25].d[ 18] =         0.078888848894;
  BAS[ATNO][ 25].a[ 19] =        11.080331415000;     BAS[ATNO][ 25].d[ 19] =         0.104583872016;
  BAS[ATNO][ 25].a[ 20] =         2.034174722800;     BAS[ATNO][ 25].d[ 20] =         0.100244537744;
  BAS[ATNO][ 25].a[ 21] =        12.333733920000;     BAS[ATNO][ 25].d[ 21] =         0.092787968716;
  BAS[ATNO][ 25].a[ 22] =        11.080331415000;     BAS[ATNO][ 25].d[ 22] =         0.123010098143;
  BAS[ATNO][ 25].a[ 23] =         2.034174722800;     BAS[ATNO][ 25].d[ 23] =         0.117906233422;
  BAS[ATNO][ 25].a[ 24] =        12.333733920000;     BAS[ATNO][ 25].d[ 24] =        -1.067434192742;
  BAS[ATNO][ 25].a[ 25] =        11.080331415000;     BAS[ATNO][ 25].d[ 25] =        -1.415110025879;
  BAS[ATNO][ 25].a[ 26] =         2.034174722800;     BAS[ATNO][ 25].d[ 26] =        -1.356395089091;
  BAS[ATNO][ 25].a[ 27] =         3.782336100800;     BAS[ATNO][ 25].d[ 27] =        -0.354007482855;
  BAS[ATNO][ 25].a[ 28] =         3.782336100800;     BAS[ATNO][ 25].d[ 28] =        -0.416378713938;
  BAS[ATNO][ 25].a[ 29] =         3.782336100800;     BAS[ATNO][ 25].d[ 29] =         4.790026454903;
  BAS[ATNO][ 25].a[ 30] =         1.368259224800;     BAS[ATNO][ 25].d[ 30] =         0.127163345060;
  BAS[ATNO][ 25].a[ 31] =         1.368259224800;     BAS[ATNO][ 25].d[ 31] =         0.149567864362;
  BAS[ATNO][ 25].a[ 32] =         1.368259224800;     BAS[ATNO][ 25].d[ 32] =        -1.720628978594;
  BAS[ATNO][ 25].a[ 33] =         0.572882056000;     BAS[ATNO][ 25].d[ 33] =        -0.111011921198;
  BAS[ATNO][ 25].a[ 34] =         0.572882056000;     BAS[ATNO][ 25].d[ 34] =        -0.130570799336;
  BAS[ATNO][ 25].a[ 35] =         0.572882056000;     BAS[ATNO][ 25].d[ 35] =         1.502086019867;
  BAS[ATNO][ 25].a[ 36] =         0.227931651300;     BAS[ATNO][ 25].d[ 36] =         0.054852345044;
  BAS[ATNO][ 25].a[ 37] =         0.227931651300;     BAS[ATNO][ 25].d[ 37] =         0.064516635276;
  BAS[ATNO][ 25].a[ 38] =         0.227931651300;     BAS[ATNO][ 25].d[ 38] =        -0.742198823576;
  BAS[ATNO][ 25].a[ 39] =         0.081403918000;     BAS[ATNO][ 25].d[ 39] =        -0.022311804217;
  BAS[ATNO][ 25].a[ 40] =         0.081403918000;     BAS[ATNO][ 25].d[ 40] =        -0.026242855081;
  BAS[ATNO][ 25].a[ 41] =         0.081403918000;     BAS[ATNO][ 25].d[ 41] =         0.301897682910;
  BAS[ATNO][ 25].a[ 42] =         0.029091071800;     BAS[ATNO][ 25].d[ 42] =         0.006955879411;
  BAS[ATNO][ 25].a[ 43] =         0.029091071800;     BAS[ATNO][ 25].d[ 43] =         0.008181412279;
  BAS[ATNO][ 25].a[ 44] =         0.029091071800;     BAS[ATNO][ 25].d[ 44] =        -0.094118995378;
  BAS[ATNO][ 25].a[ 45] =       175.155900000000;     BAS[ATNO][ 25].d[ 45] =        -0.000070586897;
  BAS[ATNO][ 25].a[ 46] =        62.890900000000;     BAS[ATNO][ 25].d[ 46] =        -0.000241497535;

  // Basis function  27 L = p
  InitBFNGauss(BAS[ATNO][ 26]);
  BAS[ATNO][ 26].l  = 1;
  BAS[ATNO][ 26].ng = 47;
  BAS[ATNO][ 26].a[  0] =      1500.531731300000;     BAS[ATNO][ 26].d[  0] =         0.001444033899;
  BAS[ATNO][ 26].a[  1] =       382.397489370000;     BAS[ATNO][ 26].d[  1] =         0.008426301365;
  BAS[ATNO][ 26].a[  2] =       132.999696280000;     BAS[ATNO][ 26].d[  2] =         0.023043691373;
  BAS[ATNO][ 26].a[  3] =        46.110032419000;     BAS[ATNO][ 26].d[  3] =         0.050470137570;
  BAS[ATNO][ 26].a[  4] =        15.583529011000;     BAS[ATNO][ 26].d[  4] =        -0.335900040657;
  BAS[ATNO][ 26].a[  5] =         5.785667702200;     BAS[ATNO][ 26].d[  5] =         0.434531543639;
  BAS[ATNO][ 26].a[  6] =      1500.531731300000;     BAS[ATNO][ 26].d[  6] =         0.001723518275;
  BAS[ATNO][ 26].a[  7] =       382.397489370000;     BAS[ATNO][ 26].d[  7] =         0.010057163063;
  BAS[ATNO][ 26].a[  8] =       132.999696280000;     BAS[ATNO][ 26].d[  8] =         0.027503664024;
  BAS[ATNO][ 26].a[  9] =        46.110032419000;     BAS[ATNO][ 26].d[  9] =         0.060238339617;
  BAS[ATNO][ 26].a[ 10] =        15.583529011000;     BAS[ATNO][ 26].d[ 10] =        -0.400911542960;
  BAS[ATNO][ 26].a[ 11] =         5.785667702200;     BAS[ATNO][ 26].d[ 11] =         0.518632600593;
  BAS[ATNO][ 26].a[ 12] =      1500.531731300000;     BAS[ATNO][ 26].d[ 12] =        -0.019605798318;
  BAS[ATNO][ 26].a[ 13] =       382.397489370000;     BAS[ATNO][ 26].d[ 13] =        -0.114404769325;
  BAS[ATNO][ 26].a[ 14] =       132.999696280000;     BAS[ATNO][ 26].d[ 14] =        -0.312866592539;
  BAS[ATNO][ 26].a[ 15] =        46.110032419000;     BAS[ATNO][ 26].d[ 15] =        -0.685238302789;
  BAS[ATNO][ 26].a[ 16] =        15.583529011000;     BAS[ATNO][ 26].d[ 16] =         4.560549759713;
  BAS[ATNO][ 26].a[ 17] =         5.785667702200;     BAS[ATNO][ 26].d[ 17] =        -5.899679925772;
  BAS[ATNO][ 26].a[ 18] =        12.333733920000;     BAS[ATNO][ 26].d[ 18] =         0.076646624866;
  BAS[ATNO][ 26].a[ 19] =        11.080331415000;     BAS[ATNO][ 26].d[ 19] =         0.101611329331;
  BAS[ATNO][ 26].a[ 20] =         2.034174722800;     BAS[ATNO][ 26].d[ 20] =         0.097395330102;
  BAS[ATNO][ 26].a[ 21] =        12.333733920000;     BAS[ATNO][ 26].d[ 21] =         0.091481135967;
  BAS[ATNO][ 26].a[ 22] =        11.080331415000;     BAS[ATNO][ 26].d[ 22] =         0.121277614645;
  BAS[ATNO][ 26].a[ 23] =         2.034174722800;     BAS[ATNO][ 26].d[ 23] =         0.116245633140;
  BAS[ATNO][ 26].a[ 24] =        12.333733920000;     BAS[ATNO][ 26].d[ 24] =        -1.040639178782;
  BAS[ATNO][ 26].a[ 25] =        11.080331415000;     BAS[ATNO][ 26].d[ 25] =        -1.379587561677;
  BAS[ATNO][ 26].a[ 26] =         2.034174722800;     BAS[ATNO][ 26].d[ 26] =        -1.322346502681;
  BAS[ATNO][ 26].a[ 27] =         3.782336100800;     BAS[ATNO][ 26].d[ 27] =        -0.489837362915;
  BAS[ATNO][ 26].a[ 28] =         3.782336100800;     BAS[ATNO][ 26].d[ 28] =        -0.584642551018;
  BAS[ATNO][ 26].a[ 29] =         3.782336100800;     BAS[ATNO][ 26].d[ 29] =         6.650572713393;
  BAS[ATNO][ 26].a[ 30] =         1.368259224800;     BAS[ATNO][ 26].d[ 30] =         0.089155518298;
  BAS[ATNO][ 26].a[ 31] =         1.368259224800;     BAS[ATNO][ 26].d[ 31] =         0.106411065198;
  BAS[ATNO][ 26].a[ 32] =         1.368259224800;     BAS[ATNO][ 26].d[ 32] =        -1.210473643800;
  BAS[ATNO][ 26].a[ 33] =         0.572882056000;     BAS[ATNO][ 26].d[ 33] =        -0.073230844757;
  BAS[ATNO][ 26].a[ 34] =         0.572882056000;     BAS[ATNO][ 26].d[ 34] =        -0.087404264451;
  BAS[ATNO][ 26].a[ 35] =         0.572882056000;     BAS[ATNO][ 26].d[ 35] =         0.994262672989;
  BAS[ATNO][ 26].a[ 36] =         0.227931651300;     BAS[ATNO][ 26].d[ 36] =         0.036106845569;
  BAS[ATNO][ 26].a[ 37] =         0.227931651300;     BAS[ATNO][ 26].d[ 37] =         0.043095123378;
  BAS[ATNO][ 26].a[ 38] =         0.227931651300;     BAS[ATNO][ 26].d[ 38] =        -0.490226318322;
  BAS[ATNO][ 26].a[ 39] =         0.081403918000;     BAS[ATNO][ 26].d[ 39] =        -0.014923268864;
  BAS[ATNO][ 26].a[ 40] =         0.081403918000;     BAS[ATNO][ 26].d[ 40] =        -0.017811583014;
  BAS[ATNO][ 26].a[ 41] =         0.081403918000;     BAS[ATNO][ 26].d[ 41] =         0.202614744483;
  BAS[ATNO][ 26].a[ 42] =         0.029091071800;     BAS[ATNO][ 26].d[ 42] =         0.004704139833;
  BAS[ATNO][ 26].a[ 43] =         0.029091071800;     BAS[ATNO][ 26].d[ 43] =         0.005614599032;
  BAS[ATNO][ 26].a[ 44] =         0.029091071800;     BAS[ATNO][ 26].d[ 44] =        -0.063868590397;
  BAS[ATNO][ 26].a[ 45] =       175.155900000000;     BAS[ATNO][ 26].d[ 45] =         0.000000791357;
  BAS[ATNO][ 26].a[ 46] =        62.890900000000;     BAS[ATNO][ 26].d[ 46] =         0.000002707455;

-------------------------------------------
RADIAL EXPECTATION VALUES <R**-3> TO <R**3>
-------------------------------------------
   0 :     0.000000     5.518751     2.224012     0.488419     0.258738     0.148604
   1 :    37.022433     6.569333     2.245786     0.516858     0.299729     0.192531
   2 :    37.023341     6.569427     2.245801     0.516854     0.299725     0.192526
   3 :    37.035183     6.570660     2.245994     0.516807     0.299667     0.192465
   4 :    31.422371     7.171395     2.326928     0.536711     0.345030     1.292994
   5 :    31.425298     7.171946     2.327039     0.536670     0.344964     1.292517
   6 :    31.425542     7.171992     2.327048     0.536667     0.344959     1.292480
   7 :    31.426421     7.172158     2.327082     0.536655     0.344939     1.292334
   8 :    31.379722     7.163912     2.325569     0.537073     0.345510     1.295658
   9 :     0.000000     1.314240     0.987532     1.194140     1.600831     2.371707
  10 :     0.000000     0.155230     0.312890     3.875913    17.184403    85.822993
  11 :     0.000000     0.100191     0.227023     5.909805    40.477112   301.392440
  12 :     0.000000     0.784225     0.691175     2.171836     7.128464    34.959375
  13 :     0.000000     3.875943     1.472246     1.026184     1.776529     5.916990
  14 :     0.000000  2913.618616    37.187633     0.047025     0.005964     0.007815
  15 :     0.000000   133.114504     4.523472     0.367819     0.261560     0.601327
  16 :     0.000000   169.372567     7.704900     0.191171     0.069126     0.116091
  17 :     0.000000  2053.129941    22.500523     0.112866     0.032816     0.054970
  18 :     9.782851     1.600350     0.922694     1.392819     2.235203     4.034634
  19 :     9.781683     1.600177     0.922634     1.392953     2.235757     4.036692
  20 :     9.767364     1.598056     0.921889     1.394659     2.242834     4.061338
  21 :    14.923743     4.694036     1.903481     0.684353     0.610357     4.917136
  22 :    14.923575     4.693981     1.903464     0.684367     0.610389     4.917839
  23 :    14.929850     4.695646     1.903888     0.684143     0.609922     4.912697
  24 :    14.923114     4.693639     1.903271     0.684691     0.611381     4.936867
  25 :    14.929007     4.695256     1.903717     0.684384     0.610654     4.925281
  26 :    14.929815     4.695477     1.903777     0.684345     0.610563     4.923978
  27 :    14.931051     4.695790     1.903857     0.684298     0.610460     4.922472
  28 :     1.460874     0.453951     0.461983     2.989946    11.008844   238.224685
  29 :     1.433891     0.446691     0.457909     3.017799    11.208804   244.308096
  30 :     1.432513     0.446316     0.457695     3.019305    11.219683   244.640450
  31 :     1.422951     0.443795     0.456293     3.028766    11.287287   246.488191
  32 :     0.152002     0.051403     0.175206     6.536131    46.698362   359.126625
  33 :     0.152233     0.051422     0.175189     6.537032    46.710220   359.250172
  34 :     0.155062     0.051645     0.174934     6.549411    46.872497   360.937524
  35 :     0.611866     0.225228     0.331963     3.913007    17.758220   446.930151
  36 :     0.651068     0.149487     0.256403     5.287525    34.775430   269.278542
  37 :     0.651860     0.149606     0.256459     5.286745    34.765883   269.181546
  38 :     0.662135     0.151164     0.257205     5.276038    34.634373   267.841617
  39 :     1.266243     0.365397     0.367523     4.199089    21.340849   595.746286
  40 :     1.290414     0.371884     0.371224     4.173080    21.153421   590.044533
  41 :     1.291743     0.372241     0.371428     4.171635    21.142993   589.727198
  42 :     1.299607     0.374354     0.372631     4.163343    21.084437   587.786972
  43 :     2.009039     0.569887     0.488724     3.296962    14.679168   388.573504
  44 :     4.080228     0.593668     0.468494     3.257700    14.483538    85.266872
  45 :     4.081703     0.593840     0.468548     3.257416    14.480703    85.240092
  46 :     4.099932     0.595920     0.469208     3.253596    14.442476    84.883581
  47 :     1.347989     0.553311     0.545061     2.256880     5.488797    97.913376
  48 :     1.347442     0.553152     0.545011     2.256947     5.489052    97.916501
  49 :     1.357387     0.555995     0.545902     2.255797     5.485024    97.840247
  50 :     1.345261     0.552535     0.544843     2.257003     5.488971    97.918672
  51 :     1.349668     0.553739     0.545214     2.256588     5.487902    97.881904
  52 :     1.350176     0.553892     0.545264     2.256505     5.487552    97.876215
  53 :     1.352875     0.554628     0.545489     2.256264     5.486998    97.848303
  54 :     4.616210     1.164767     0.714132     2.268390     7.088479   142.276053
  55 :     4.709411     1.186596     0.722269     2.248547     7.005249   140.825704
  56 :     4.623732     1.166397     0.714712     2.266387     7.075754   141.900178
  57 :     4.624206     1.166498     0.714748     2.266254     7.074859   141.872594
  58 :     4.626214     1.166977     0.714927     2.265632     7.070984   141.757509
  59 :    13.407338     2.116537     0.976245     1.737802     4.725410    20.349129
  60 :    13.408217     2.116551     0.976230     1.737828     4.725412    20.348022
  61 :    13.419492     2.116733     0.976049     1.738122     4.725149    20.334326
  62 :     4.971722     1.710554     0.995350     1.438760     2.583915    38.410417
  63 :     4.971685     1.710543     0.995344     1.438776     2.583976    38.412235
  64 :     4.969162     1.709779     0.995105     1.439062     2.584974    38.434200
  65 :     4.968797     1.709519     0.994939     1.439570     2.587096    38.483802
  66 :     4.967596     1.709187     0.994862     1.439562     2.586983    38.478037
  67 :     4.967383     1.709129     0.994847     1.439568     2.586987    38.478137
  68 :     4.966978     1.709006     0.994811     1.439604     2.587114    38.480074
  69 :    23.781558     4.552553     1.501405     1.215618     2.308801    32.691202
  70 :    23.837211     4.562439     1.503446     1.214176     2.304016    32.601709
  71 :    23.773884     4.551134     1.501080     1.215855     2.309324    32.693897
  72 :    23.773272     4.551021     1.501054     1.215873     2.309366    32.694131
  73 :    23.770812     4.550569     1.500951     1.215949     2.309540    32.694889
  74 :    16.576325     4.469624     1.694697     0.906512     1.155701    13.549513
  75 :    16.576119     4.469575     1.694686     0.906518     1.155715    13.549734
  76 :    16.571678     4.468514     1.694436     0.906658     1.156043    13.554810
  77 :    16.566557     4.467297     1.694154     0.906811     1.156400    13.560444
  78 :    16.565842     4.467123     1.694111     0.906837     1.156462    13.561346
  79 :    16.565668     4.467081     1.694101     0.906843     1.156476    13.561558
  80 :    16.565200     4.466968     1.694074     0.906859     1.156512    13.562106
  81 :   329.034804    22.222900     3.141552     0.695109     0.972273     2.928951
  82 :   329.030124    22.222602     3.141519     0.695121     0.972304     2.929030
  83 :   328.968987    22.218709     3.141081     0.695287     0.972705     2.930066
  84 :  1477.070799    60.670421     4.962350     0.466676     0.488918     1.329999
  85 :  1477.072394    60.670475     4.962351     0.466677     0.488920     1.330001
  86 :  1477.093205    60.671177     4.962362     0.466686     0.488939     1.330035
Making the total density                ... o.k.
o.k.
Initializing the integrals              ... done
Making exponents                        ... done
Making rho(0)                           ... done (         2.331025272)
Integral calculation                    ... Two index integrals                     ... done
Solving the equation system             ... done
atomic density will be written to file 71_Lu_atom71.adf

-------
TIMINGS
-------

Total SCF time: 0 days 0 hours 0 min 13 sec 

Total time                  ....      13.166 sec
Sum of individual times     ....      12.469 sec  ( 94.7%)

Fock matrix formation       ....      12.077 sec  ( 91.7%)
Diagonalization             ....       0.183 sec  (  1.4%)
Density matrix formation    ....       0.008 sec  (  0.1%)
Population analysis         ....       0.000 sec  (  0.0%)
Initial guess               ....       0.001 sec  (  0.0%)
Orbital Transformation      ....       0.000 sec  (  0.0%)
Orbital Orthonormalization  ....       0.000 sec  (  0.0%)
DIIS solution               ....       0.201 sec  (  1.5%)

-------------------------   --------------------
FINAL SINGLE POINT ENERGY     -1232.252948974745
-------------------------   --------------------


                            ***************************************
                            *     ORCA property calculations      *
                            ***************************************

                                    ---------------------
                                    Active property flags
                                    ---------------------
   (+) Dipole Moment


------------------------------------------------------------------------------
                       ORCA ELECTRIC PROPERTIES CALCULATION
------------------------------------------------------------------------------

Dipole Moment Calculation                       ... on
Quadrupole Moment Calculation                   ... off
Polarizability Calculation                      ... off
GBWName                                         ... 71_Lu_atom71.gbw
Electron density file                           ... 71_Lu_atom71.scfp
The origin for moment calculation is the CENTER OF MASS  = ( 0.000000,  0.000000  0.000000)

-------------
DIPOLE MOMENT
-------------
                                X             Y             Z
Electronic contribution:      0.00000      -0.00000       0.00000
Nuclear contribution   :      0.00000       0.00000       0.00000
                        -----------------------------------------
Total Dipole Moment    :      0.00000      -0.00000       0.00000
                        -----------------------------------------
Magnitude (a.u.)       :      0.00000
Magnitude (Debye)      :      0.00000



--------------------
Rotational spectrum 
--------------------
 
Rotational constants in cm-1:     0.000000     0.000000     0.000000 
Rotational constants in MHz :     0.000000     0.000000     0.000000 

 Dipole components along the rotational axes: 
x,y,z [a.u.] :     0.000000    -0.000000     0.000000 
x,y,z [Debye]:     0.000000    -0.000000     0.000000 

 

Timings for individual modules:

Sum of individual times         ...       15.085 sec (=   0.251 min)
GTO integral calculation        ...        1.898 sec (=   0.032 min)  12.6 %
SCF iterations                  ...       13.187 sec (=   0.220 min)  87.4 %
                             ****ORCA TERMINATED NORMALLY****
TOTAL RUN TIME: 0 days 0 hours 0 minutes 15 seconds 336 msec
