
                                 *****************
                                 * O   R   C   A *
                                 *****************

           --- An Ab Initio, DFT and Semiempirical electronic structure package ---

                  #######################################################
                  #                        -***-                        #
                  #          Department of theory and spectroscopy      #
                  #               Directorship: Frank Neese             #
                  #        Max Planck Institute fuer Kohlenforschung    #
                  #                Kaiser Wilhelm Platz 1               #
                  #                 D-45470 Muelheim/Ruhr               #
                  #                      Germany                        #
                  #                                                     #
                  #                  All rights reserved                #
                  #                        -***-                        #
                  #######################################################


                         Program Version 4.2.0 -  RELEASE  -


 With contributions from (in alphabetic order):
   Daniel Aravena         : Magnetic Suceptibility
   Michael Atanasov       : Ab Initio Ligand Field Theory (pilot matlab implementation)
   Alexander A. Auer      : GIAO ZORA, VPT2
   Ute Becker             : Parallelization
   Giovanni Bistoni       : ED, misc. LED, open-shell LED, HFLED
   Martin Brehm           : Molecular dynamics
   Dmytro Bykov           : SCF Hessian
   Vijay G. Chilkuri      : MRCI spin determinant printing, contributions to CSF-ICE
   Dipayan Datta          : RHF DLPNO-CCSD density
   Achintya Kumar Dutta   : EOM-CC, STEOM-CC
   Dmitry Ganyushin       : Spin-Orbit,Spin-Spin,Magnetic field MRCI
   Miquel Garcia          : C-PCM Hessian, Gaussian charge scheme
   Yang Guo               : DLPNO-NEVPT2, CIM, IAO-localization
   Andreas Hansen         : Spin unrestricted coupled pair/coupled cluster methods
   Benjamin Helmich-Paris : CASSCF linear response (MC-RPA)
   Lee Huntington         : MR-EOM, pCC
   Robert Izsak           : Overlap fitted RIJCOSX, COSX-SCS-MP3, EOM
   Christian Kollmar      : KDIIS, OOCD, Brueckner-CCSD(T), CCSD density
   Simone Kossmann        : Meta GGA functionals, TD-DFT gradient, OOMP2, MP2 Hessian
   Martin Krupicka        : AUTO-CI
   Lucas Lang             : DCDCAS
   Dagmar Lenk            : GEPOL surface, SMD
   Dimitrios Liakos       : Extrapolation schemes; Compound Job, initial MDCI parallelization
   Dimitrios Manganas     : Further ROCIS development; embedding schemes
   Dimitrios Pantazis     : SARC Basis sets
   Taras Petrenko         : DFT Hessian,TD-DFT gradient, ASA, ECA, R-Raman, ABS, FL, XAS/XES, NRVS
   Peter Pinski           : DLPNO-MP2, DLPNO-MP2 Gradient
   Christoph Reimann      : Effective Core Potentials
   Marius Retegan         : Local ZFS, SOC
   Christoph Riplinger    : Optimizer, TS searches, QM/MM, DLPNO-CCSD(T), (RO)-DLPNO pert. Triples
   Tobias Risthaus        : Range-separated hybrids, TD-DFT gradient, RPA, STAB
   Michael Roemelt        : Original ROCIS implementation
   Masaaki Saitow         : Open-shell DLPNO-CCSD energy and density
   Barbara Sandhoefer     : DKH picture change effects
   Avijit Sen             : IP-ROCIS
   Kantharuban Sivalingam : CASSCF convergence, NEVPT2, FIC-MRCI
   Bernardo de Souza      : ESD, SOC TD-DFT
   Georgi Stoychev        : AutoAux, RI-MP2 NMR
   Willem Van den Heuvel  : Paramagnetic NMR
   Boris Wezisla          : Elementary symmetry handling
   Frank Wennmohs         : Technical directorship


 We gratefully acknowledge several colleagues who have allowed us to
 interface, adapt or use parts of their codes:
   Stefan Grimme, W. Hujo, H. Kruse,             : VdW corrections, initial TS optimization,
                  C. Bannwarth                     DFT functionals, gCP, sTDA/sTD-DF
   Ed Valeev, F. Pavosevic, A. Kumar             : LibInt (2-el integral package), F12 methods
   Garnet Chan, S. Sharma, J. Yang, R. Olivares  : DMRG
   Ulf Ekstrom                                   : XCFun DFT Library
   Mihaly Kallay                                 : mrcc  (arbitrary order and MRCC methods)
   Andreas Klamt, Michael Diedenhofen            : otool_cosmo (COSMO solvation model)
   Jiri Pittner, Ondrej Demel                    : Mk-CCSD
   Frank Weinhold                                : gennbo (NPA and NBO analysis)
   Christopher J. Cramer and Donald G. Truhlar   : smd solvation model
   Lars Goerigk                                  : TD-DFT with DH, B97 family of functionals
   V. Asgeirsson, H. Jonsson                     : NEB implementation
   FAccTs GmbH                                   : IRC, NEB, NEB-TS, Multilevel, MM, QM/MM, CI optimization
   S Lehtola, MJT Oliveira, MAL Marques          : LibXC Library


 Your calculation uses the libint2 library for the computation of 2-el integrals
 For citations please refer to: http://libint.valeyev.net

 Your ORCA version has been built with support for libXC version: 4.2.3
 For citations please refer to: https://tddft.org/programs/libxc/

 This ORCA versions uses:
   CBLAS   interface :  Fast vector & matrix operations
   LAPACKE interface :  Fast linear algebra routines
   SCALAPACK package :  Parallel linear algebra routines


Setting NCore(Os) from 46 to 60
----- Orbital basis set information -----
Your calculation utilizes the basis: def2-TZVP
   F. Weigend and R. Ahlrichs, Phys. Chem. Chem. Phys. 7, 3297 (2005).

cite the ECPs for Os [Def2-ECP] as follows:
Ce-Yb(ecp-28): M. Dolg, H. Stoll, H.Preuss, J. Chem. Phys., 1989, 90, 1730-1734.
Y-Cd(ecp-28), Hf-Hg(ecp-46): D. Andrae,U. Haeussermann, M. Dolg, H. Stoll, H. Preuss, Theor. Chim. Acta, 1990, 77, 123-141.
In-Sb(ecp-28), Tl-Bi(ecp-46): B. Metz, H. Stoll, M. Dolg, J. Chem. Phys., 2000, 113, 2563-2569.
Te-Xe(ecp-28), Po-Rn(ecp-46): K. A. Peterson, D. Figgen, E. Goll, H. Stoll, M. Dolg, J. Chem. Phys., 2003, 119, 11113-11123.
Rb(ecp-28), Cs(ecp-46): T. Leininger, A. Nicklass, W. Kuechle, H. Stoll, M. Dolg, A. Bergner, Chem. Phys. Lett., 1996, 255, 274-280.
Sr(ecp-28), Ba(ecp-46): M. Kaupp, P. V. Schleyer, H. Stoll and H. Preuss, J. Chem. Phys., 1991, 94, 1360-1366.
La(ecp-46): M. Dolg, H. Stoll, A. Savin, H. Preuss, Theor. Chim. Acta, 1989, 75, 173-194.
Lu(ecp-28): X. Cao, M. Dolg, J. Chem. Phys., 2001, 115, 7348-7355.

ECP parameters for Os [Def2-ECP] have been obtained from:
TURBOMOLE (7.0.2)

================================================================================
                                        WARNINGS
                       Please study these warnings very carefully!
================================================================================


WARNING: your system is open-shell and RHF/RKS was chosen
  ===> : WILL SWITCH to UHF/UKS


WARNING: MDCI localization with Augmented Hessian Foster-Boys
  ===> : Switching off randomization!

WARNING: Post HF methods need fully converged wavefunctions
  ===> : Setting SCFConvForced true
         You can overwrite this default with %scf ConvForced false 


INFO   : the flag for use of LIBINT has been found!

================================================================================
                                       INPUT FILE
================================================================================
NAME = 76_Os.in
|  1> #
|  2> # 76_Os CCSD(T)/Def2-TZVP
|  3> #
|  4> ! CCSD(T) Def2-TZVP tightscf
|  5> 
|  6> *xyz 0 5
|  7>  Os 0.0 0.0 0.0
|  8> *
|  9> 
| 10> %maxcore 5000 
| 11> 
| 12> %pal
| 13> nprocs 24
| 14> end
| 15> 
| 16> %method
| 17> NewNCore Os 60 end
| 18> end
| 19> 
| 20> 
| 21>                          ****END OF INPUT****
================================================================================

                       ****************************
                       * Single Point Calculation *
                       ****************************

---------------------------------
CARTESIAN COORDINATES (ANGSTROEM)
---------------------------------
  Os     0.000000    0.000000    0.000000

----------------------------
CARTESIAN COORDINATES (A.U.)
----------------------------
  NO LB      ZA    FRAG     MASS         X           Y           Z
   0 Os   16.0000*   0   190.200    0.000000    0.000000    0.000000
* core charge reduced due to ECP

--------------------------------
INTERNAL COORDINATES (ANGSTROEM)
--------------------------------
 Os     0   0   0     0.000000000000     0.00000000     0.00000000

---------------------------
INTERNAL COORDINATES (A.U.)
---------------------------
 Os     0   0   0     0.000000000000     0.00000000     0.00000000

---------------------
BASIS SET INFORMATION
---------------------
There are 1 groups of distinct atoms

 Group   1 Type Os  : 8s7p6d1f contracted to 6s4p3d1f pattern {311111/4111/411/1}

Atom   0Os   basis set group =>   1
-------------------------
ECP PARAMETER INFORMATION
-------------------------

 Group 1, Type Os ECP Def2-ECP (replacing 60 core electrons, lmax=3)

Atom   0Os   ECP group =>   1



           ************************************************************
           *        Program running with 24 parallel MPI-processes    *
           *              working on a common directory               *
           ************************************************************
------------------------------------------------------------------------------
                           ORCA GTO INTEGRAL CALCULATION
------------------------------------------------------------------------------

                         BASIS SET STATISTICS AND STARTUP INFO

 # of primitive gaussian shells          ...   22
 # of primitive gaussian functions       ...   66
 # of contracted shells                  ...   14
 # of contracted basis functions         ...   40
 Highest angular momentum                ...    3
 Maximum contraction depth               ...    4
 Integral package used                   ... LIBINT
 Integral threshhold            Thresh   ...  2.500e-11
 Primitive cut-off              TCut     ...  2.500e-12


------------------------------ INTEGRAL EVALUATION ----------------------------


 * One electron integrals 

   ECP integrals                         ... done
 Pre-screening matrix                    ... done
 Shell pair data                         ... done (   0.000 sec)



           ************************************************************
           *        Program running with 24 parallel MPI-processes    *
           *              working on a common directory               *
           ************************************************************
-------------------------------------------------------------------------------
                                 ORCA SCF
-------------------------------------------------------------------------------

------------
SCF SETTINGS
------------
Hamiltonian:
 Ab initio Hamiltonian  Method          .... Hartree-Fock(GTOs)


General Settings:
 Integral files         IntName         .... 76_Os
 Hartree-Fock type      HFTyp           .... UHF
 Total Charge           Charge          ....    0
 Multiplicity           Mult            ....    5
 Number of Electrons    NEL             ....   16
 Basis Dimension        Dim             ....   40
 Nuclear Repulsion      ENuc            ....      0.0000000000 Eh

Convergence Acceleration:
 DIIS                   CNVDIIS         .... on
   Start iteration      DIISMaxIt       ....    12
   Startup error        DIISStart       ....  0.200000
   # of expansion vecs  DIISMaxEq       ....     5
   Bias factor          DIISBfac        ....   1.050
   Max. coefficient     DIISMaxC        ....  10.000
 Newton-Raphson         CNVNR           .... off
 SOSCF                  CNVSOSCF        .... off
 Level Shifting         CNVShift        .... on
   Level shift para.    LevelShift      ....    0.2500
   Turn off err/grad.   ShiftErr        ....    0.0010
 Zerner damping         CNVZerner       .... off
 Static damping         CNVDamp         .... on
   Fraction old density DampFac         ....    0.7000
   Max. Damping (<1)    DampMax         ....    0.9800
   Min. Damping (>=0)   DampMin         ....    0.0000
   Turn off err/grad.   DampErr         ....    0.1000
 Fernandez-Rico         CNVRico         .... off

SCF Procedure:
 Maximum # iterations   MaxIter         ....   125
 SCF integral mode      SCFMode         .... Direct
   Integral package                     .... LIBINT
 Reset frequency        DirectResetFreq ....    20
 Integral Threshold     Thresh          ....  2.500e-11 Eh
 Primitive CutOff       TCut            ....  2.500e-12 Eh

Convergence Tolerance:
 Convergence Check Mode ConvCheckMode   .... Total+1el-Energy
 Convergence forced     ConvForced      .... 1
 Energy Change          TolE            ....  1.000e-08 Eh
 1-El. energy change                    ....  1.000e-05 Eh
 DIIS Error             TolErr          ....  5.000e-07


Diagonalization of the overlap matrix:
Smallest eigenvalue                        ... 1.638e-02
Time for diagonalization                   ...    0.001 sec
Threshold for overlap eigenvalues          ... 1.000e-08
Number of eigenvalues below threshold      ... 0
Time for construction of square roots      ...    0.012 sec
Total time needed                          ...    0.013 sec

-------------------
DFT GRID GENERATION
-------------------

General Integration Accuracy     IntAcc      ...  4.340
Radial Grid Type                 RadialGrid  ... Gauss-Chebyshev
Angular Grid (max. acc.)         AngularGrid ... Lebedev-110
Angular grid pruning method      GridPruning ... 3 (G Style)
Weight generation scheme         WeightScheme... Becke
Basis function cutoff            BFCut       ...    1.0000e-11
Integration weight cutoff        WCut        ...    1.0000e-14
Grids for H and He will be reduced by one unit

# of grid points (after initial pruning)     ...   3554 (   0.0 sec)
# of grid points (after weights+screening)   ...   3554 (   0.0 sec)
Grid point division into batches done        ...    0.0 sec
Reduced shell lists constructed in    0.0 sec

Total number of grid points                  ...     3554
Total number of batches                      ...       56
Average number of points per batch           ...       63
Average number of grid points per atom       ...     3554
Average number of shells per batch           ...     3.00 (21.43%)
Average number of basis functions per batch  ...     7.50 (18.75%)
Average number of large shells per batch     ...     2.25 (75.00%)
Average number of large basis fcns per batch ...     6.75 (90.00%)
Maximum spatial batch extension              ...  25.56, 38.92, 38.92 au
Average spatial batch extension              ...   1.31,  1.85,  2.08 au

Time for grid setup =    0.095 sec

------------------------------
INITIAL GUESS: MODEL POTENTIAL
------------------------------
Loading Hartree-Fock densities                     ... done
  calling /sw/apps/orca/orca_4_2_0_linux_x86-64_openmpi314/orca 76_Os_atom76.inp > 76_Os_atom76.out in order to generate an atomic fitting density for atom 0 (Os with ECP) on-the-fly... 
    atom 0 (Os), assumed electronic state with S=5: 1s2 2s2 2p6 3s2 3p6 4s2 3d10 4p6 5s2 4d10 5p6 6s2 4f14 5d6           ... done
Calculating cut-offs                               ... done
Setting up the integral package                    ... done
Initializing the effective Hamiltonian             ... done
Starting the Coulomb interaction                   ... done (   0.0 sec)
Reading the grid                                   ... done
Mapping shells                                     ... done
Starting the XC term evaluation                    ... done (   0.0 sec)
Transforming the Hamiltonian                       ... done (   0.0 sec)
Diagonalizing the Hamiltonian                      ... done (   0.0 sec)
Back transforming the eigenvectors                 ... done (   0.0 sec)
Now organizing SCF variables                       ... done
                      ------------------
                      INITIAL GUESS DONE (   1.3 sec)
                      ------------------
--------------
SCF ITERATIONS
--------------
ITER       Energy         Delta-E        Max-DP      RMS-DP      [F,P]     Damp
               ***  Starting incremental Fock matrix formation  ***
  0    -88.9101837278   0.000000000000 0.44998268  0.01349373  0.5873468 0.7000
  1    -89.2379867575  -0.327803029665 0.31354160  0.00994075  0.3770804 0.7000
  2    -89.4286292647  -0.190642507171 0.20234654  0.00654901  0.2141855 0.7000
                               ***Turning on DIIS***
  3    -89.5454423079  -0.116813043264 0.13060904  0.00424582  0.1274482 0.7000
  4    -89.9594033249  -0.413961016929 0.27192564  0.00901078  0.0855556 0.0000
  5    -89.7333583369   0.226044987981 0.02752652  0.00076027  0.0182222 0.0000
  6    -89.7923741692  -0.059015832312 0.03018030  0.00078470  0.0047050 0.0000
  7    -89.7979073032  -0.005533134019 0.02307055  0.00058620  0.0024288 0.0000
  8    -89.8016700250  -0.003762721746 0.01189582  0.00030047  0.0010289 0.0000
  9    -89.8034499459  -0.001779920939 0.00876556  0.00022179  0.0004137 0.0000
 10    -89.8039526657  -0.000502719810 0.00175425  0.00004522  0.0001022 0.0000
 11    -89.8037807795   0.000171886251 0.00019885  0.00000548  0.0001064 0.0000
 12    -89.8037748175   0.000005961953 0.00002711  0.00000098  0.0001089 0.0000
 13    -89.8037939064  -0.000019088896 0.00000500  0.00000019  0.0001081 0.0000
 14    -89.8037552318   0.000038674562 0.00008655  0.00000223  0.0001083 0.0000
 15    -89.8037754095  -0.000020177631 0.00012367  0.00000383  0.0001086 0.0000
 16    -89.8037207312   0.000054678272 0.00007858  0.00000267  0.0001109 0.0000
 17    -89.8037355352  -0.000014804011 0.00000501  0.00000015  0.0001088 0.0000
 18    -89.8037477796  -0.000012244435 0.00002154  0.00000070  0.0001086 0.0000
 19    -89.8037642553  -0.000016475682 0.00003463  0.00000106  0.0001093 0.0000
               *** Restarting incremental Fock matrix formation ***
                                   *** Resetting DIIS ***
 20    -89.8037812599  -0.000017004554 0.00010649  0.00000340  0.0001104 0.0000
 21    -89.8037762016   0.000005058263 0.00000271  0.00000008  0.0001143 0.0000
 22    -89.8037762465  -0.000000044894 0.00000006  0.00000000  0.0001142 0.0000
                 **** Energy Check signals convergence ****

               *****************************************************
               *                     SUCCESS                       *
               *           SCF CONVERGED AFTER  23 CYCLES          *
               *****************************************************


----------------
TOTAL SCF ENERGY
----------------

Total Energy       :          -89.80377625 Eh           -2443.68499 eV

Components:
Nuclear Repulsion  :            0.00000000 Eh               0.00000 eV
Electronic Energy  :          -89.80377625 Eh           -2443.68499 eV
One Electron Energy:         -156.16236635 Eh           -4249.39402 eV
Two Electron Energy:           66.35859010 Eh            1805.70904 eV

Virial components:
Potential Energy   :         -121.02527856 Eh           -3293.26526 eV
Kinetic Energy     :           31.22150232 Eh             849.58027 eV
Virial Ratio       :            3.87634385


---------------
SCF CONVERGENCE
---------------

  Last Energy change         ...    4.8040e-10  Tolerance :   1.0000e-08
  Last MAX-Density change    ...    6.7722e-08  Tolerance :   1.0000e-07
  Last RMS-Density change    ...    2.1382e-09  Tolerance :   5.0000e-09
  Last DIIS Error            ...    1.1417e-04  Tolerance :   5.0000e-07

             **** THE GBW FILE WAS UPDATED (76_Os.gbw) ****
             **** DENSITY FILE WAS UPDATED (76_Os.scfp) ****
             **** ENERGY FILE WAS UPDATED (76_Os.en.tmp) ****
----------------------
UHF SPIN CONTAMINATION
----------------------

Expectation value of <S**2>     :     6.004023
Ideal value S*(S+1) for S=2.0   :     6.000000
Deviation                       :     0.004023

             **** THE GBW FILE WAS UPDATED (76_Os.gbw) ****
             **** DENSITY FILE WAS UPDATED (76_Os.scfp) ****
----------------
ORBITAL ENERGIES
----------------
                 SPIN UP ORBITALS
  NO   OCC          E(Eh)            E(eV) 
   0   1.0000      -3.948025      -107.4312 
   1   1.0000      -2.274528       -61.8931 
   2   1.0000      -2.274528       -61.8931 
   3   1.0000      -2.223620       -60.5078 
   4   1.0000      -0.407043       -11.0762 
   5   1.0000      -0.407043       -11.0762 
   6   1.0000      -0.383369       -10.4320 
   7   1.0000      -0.354890        -9.6571 
   8   1.0000      -0.354890        -9.6571 
   9   1.0000      -0.288617        -7.8537 
  10   0.0000       0.049848         1.3564 
  11   0.0000       0.049848         1.3564 
  12   0.0000       0.060074         1.6347 
  13   0.0000       0.230273         6.2660 
  14   0.0000       0.365743         9.9524 
  15   0.0000       0.365743         9.9524 
  16   0.0000       0.375197        10.2096 
  17   0.0000       0.380905        10.3650 
  18   0.0000       0.380905        10.3650 
  19   0.0000       0.749760        20.4020 
  20   0.0000       0.749760        20.4020 
  21   0.0000       0.781422        21.2636 
  22   0.0000       1.420927        38.6654 
  23   0.0000       1.420927        38.6654 
  24   0.0000       1.456904        39.6444 
  25   0.0000       1.463263        39.8174 
  26   0.0000       1.463267        39.8175 
  27   0.0000       1.465038        39.8657 
  28   0.0000       1.465041        39.8658 
  29   0.0000       1.549053        42.1519 
  30   0.0000       1.549053        42.1519 
  31   0.0000       1.568608        42.6840 
  32   0.0000       1.584507        43.1166 
  33   0.0000       1.584507        43.1166 
  34   0.0000       2.102787        57.2197 
  35   0.0000      29.979615       815.7868 
  36   0.0000      29.979615       815.7868 
  37   0.0000      30.008968       816.5855 
  38   0.0000      63.088883      1716.7358 
  39   0.0000     438.083248     11920.8512 

                 SPIN DOWN ORBITALS
  NO   OCC          E(Eh)            E(eV) 
   0   1.0000      -3.805881      -103.5633 
   1   1.0000      -2.078986       -56.5721 
   2   1.0000      -2.048392       -55.7396 
   3   1.0000      -2.048392       -55.7396 
   4   1.0000      -0.273491        -7.4421 
   5   1.0000      -0.273491        -7.4421 
   6   0.0000       0.016591         0.4515 
   7   0.0000       0.105314         2.8657 
   8   0.0000       0.105314         2.8657 
   9   0.0000       0.108172         2.9435 
  10   0.0000       0.158696         4.3183 
  11   0.0000       0.158697         4.3184 
  12   0.0000       0.188802         5.1376 
  13   0.0000       0.306445         8.3388 
  14   0.0000       0.403722        10.9858 
  15   0.0000       0.403722        10.9858 
  16   0.0000       0.444885        12.1059 
  17   0.0000       0.444885        12.1059 
  18   0.0000       0.464098        12.6288 
  19   0.0000       0.855812        23.2878 
  20   0.0000       0.855812        23.2878 
  21   0.0000       0.862069        23.4581 
  22   0.0000       1.552791        42.2536 
  23   0.0000       1.552791        42.2536 
  24   0.0000       1.581712        43.0406 
  25   0.0000       1.581712        43.0406 
  26   0.0000       1.603609        43.6364 
  27   0.0000       1.611495        43.8510 
  28   0.0000       1.611503        43.8512 
  29   0.0000       1.622534        44.1514 
  30   0.0000       1.622534        44.1514 
  31   0.0000       1.646886        44.8140 
  32   0.0000       1.646886        44.8141 
  33   0.0000       1.670357        45.4527 
  34   0.0000       2.178110        59.2694 
  35   0.0000      30.013239       816.7018 
  36   0.0000      30.013240       816.7018 
  37   0.0000      30.033894       817.2638 
  38   0.0000      63.098013      1716.9842 
  39   0.0000     438.083995     11920.8716 

                    ********************************
                    * MULLIKEN POPULATION ANALYSIS *
                    ********************************

--------------------------------------------
MULLIKEN ATOMIC CHARGES AND SPIN POPULATIONS
--------------------------------------------
   0 Os:   -0.000000    4.000000
Sum of atomic charges         :   -0.0000000
Sum of atomic spin populations:    4.0000000

-----------------------------------------------------
MULLIKEN REDUCED ORBITAL CHARGES AND SPIN POPULATIONS
-----------------------------------------------------
CHARGE
  0 Oss       :     3.000513  s :     3.000513
      pz      :     1.999469  p :     5.998860
      px      :     1.999696
      py      :     1.999696
      dz2     :     0.999488  d :     6.999487
      dxz     :     1.999992
      dyz     :     1.999975
      dx2y2   :     1.000007
      dxy     :     1.000025
      f0      :     0.000531  f :     0.001140
      f+1     :     0.000304
      f-1     :     0.000304
      f+2     :     0.000000
      f-2     :     0.000000
      f+3     :     0.000000
      f-3     :     0.000000

SPIN
  0 Oss       :     1.000517  s :     1.000517
      pz      :     0.000525  p :     0.000834
      px      :     0.000155
      py      :     0.000155
      dz2     :     0.999482  d :     2.999483
      dxz     :     0.000008
      dyz     :     0.000025
      dx2y2   :     0.999993
      dxy     :     0.999975
      f0      :    -0.000525  f :    -0.000834
      f+1     :    -0.000155
      f-1     :    -0.000155
      f+2     :    -0.000000
      f-2     :    -0.000000
      f+3     :    -0.000000
      f-3     :    -0.000000


                     *******************************
                     * LOEWDIN POPULATION ANALYSIS *
                     *******************************

-------------------------------------------
LOEWDIN ATOMIC CHARGES AND SPIN POPULATIONS
-------------------------------------------
   0 Os:   -0.000000    4.000000

----------------------------------------------------
LOEWDIN REDUCED ORBITAL CHARGES AND SPIN POPULATIONS
----------------------------------------------------
CHARGE
  0 Oss       :     3.000513  s :     3.000513
      pz      :     1.999469  p :     5.998860
      px      :     1.999696
      py      :     1.999696
      dz2     :     0.999488  d :     6.999487
      dxz     :     1.999992
      dyz     :     1.999975
      dx2y2   :     1.000007
      dxy     :     1.000025
      f0      :     0.000531  f :     0.001140
      f+1     :     0.000304
      f-1     :     0.000304
      f+2     :     0.000000
      f-2     :     0.000000
      f+3     :     0.000000
      f-3     :     0.000000

SPIN
  0 Oss       :     1.000517  s :     1.000517
      pz      :     0.000525  p :     0.000834
      px      :     0.000155
      py      :     0.000155
      dz2     :     0.999482  d :     2.999483
      dxz     :     0.000008
      dyz     :     0.000025
      dx2y2   :     0.999993
      dxy     :     0.999975
      f0      :    -0.000525  f :    -0.000834
      f+1     :    -0.000155
      f-1     :    -0.000155
      f+2     :    -0.000000
      f-2     :    -0.000000
      f+3     :    -0.000000
      f-3     :    -0.000000


                      *****************************
                      * MAYER POPULATION ANALYSIS *
                      *****************************

  NA   - Mulliken gross atomic population
  ZA   - Total nuclear charge
  QA   - Mulliken gross atomic charge
  VA   - Mayer's total valence
  BVA  - Mayer's bonded valence
  FA   - Mayer's free valence

  ATOM       NA         ZA         QA         VA         BVA        FA
  0 Os    16.0000    16.0000    -0.0000     4.0080     0.0000     4.0080

  Mayer bond orders larger than 0.100000


-------
TIMINGS
-------

Total SCF time: 0 days 0 hours 0 min 6 sec 

Total time                  ....       6.175 sec
Sum of individual times     ....       5.666 sec  ( 91.8%)

Fock matrix formation       ....       3.651 sec  ( 59.1%)
Diagonalization             ....       0.121 sec  (  2.0%)
Density matrix formation    ....       0.006 sec  (  0.1%)
Population analysis         ....       0.184 sec  (  3.0%)
Initial guess               ....       1.220 sec  ( 19.8%)
Orbital Transformation      ....       0.000 sec  (  0.0%)
Orbital Orthonormalization  ....       0.000 sec  (  0.0%)
DIIS solution               ....       0.389 sec  (  6.3%)


           ************************************************************
           *        Program running with 24 parallel MPI-processes    *
           *              working on a common directory               *
           ************************************************************


------------------------------------------------------------------------------- 
                              ORCA-MATRIX DRIVEN CI                            
------------------------------------------------------------------------------- 

--------------------------------
AUTOMATIC CHOICE OF INCORE LEVEL
--------------------------------

Memory available                           ...   2500.00 MB
Memory needed for S+T                      ...      1.13 MB
Memory needed for J+K                      ...      2.29 MB
Memory needed for DIIS                     ...     15.86 MB
Memory needed for 3-ext                    ...      2.06 MB
Memory needed for 4-ext                    ...      3.19 MB
Memory needed for triples                  ...      1.03 MB
 -> Final InCoreLevel    ... 5
 -> check shows that triples correction can be computed


Wavefunction type
-----------------
Correlation treatment                      ...      CCSD     
Single excitations                         ... ON
Orbital optimization                       ... OFF
Calculation of Z vector                    ... OFF
Calculation of Brueckner orbitals          ... OFF
Perturbative triple excitations            ... ON
Calculation of F12 correction              ... OFF
Frozen core treatment                      ... chemical core (0 el)
Reference Wavefunction                     ... UHF
  Alpha-MOs occ    :     0 ...    9 ( 10 MO's/ 10 electrons)
  Beta-MOs occ     :     0 ...    5 (  6 MO's/  6 electrons)
  Alpha-MOs virt   :    10 ...   39 ( 30 MO's              )
  Beta-MOs virt    :     6 ...   39 ( 34 MO's              )
Number of AO's                             ...     40
Number of electrons                        ...     16
Number of correlated electrons             ...     16

Algorithmic settings
--------------------
Integral transformation                    ... AO direct full transformation
K(C) Formation                             ... FULL-MO TRAFO
Maximum number of iterations               ...        50
Convergence tolerance (max. residuum)      ... 1.000e-05
Level shift for amplitude update           ... 2.000e-01
Maximum number of DIIS vectors             ...         7
DIIS turned on at iteration                ...         0
Damping before turning on DIIS             ...     0.500
Damping after turning on DIIS              ...     0.000
Pair specific amplitude update             ... OFF
Natural orbital iterations                 ... OFF
Perturbative natural orbital generation    ... OFF
Printlevel                                 ... 2

Memory handling:
----------------
Maximum memory for working arrays          ...   2500 MB
Data storage in matrix containers          ... UNCOMPRESSED
Data type for integral storage             ... DOUBLE
In-Core Storage of quantities:
   Amplitudes+Sigma Vector      ... YES
   J+K operators                ... YES
   DIIS vectors                 ... YES
   3-external integrals         ... YES
   4-external integrals         ... YES


Initializing the integral package          ... done
Warning: reference  - re-canonicalizations have been set to INT 1 VIRT 1

--------------------------
UNRESTRICTED FOCK OPERATOR
--------------------------

<ss|ss>:          231 b            0 skpd (  0.0%)    0.000 s ( 0.000 ms/b)
<ss|sp>:          504 b            0 skpd (  0.0%)    0.000 s ( 0.000 ms/b)
<ss|sd>:          378 b            0 skpd (  0.0%)    0.000 s ( 0.000 ms/b)
<ss|sf>:          126 b            0 skpd (  0.0%)    0.000 s ( 0.000 ms/b)
<ss|pp>:          210 b            0 skpd (  0.0%)    0.000 s ( 0.000 ms/b)
<ss|pd>:          252 b            0 skpd (  0.0%)    0.000 s ( 0.000 ms/b)
<ss|pf>:           84 b            0 skpd (  0.0%)    0.000 s ( 0.001 ms/b)
<ss|dd>:          126 b            0 skpd (  0.0%)    0.000 s ( 0.002 ms/b)
<ss|df>:           63 b            0 skpd (  0.0%)    0.000 s ( 0.001 ms/b)
<ss|ff>:           21 b            0 skpd (  0.0%)    0.000 s ( 0.004 ms/b)
<sp|sp>:          300 b            0 skpd (  0.0%)    0.000 s ( 0.000 ms/b)
<sp|sd>:          432 b            0 skpd (  0.0%)    0.000 s ( 0.000 ms/b)
<sp|sf>:          144 b            0 skpd (  0.0%)    0.000 s ( 0.001 ms/b)
<sp|pp>:          240 b            0 skpd (  0.0%)    0.000 s ( 0.001 ms/b)
<sp|pd>:          288 b            0 skpd (  0.0%)    0.000 s ( 0.001 ms/b)
<sp|pf>:           96 b            0 skpd (  0.0%)    0.000 s ( 0.001 ms/b)
<sp|dd>:          144 b            0 skpd (  0.0%)    0.001 s ( 0.004 ms/b)
<sp|df>:           72 b            0 skpd (  0.0%)    0.000 s ( 0.003 ms/b)
<sp|ff>:           24 b            0 skpd (  0.0%)    0.000 s ( 0.013 ms/b)
<sd|sd>:          171 b            0 skpd (  0.0%)    0.000 s ( 0.001 ms/b)
<sd|sf>:          108 b            0 skpd (  0.0%)    0.000 s ( 0.001 ms/b)
<sd|pp>:          180 b            0 skpd (  0.0%)    0.000 s ( 0.002 ms/b)
<sd|pd>:          216 b            0 skpd (  0.0%)    0.000 s ( 0.002 ms/b)
<sd|pf>:           72 b            0 skpd (  0.0%)    0.000 s ( 0.003 ms/b)
<sd|dd>:          108 b            0 skpd (  0.0%)    0.001 s ( 0.011 ms/b)
<sd|df>:           54 b            0 skpd (  0.0%)    0.000 s ( 0.008 ms/b)
<sd|ff>:           18 b            0 skpd (  0.0%)    0.001 s ( 0.028 ms/b)
<sf|sf>:           21 b            0 skpd (  0.0%)    0.000 s ( 0.002 ms/b)
<sf|pp>:           60 b            0 skpd (  0.0%)    0.000 s ( 0.002 ms/b)
<sf|pd>:           72 b            0 skpd (  0.0%)    0.000 s ( 0.002 ms/b)
<sf|pf>:           24 b            0 skpd (  0.0%)    0.000 s ( 0.005 ms/b)
<sf|dd>:           36 b            0 skpd (  0.0%)    0.000 s ( 0.014 ms/b)
<sf|df>:           18 b            0 skpd (  0.0%)    0.000 s ( 0.011 ms/b)
<sf|ff>:            6 b            0 skpd (  0.0%)    0.000 s ( 0.040 ms/b)
<pp|pp>:           55 b            0 skpd (  0.0%)    0.000 s ( 0.005 ms/b)
<pp|pd>:          120 b            0 skpd (  0.0%)    0.000 s ( 0.003 ms/b)
<pp|pf>:           40 b            0 skpd (  0.0%)    0.000 s ( 0.004 ms/b)
<pp|dd>:           60 b            0 skpd (  0.0%)    0.001 s ( 0.016 ms/b)
<pp|df>:           30 b            0 skpd (  0.0%)    0.000 s ( 0.012 ms/b)
<pp|ff>:           10 b            0 skpd (  0.0%)    0.000 s ( 0.040 ms/b)
<pd|pd>:           78 b            0 skpd (  0.0%)    0.001 s ( 0.011 ms/b)
<pd|pf>:           48 b            0 skpd (  0.0%)    0.000 s ( 0.010 ms/b)
<pd|dd>:           72 b            0 skpd (  0.0%)    0.003 s ( 0.036 ms/b)
<pd|df>:           36 b            0 skpd (  0.0%)    0.001 s ( 0.027 ms/b)
<pd|ff>:           12 b            0 skpd (  0.0%)    0.001 s ( 0.088 ms/b)
<pf|pf>:           10 b            0 skpd (  0.0%)    0.000 s ( 0.021 ms/b)
<pf|dd>:           24 b            0 skpd (  0.0%)    0.001 s ( 0.038 ms/b)
<pf|df>:           12 b            0 skpd (  0.0%)    0.000 s ( 0.035 ms/b)
<pf|ff>:            4 b            0 skpd (  0.0%)    0.000 s ( 0.118 ms/b)
<dd|dd>:           21 b            0 skpd (  0.0%)    0.002 s ( 0.104 ms/b)
<dd|df>:           18 b            0 skpd (  0.0%)    0.001 s ( 0.065 ms/b)
<dd|ff>:            6 b            0 skpd (  0.0%)    0.001 s ( 0.124 ms/b)
<df|df>:            6 b            0 skpd (  0.0%)    0.000 s ( 0.080 ms/b)
<df|ff>:            3 b            0 skpd (  0.0%)    0.000 s ( 0.163 ms/b)
<ff|ff>:            1 b            0 skpd (  0.0%)    0.000 s ( 0.256 ms/b)
Recanonicalizing the internal orbitals
Recanonicalizing the virtual orbitals
Time needed for Fock operator              ...            0.167 sec
Reference energy                           ...    -89.803781361
Warning: for UHF the TrafoType has to be JK
Warning: for UHF the K(C)-option cannot be MO but must be AOX

-------------------------------
PARTIAL EXCHANGE TRANSFORMATION
-------------------------------

Transformation type                        ... two-operators
Generation of integrals (i,mue|j,nue)      ... ON
Generation of integrals (mue,kappa|nue,tau)... ON
Generation of integrals (i,mue|a,nue)      ... ON
Dimension of the basis                     ...   40
Number of internal alpha-MOs               ...   10 (   0-   9)
Number of internal beta-MOs                ...    6 (   0-   5)
Number of external alpha-MOs               ...   30 (  10-  39)
Number of external beta-MOs                ...   34 (   6-  39)
Pair cutoff                                ... 0.000e+00 Eh
Number of AO pairs in the trafo            ...  820
Total Number of distinct AO pairs          ...  820
Memory devoted for trafo                   ... 2500.0 MB 
Max. Number of MO pairs treated together   ... 204800      
Number Format for Storage                  ... Double (8 Byte)
Integral package used                      ... LIBINT

Starting integral evaluation:
    ... done with AO integral generation
Closing buffer AOK[aa] ( 0.00 GB; CompressionRatio= 0.00)
Closing buffer AOK[bb] ( 0.00 GB; CompressionRatio= 0.00)
Closing buffer AOK[ab] ( 0.00 GB; CompressionRatio= 0.00)
Closing buffer AOK[ba] ( 0.00 GB; CompressionRatio= 0.00)
Collecting buffer AOK 
Closing buffer IAAO1[aa] ( 0.00 GB; CompressionRatio= 0.00)
Closing buffer IAAO1[bb] ( 0.00 GB; CompressionRatio= 0.00)
Closing buffer IAAO1[ab] ( 0.00 GB; CompressionRatio= 0.00)
Closing buffer IAAO1[ba] ( 0.00 GB; CompressionRatio= 0.00)
Closing buffer IAAO2[aa] ( 0.00 GB; CompressionRatio= 0.00)
Closing buffer IAAO2[bb] ( 0.00 GB; CompressionRatio= 0.00)
Closing buffer IAAO2[ab] ( 0.00 GB; CompressionRatio= 0.00)
Closing buffer IAAO2[ba] ( 0.00 GB; CompressionRatio= 0.00)
Collecting buffer IAAO 
Closing buffer PRQS    ( 0.00 GB; CompressionRatio= 0.00)
Collecting buffer PRQS 
Number of alpha/alpha MO pairs in trafo    ...   55
Number of beta /beta  MO pairs in trafo    ...   21
Number of alpha/ beta MO pairs in trafo    ...   60
------------------------
SORTING OF (i,mue|j,nue)
------------------------

SORTING OF ALPHA/ALPHA PAIRS
IBATCH = 1 of  1
Closing buffer KAO[aa] ( 0.00 GB; CompressionRatio= 1.00)
Collecting buffer KAO 
SORTING OF BETA /BETA  PAIRS
IBATCH = 1 of  1
Closing buffer KAO[bb] ( 0.00 GB; CompressionRatio= 1.00)
Collecting buffer KAO 
SORTING OF ALPHA/BETA  PAIRS
IBATCH = 1 of  1
Closing buffer KAO[ab] ( 0.00 GB; CompressionRatio= 0.999063378083)
Collecting buffer KAO[ab] 
------------------------
SORTING OF (i,mue|a,nue)
------------------------

Number of alpha/alpha (i,a) pairs in trafo  ...  300
Number of beta /beta  (i,a) pairs in trafo  ...  204
Number of alpha/ beta (i,a) pairs in trafo  ...  340
Number of beta /alpha (i,a) pairs in trafo  ...  180
Setting up the alpha/alpha list             ... done
Setting up the beta /beta  list             ... done
Setting up the alpha/beta  list             ... done
Setting up the beta /alpha list             ... done
    ... Now sorting (i,mue|a,nue)integrals
    ... Integrals (i,b|a,c) will be made on the fly
SORTING OF ALPHA/ALPHA PAIRS
IBATCH = 1 of  1
Closing buffer IPAQ[aa]  0.00 GB; CompressionRatio= 1.00)
SORTING OF BETA /BETA  PAIRS
IBATCH = 1 of  1
Closing buffer IPAQ[bb]( 0.00 GB; CompressionRatio= 1.00)
SORTING OF ALPHA/BETA  PAIRS (NMatSort_ab=15)
IBATCH = 1 of  1
Closing buffer IPAQ[ab]( 0.00 GB; CompressionRatio= 1.00)
SORTING OF BETA/ALPHA  PAIRS
IBATCH = 1 of  1
Closing buffer IPAQ[ba]( 0.00 GB; CompressionRatio= 1.00)
N(AO-Batches) Done                         ...         0 
N(AO-Batches) Skipped                      ...         0 
N(IJ)-pairs Skipped                        ...         0 
TOTAL TIME for half transformation         ...     2.154 sec
AO-integral generation                     ...     0.000 sec
Half transformation                        ...     0.000 sec
K-integral sorting                         ...     0.768 sec
<ss|**>: 
------------------------------
PARTIAL COULOMB TRANSFORMATION
------------------------------

Transformation type                        ... two-operators
Dimension of the basis                     ...   40
Number of internal alpha-MOs               ...   10 (0-9)
Number of internal beta-MOs                ...    6 (0-5)
Pair cutoff                                ... 0.000e+00 Eh
Number of AO pairs included in the trafo   ...  820
Total Number of distinct AO pairs          ...  820
Memory devoted for trafo                   ... 2500.0 MB 
Max. Number of MO pairs treated together   ... 399609      
Max. Number of MOs treated per batch       ... 9990      
Number Format for Storage                  ... Double (8 Byte)
AO-integral source                         ... DIRECT
Integral package used                      ... LIBINT

Starting integral evaluation:
        2205 b        0 skpd     0.001 s (  0.001 ms/b)
<sp|**>:         2520 b        0 skpd     0.011 s (  0.004 ms/b)
<sd|**>:         1890 b        0 skpd     0.013 s (  0.007 ms/b)
<sf|**>: <pp|**>:          630 b        0 skpd     0.008 s (  0.012 ms/b)
        1050 b        0 skpd     0.016 s (  0.015 ms/b)
<pd|**>:         1260 b        0 skpd     0.036 s (  0.028 ms/b)
<pf|**>:          420 b        0 skpd     0.022 s (  0.053 ms/b)
<dd|**>:          630 b        0 skpd     0.026 s (  0.041 ms/b)
<df|**>:          315 b        0 skpd     0.040 s (  0.128 ms/b)
<ff|**>:          105 b        0 skpd     0.018 s (  0.168 ms/b)
Closing buffer AOJ[aa] ( 0.00 GB; CompressionRatio= 0.97)
Closing buffer AOJ[bb] ( 0.00 GB; CompressionRatio= 0.00)
Collecting buffer AOJ 
    ... done with AO integral generation
Number of Alpha-MO pairs included          ...   55
Number of Beta-MO pairs included           ...   21
    ... Now sorting integrals
SORTING ALPHA/ALPHA PAIRS
IBATCH = 1 of  1
Closing buffer JAO[aa] ( 0.00 GB; CompressionRatio= 1.00)
SORTING BETA/BETA PAIRS
IBATCH = 1 of  1
Closing buffer JAO[bb] ( 0.00 GB; CompressionRatio= 1.00)
Collecting buffer JAO 
TOTAL TIME for half transformation         ...     0.350 sec
AO-integral generation                     ...     0.123 sec
Half transformation                        ...     0.068 sec
J-integral sorting                         ...     0.109 sec

-------------------------- SECOND HALF TRANSFORMATION -------------------------
Formation of (ij|kl),(ij|ka), (ij|ab)      ... ok (     0.258 sec)
Formation of (ik|jl),(ik|ja), (ia|jb)      ... ok (     0.511 sec)


-----------------------
SPIN UNRESTRICTED GUESS
-----------------------

Entering MDCI_UHF_Guess, Tailored=0
Spin-components of the MP2 energy:
EMP2(aa)=     -0.081692630
EMP2(bb)=     -0.028719003
EMP2(ab)=     -0.186314994

Initial guess performed in     0.006 sec
E(0)                                       ...    -89.803781361
E(MP2)                                     ...     -0.296726627
Initial E(tot)                             ...    -90.100507988
<T|T>                                      ...      0.085022018
Number of pairs included                   ... 120

------------------------------------------------
                  UHF COUPLED CLUSTER ITERATIONS
------------------------------------------------

Number of amplitudes to be optimized       ...        90372

Iter       E(tot)           E(Corr)          Delta-E          Residual     Time      <S|S>**1/2
  0    -90.100508045     -0.296726684     -0.000000057      0.022772339    0.10      0.000138348
                           *** Turning on DIIS ***
  1    -90.087487459     -0.283706098      0.013020586      0.009003425    0.07      0.032913149
  2    -90.092577790     -0.288796429     -0.005090332      0.007538274    0.08      0.040270561
  3    -90.094147397     -0.290366036     -0.001569606      0.005863134    0.08      0.047225467
  4    -90.094737607     -0.290956246     -0.000590210      0.004026288    0.08      0.050679898
  5    -90.094921743     -0.291140382     -0.000184136      0.002396540    0.08      0.051422194
  6    -90.095056564     -0.291275203     -0.000134821      0.000644096    0.09      0.051045955
  7    -90.095079308     -0.291297947     -0.000022744      0.000099820    0.08      0.050624473
  8    -90.095081426     -0.291300065     -0.000002118      0.000077684    0.08      0.050558962
  9    -90.095084800     -0.291303439     -0.000003374      0.000078459    0.07      0.050582759
 10    -90.095085135     -0.291303774     -0.000000335      0.000079164    0.08      0.050604168
 11    -90.095085024     -0.291303663      0.000000111      0.000079509    0.08      0.050609731
 12    -90.095085859     -0.291304498     -0.000000834      0.000076838    0.07      0.050580233
 13    -90.095085280     -0.291303919      0.000000579      0.000065043    0.07      0.050560215
 14    -90.095084460     -0.291303099      0.000000819      0.000058580    0.07      0.050615347
 15    -90.095084490     -0.291303129     -0.000000030      0.000058587    0.07      0.050613718
 16    -90.095083825     -0.291302464      0.000000666      0.000057680    0.07      0.050634678
 17    -90.095083117     -0.291301756      0.000000708      0.000055882    0.07      0.050663442
 18    -90.095082397     -0.291301036      0.000000720      0.000052196    0.07      0.050717172
 19    -90.095082002     -0.291300641      0.000000395      0.000038537    0.07      0.051005770
 20    -90.095083145     -0.291301784     -0.000001144      0.000026921    0.07      0.051323948
 21    -90.095084835     -0.291303474     -0.000001690      0.000021961    0.08      0.051428914
 22    -90.095085280     -0.291303919     -0.000000444      0.000020183    0.08      0.051431101
 23    -90.095084815     -0.291303454      0.000000464      0.000018450    0.07      0.051411924
 24    -90.095084301     -0.291302940      0.000000515      0.000017398    0.07      0.051398229
 25    -90.095084278     -0.291302917      0.000000022      0.000017172    0.07      0.051390547
 26    -90.095084270     -0.291302909      0.000000008      0.000016920    0.07      0.051401339
 27    -90.095084376     -0.291303015     -0.000000105      0.000018752    0.08      0.051312179
 28    -90.095084348     -0.291302987      0.000000027      0.000019251    0.08      0.051293294
 29    -90.095084267     -0.291302906      0.000000082      0.000019521    0.08      0.051287327
 30    -90.095084387     -0.291303026     -0.000000120      0.000019245    0.08      0.051283281
 31    -90.095084347     -0.291302986      0.000000040      0.000019128    0.07      0.051308175
 32    -90.095084633     -0.291303272     -0.000000285      0.000016764    0.07      0.051403788
 33    -90.095084846     -0.291303485     -0.000000214      0.000012255    0.07      0.051545734
 34    -90.095085153     -0.291303792     -0.000000307      0.000006671    0.08      0.051659985
               --- The Coupled-Cluster iterations have converged ---

----------------------
COUPLED CLUSTER ENERGY
----------------------

E(0)                                       ...    -89.803781361
E(CORR)                                    ...     -0.291303792
E(TOT)                                     ...    -90.095085153
Singles norm <S|S>**1/2                    ...      0.051659985 ( 0.036356506, 0.015303479)  
T1 diagnostic                              ...      0.012914996                              

------------------
LARGEST AMPLITUDES
------------------
   5b-> 11b   4b-> 10b       0.083658
   5b-> 10b   4b-> 11b       0.083658
   9a-> 13a  -1a-> -1a       0.041568
   9a-> 11a   5b->  9b       0.029318
   9a-> 10a   4b->  9b       0.029318
   5b-> 10b   4b-> 17b       0.029308
   5b-> 17b   4b-> 10b       0.029308
   5b-> 11b   4b-> 16b       0.029308
   5b-> 16b   4b-> 11b       0.029308
   9a-> 12a   5b->  8b       0.028932
   9a-> 12a   4b->  7b       0.028932
   5a-> 22a   4a-> 23a       0.028649
   5a-> 23a   4a-> 22a       0.028649
   7a-> 17a   4b-> 15b       0.025111
   8a-> 18a   5b-> 14b       0.025111
   8a-> 26a   6a-> 24a       0.022721

----------------------
UHF TRIPLES CORRECTION (Algorithm 1)
----------------------

Multiplier for the singles contribution    ...      1.000000000

SPIN-CASE Alpha-Alpha-Alpha:
10% done
20% done
30% done
40% done
50% done
60% done
70% done
80% done
90% done


SPIN-CASE Beta-Beta-Beta:
10% done
20% done
30% done
40% done
50% done
60% done
70% done
80% done
90% done


SPIN-CASE Alpha-Alpha-Beta:
10% done
20% done
30% done
40% done
50% done
60% done
70% done
80% done
90% done


SPIN-CASE Beta-Beta-Alpha:
10% done
20% done
30% done
40% done
50% done
60% done
70% done
80% done
90% done


Triples Correction (T)                     ...     -0.007848065
    alpha-alpha-alpha ... -0.000609047 (  7.8%)
    alpha-alpha-beta  ... -0.004168766 ( 53.1%)
    alpha-beta -beta  ... -0.002858931 ( 36.4%)
    beta -beta -beta  ... -0.000211322 (  2.7%)
Scaling of triples based on CCSD energies (Peterson et al. Molecular Physics 113, 1551 (2015))
E(T*) = f*E(T) where f = E(F12-CCSD)/E(CCSD) 
f = CCSD (with F12)/ CCSD (without F12)    ...      1.000000000
Scaled triples correction (T)              ...     -0.007848065

Final correlation energy                   ...     -0.299151857
E(CCSD)                                    ...    -90.095085153
E(CCSD(T))                                 ...    -90.102933218



        !!!!!!!!!!!!!!!!!!!!!!!!!!!!!!!!!!!!!!!!!!!!!!!!!!!!!!!!!!!!!!!!!!!!!!!!!! 
        !  Warning: Densities are linearized densities                           !
        !!!!!!!!!!!!!!!!!!!!!!!!!!!!!!!!!!!!!!!!!!!!!!!!!!!!!!!!!!!!!!!!!!!!!!!!!! 

NORM  =      1.100982619 sqrt=     1.049277189
W(HF) =      0.908279552
------------------------------------------------------------------------------
                           ORCA POPULATION ANALYSIS
------------------------------------------------------------------------------
Input electron density              ... 76_Os.mdcip
Input spin density                  ... 76_Os.mdcir
BaseName (.gbw .S,...)              ... 76_Os

                    ********************************
                    * MULLIKEN POPULATION ANALYSIS *
                    ********************************

------------------------------------------
MULLIKEN ATOMIC CHARGES AND SPIN DENSITIES
------------------------------------------
   0 Os:   -0.000000    4.000000
Sum of atomic charges       :   -0.0000000
Sum of atomic spin densities:    4.0000000

---------------------------------------------------
MULLIKEN REDUCED ORBITAL CHARGES AND SPIN DENSITIES
---------------------------------------------------
CHARGE
  0 Oss       :     2.987776  s :     2.987776
      pz      :     2.008323  p :     6.012121
      px      :     2.001899
      py      :     2.001899
      dz2     :     0.997545  d :     6.945818
      dxz     :     1.966144
      dyz     :     1.966188
      dx2y2   :     1.007991
      dxy     :     1.007950
      f0      :     0.007769  f :     0.054285
      f+1     :     0.008431
      f-1     :     0.008431
      f+2     :     0.009331
      f-2     :     0.009331
      f+3     :     0.005496
      f-3     :     0.005496

SPIN
  0 Oss       :     0.984949  s :     0.984949
      pz      :     0.006644  p :     0.027048
      px      :     0.010202
      py      :     0.010202
      dz2     :     0.986040  d :     2.968533
      dxz     :     0.014713
      dyz     :     0.014669
      dx2y2   :     0.976535
      dxy     :     0.976577
      f0      :     0.002771  f :     0.019470
      f+1     :     0.002257
      f-1     :     0.002257
      f+2     :     0.001256
      f-2     :     0.001256
      f+3     :     0.004836
      f-3     :     0.004836


                     *******************************
                     * LOEWDIN POPULATION ANALYSIS *
                     *******************************

-----------------------------------------
LOEWDIN ATOMIC CHARGES AND SPIN DENSITIES
-----------------------------------------
   0 Os:   -0.000000    4.000000

--------------------------------------------------
LOEWDIN REDUCED ORBITAL CHARGES AND SPIN DENSITIES
--------------------------------------------------
CHARGE
  0 Oss       :     2.987776  s :     2.987776
      pz      :     2.008323  p :     6.012121
      px      :     2.001899
      py      :     2.001899
      dz2     :     0.997545  d :     6.945818
      dxz     :     1.966144
      dyz     :     1.966188
      dx2y2   :     1.007991
      dxy     :     1.007950
      f0      :     0.007769  f :     0.054285
      f+1     :     0.008431
      f-1     :     0.008431
      f+2     :     0.009331
      f-2     :     0.009331
      f+3     :     0.005496
      f-3     :     0.005496

SPIN
  0 Oss       :     0.984949  s :     0.984949
      pz      :     0.006644  p :     0.027048
      px      :     0.010202
      py      :     0.010202
      dz2     :     0.986040  d :     2.968533
      dxz     :     0.014713
      dyz     :     0.014669
      dx2y2   :     0.976535
      dxy     :     0.976577
      f0      :     0.002771  f :     0.019470
      f+1     :     0.002257
      f-1     :     0.002257
      f+2     :     0.001256
      f-2     :     0.001256
      f+3     :     0.004836
      f-3     :     0.004836


                      *****************************
                      * MAYER POPULATION ANALYSIS *
                      *****************************

  NA   - Mulliken gross atomic population
  ZA   - Total nuclear charge
  QA   - Mulliken gross atomic charge
  VA   - Mayer's total valence
  BVA  - Mayer's bonded valence
  FA   - Mayer's free valence

  ATOM       NA         ZA         QA         VA         BVA        FA
  0 Os    16.0000    16.0000    -0.0000     4.5808     0.0000     4.5808





------------------------------------------------------------------------------- 
                                     TIMINGS                                   
------------------------------------------------------------------------------- 


Total execution time                   ...        7.571 sec

Fock Matrix Formation                  ...        0.167 sec (  2.2%)
Initial Guess                          ...        0.006 sec (  0.1%)
DIIS Solver                            ...        0.352 sec (  4.7%)
State Vector Update                    ...        0.021 sec (  0.3%)
Sigma-vector construction              ...        2.271 sec ( 30.0%)
  <D|H|D>(0-ext Fock)                  ...        0.005 sec (  0.2% of sigma)
  <D|H|D>(0-ext)                       ...        0.011 sec (  0.5% of sigma)
  <D|H|D>(2-ext Fock)                  ...        0.001 sec (  0.1% of sigma)
  <D|H|D>(2-ext)                       ...        0.044 sec (  1.9% of sigma)
  <D|H|D>(4-ext)                       ...        0.743 sec ( 32.7% of sigma)
  <S|H|0>                              ...        0.059 sec (  2.6% of sigma)
  <S|H|S>                              ...        0.002 sec (  0.1% of sigma)
  <S|H|D>(1-ext)                       ...        0.002 sec (  0.1% of sigma)
  <D|H|S>(1-ext)                       ...        0.027 sec (  1.2% of sigma)
  Fock-dressing                        ...        0.482 sec ( 21.2% of sigma)
  (ik|jl)-dressing                     ...        0.019 sec (  0.8% of sigma)
  (ij|ab),(ia|jb)-dressing             ...        0.671 sec ( 29.5% of sigma)
  Pair energies                        ...        0.003 sec (  0.2% of sigma)
Total Time for computing (T)           ...        0.040 sec (  0.5% of ALL)
  I/O of integral and amplitudes       ...        0.009 sec ( 22.2% of (T))
  External N**7 contributions          ...        0.007 sec ( 18.1% of (T))
  Internal N**7 contributions          ...        0.003 sec (  8.7% of (T))
  N**6 triples energy contributions    ...        0.014 sec ( 34.3% of (T))


-------------------------   --------------------
FINAL SINGLE POINT ENERGY       -90.102933218294
-------------------------   --------------------


                            ***************************************
                            *     ORCA property calculations      *
                            ***************************************

                                    ---------------------
                                    Active property flags
                                    ---------------------
   (+) Dipole Moment


------------------------------------------------------------------------------
                       ORCA ELECTRIC PROPERTIES CALCULATION
------------------------------------------------------------------------------

Dipole Moment Calculation                       ... on
Quadrupole Moment Calculation                   ... off
Polarizability Calculation                      ... off
GBWName                                         ... 76_Os.gbw
Electron density file                           ... 76_Os.scfp
The origin for moment calculation is the CENTER OF MASS  = ( 0.000000,  0.000000  0.000000)

-------------
DIPOLE MOMENT
-------------
                                X             Y             Z
Electronic contribution:      0.00000       0.00000      -0.00000
Nuclear contribution   :      0.00000       0.00000       0.00000
                        -----------------------------------------
Total Dipole Moment    :      0.00000       0.00000      -0.00000
                        -----------------------------------------
Magnitude (a.u.)       :      0.00000
Magnitude (Debye)      :      0.00000



--------------------
Rotational spectrum 
--------------------
 
Rotational constants in cm-1:     0.000000     0.000000     0.000000 
Rotational constants in MHz :     0.000000     0.000000     0.000000 

 Dipole components along the rotational axes: 
x,y,z [a.u.] :     0.000000     0.000000    -0.000000 
x,y,z [Debye]:     0.000000     0.000000    -0.000000 

 

                           *** MDCI DENSITY ***

------------------------------------------------------------------------------
                       ORCA ELECTRIC PROPERTIES CALCULATION
------------------------------------------------------------------------------

Dipole Moment Calculation                       ... on
Quadrupole Moment Calculation                   ... off
Polarizability Calculation                      ... off
GBWName                                         ... 76_Os.gbw
Electron density file                           ... 76_Os.mdcip
The origin for moment calculation is the CENTER OF MASS  = ( 0.000000,  0.000000  0.000000)

-------------
DIPOLE MOMENT
-------------
                                X             Y             Z
Electronic contribution:      0.00000      -0.00000      -0.00000
Nuclear contribution   :      0.00000       0.00000       0.00000
                        -----------------------------------------
Total Dipole Moment    :      0.00000      -0.00000      -0.00000
                        -----------------------------------------
Magnitude (a.u.)       :      0.00000
Magnitude (Debye)      :      0.00000



--------------------
Rotational spectrum 
--------------------
 
Rotational constants in cm-1:     0.000000     0.000000     0.000000 
Rotational constants in MHz :     0.000000     0.000000     0.000000 

 Dipole components along the rotational axes: 
x,y,z [a.u.] :     0.000000    -0.000000    -0.000000 
x,y,z [Debye]:     0.000000    -0.000000    -0.000000 

 

Timings for individual modules:

Sum of individual times         ...       15.497 sec (=   0.258 min)
GTO integral calculation        ...        0.926 sec (=   0.015 min)   6.0 %
SCF iterations                  ...        6.573 sec (=   0.110 min)  42.4 %
MDCI module                     ...        7.998 sec (=   0.133 min)  51.6 %
                             ****ORCA TERMINATED NORMALLY****
TOTAL RUN TIME: 0 days 0 hours 0 minutes 16 seconds 257 msec
