
                                 *****************
                                 * O   R   C   A *
                                 *****************

           --- An Ab Initio, DFT and Semiempirical electronic structure package ---

                  #######################################################
                  #                        -***-                        #
                  #          Department of theory and spectroscopy      #
                  #               Directorship: Frank Neese             #
                  #        Max Planck Institute fuer Kohlenforschung    #
                  #                Kaiser Wilhelm Platz 1               #
                  #                 D-45470 Muelheim/Ruhr               #
                  #                      Germany                        #
                  #                                                     #
                  #                  All rights reserved                #
                  #                        -***-                        #
                  #######################################################


                         Program Version 4.2.0 -  RELEASE  -


 With contributions from (in alphabetic order):
   Daniel Aravena         : Magnetic Suceptibility
   Michael Atanasov       : Ab Initio Ligand Field Theory (pilot matlab implementation)
   Alexander A. Auer      : GIAO ZORA, VPT2
   Ute Becker             : Parallelization
   Giovanni Bistoni       : ED, misc. LED, open-shell LED, HFLED
   Martin Brehm           : Molecular dynamics
   Dmytro Bykov           : SCF Hessian
   Vijay G. Chilkuri      : MRCI spin determinant printing, contributions to CSF-ICE
   Dipayan Datta          : RHF DLPNO-CCSD density
   Achintya Kumar Dutta   : EOM-CC, STEOM-CC
   Dmitry Ganyushin       : Spin-Orbit,Spin-Spin,Magnetic field MRCI
   Miquel Garcia          : C-PCM Hessian, Gaussian charge scheme
   Yang Guo               : DLPNO-NEVPT2, CIM, IAO-localization
   Andreas Hansen         : Spin unrestricted coupled pair/coupled cluster methods
   Benjamin Helmich-Paris : CASSCF linear response (MC-RPA)
   Lee Huntington         : MR-EOM, pCC
   Robert Izsak           : Overlap fitted RIJCOSX, COSX-SCS-MP3, EOM
   Christian Kollmar      : KDIIS, OOCD, Brueckner-CCSD(T), CCSD density
   Simone Kossmann        : Meta GGA functionals, TD-DFT gradient, OOMP2, MP2 Hessian
   Martin Krupicka        : AUTO-CI
   Lucas Lang             : DCDCAS
   Dagmar Lenk            : GEPOL surface, SMD
   Dimitrios Liakos       : Extrapolation schemes; Compound Job, initial MDCI parallelization
   Dimitrios Manganas     : Further ROCIS development; embedding schemes
   Dimitrios Pantazis     : SARC Basis sets
   Taras Petrenko         : DFT Hessian,TD-DFT gradient, ASA, ECA, R-Raman, ABS, FL, XAS/XES, NRVS
   Peter Pinski           : DLPNO-MP2, DLPNO-MP2 Gradient
   Christoph Reimann      : Effective Core Potentials
   Marius Retegan         : Local ZFS, SOC
   Christoph Riplinger    : Optimizer, TS searches, QM/MM, DLPNO-CCSD(T), (RO)-DLPNO pert. Triples
   Tobias Risthaus        : Range-separated hybrids, TD-DFT gradient, RPA, STAB
   Michael Roemelt        : Original ROCIS implementation
   Masaaki Saitow         : Open-shell DLPNO-CCSD energy and density
   Barbara Sandhoefer     : DKH picture change effects
   Avijit Sen             : IP-ROCIS
   Kantharuban Sivalingam : CASSCF convergence, NEVPT2, FIC-MRCI
   Bernardo de Souza      : ESD, SOC TD-DFT
   Georgi Stoychev        : AutoAux, RI-MP2 NMR
   Willem Van den Heuvel  : Paramagnetic NMR
   Boris Wezisla          : Elementary symmetry handling
   Frank Wennmohs         : Technical directorship


 We gratefully acknowledge several colleagues who have allowed us to
 interface, adapt or use parts of their codes:
   Stefan Grimme, W. Hujo, H. Kruse,             : VdW corrections, initial TS optimization,
                  C. Bannwarth                     DFT functionals, gCP, sTDA/sTD-DF
   Ed Valeev, F. Pavosevic, A. Kumar             : LibInt (2-el integral package), F12 methods
   Garnet Chan, S. Sharma, J. Yang, R. Olivares  : DMRG
   Ulf Ekstrom                                   : XCFun DFT Library
   Mihaly Kallay                                 : mrcc  (arbitrary order and MRCC methods)
   Andreas Klamt, Michael Diedenhofen            : otool_cosmo (COSMO solvation model)
   Jiri Pittner, Ondrej Demel                    : Mk-CCSD
   Frank Weinhold                                : gennbo (NPA and NBO analysis)
   Christopher J. Cramer and Donald G. Truhlar   : smd solvation model
   Lars Goerigk                                  : TD-DFT with DH, B97 family of functionals
   V. Asgeirsson, H. Jonsson                     : NEB implementation
   FAccTs GmbH                                   : IRC, NEB, NEB-TS, Multilevel, MM, QM/MM, CI optimization
   S Lehtola, MJT Oliveira, MAL Marques          : LibXC Library


 Your calculation uses the libint2 library for the computation of 2-el integrals
 For citations please refer to: http://libint.valeyev.net

 Your ORCA version has been built with support for libXC version: 4.2.3
 For citations please refer to: https://tddft.org/programs/libxc/

 This ORCA versions uses:
   CBLAS   interface :  Fast vector & matrix operations
   LAPACKE interface :  Fast linear algebra routines
   SCALAPACK package :  Parallel linear algebra routines


Setting NCore(Ir) from 46 to 60
----- Orbital basis set information -----
Your calculation utilizes the basis: def2-TZVP
   F. Weigend and R. Ahlrichs, Phys. Chem. Chem. Phys. 7, 3297 (2005).

cite the ECPs for Ir [Def2-ECP] as follows:
Ce-Yb(ecp-28): M. Dolg, H. Stoll, H.Preuss, J. Chem. Phys., 1989, 90, 1730-1734.
Y-Cd(ecp-28), Hf-Hg(ecp-46): D. Andrae,U. Haeussermann, M. Dolg, H. Stoll, H. Preuss, Theor. Chim. Acta, 1990, 77, 123-141.
In-Sb(ecp-28), Tl-Bi(ecp-46): B. Metz, H. Stoll, M. Dolg, J. Chem. Phys., 2000, 113, 2563-2569.
Te-Xe(ecp-28), Po-Rn(ecp-46): K. A. Peterson, D. Figgen, E. Goll, H. Stoll, M. Dolg, J. Chem. Phys., 2003, 119, 11113-11123.
Rb(ecp-28), Cs(ecp-46): T. Leininger, A. Nicklass, W. Kuechle, H. Stoll, M. Dolg, A. Bergner, Chem. Phys. Lett., 1996, 255, 274-280.
Sr(ecp-28), Ba(ecp-46): M. Kaupp, P. V. Schleyer, H. Stoll and H. Preuss, J. Chem. Phys., 1991, 94, 1360-1366.
La(ecp-46): M. Dolg, H. Stoll, A. Savin, H. Preuss, Theor. Chim. Acta, 1989, 75, 173-194.
Lu(ecp-28): X. Cao, M. Dolg, J. Chem. Phys., 2001, 115, 7348-7355.

ECP parameters for Ir [Def2-ECP] have been obtained from:
TURBOMOLE (7.0.2)

================================================================================
                                        WARNINGS
                       Please study these warnings very carefully!
================================================================================


WARNING: your system is open-shell and RHF/RKS was chosen
  ===> : WILL SWITCH to UHF/UKS


WARNING: MDCI localization with Augmented Hessian Foster-Boys
  ===> : Switching off randomization!

WARNING: Post HF methods need fully converged wavefunctions
  ===> : Setting SCFConvForced true
         You can overwrite this default with %scf ConvForced false 


INFO   : the flag for use of LIBINT has been found!

================================================================================
                                       INPUT FILE
================================================================================
NAME = 77_Ir.in
|  1> #
|  2> # 77_Ir CCSD(T)/Def2-TZVP
|  3> #
|  4> ! CCSD(T) Def2-TZVP tightscf
|  5> 
|  6> *xyz 0 4
|  7>  Ir 0.0 0.0 0.0
|  8> *
|  9> 
| 10> %maxcore 5000 
| 11> 
| 12> %pal
| 13> nprocs 24
| 14> end
| 15> 
| 16> %method
| 17> NewNCore Ir 60 end
| 18> end
| 19> 
| 20> 
| 21>                          ****END OF INPUT****
================================================================================

                       ****************************
                       * Single Point Calculation *
                       ****************************

---------------------------------
CARTESIAN COORDINATES (ANGSTROEM)
---------------------------------
  Ir     0.000000    0.000000    0.000000

----------------------------
CARTESIAN COORDINATES (A.U.)
----------------------------
  NO LB      ZA    FRAG     MASS         X           Y           Z
   0 Ir   17.0000*   0   192.220    0.000000    0.000000    0.000000
* core charge reduced due to ECP

--------------------------------
INTERNAL COORDINATES (ANGSTROEM)
--------------------------------
 Ir     0   0   0     0.000000000000     0.00000000     0.00000000

---------------------------
INTERNAL COORDINATES (A.U.)
---------------------------
 Ir     0   0   0     0.000000000000     0.00000000     0.00000000

---------------------
BASIS SET INFORMATION
---------------------
There are 1 groups of distinct atoms

 Group   1 Type Ir  : 8s7p6d1f contracted to 6s4p3d1f pattern {311111/4111/411/1}

Atom   0Ir   basis set group =>   1
-------------------------
ECP PARAMETER INFORMATION
-------------------------

 Group 1, Type Ir ECP Def2-ECP (replacing 60 core electrons, lmax=3)

Atom   0Ir   ECP group =>   1



           ************************************************************
           *        Program running with 24 parallel MPI-processes    *
           *              working on a common directory               *
           ************************************************************
------------------------------------------------------------------------------
                           ORCA GTO INTEGRAL CALCULATION
------------------------------------------------------------------------------

                         BASIS SET STATISTICS AND STARTUP INFO

 # of primitive gaussian shells          ...   22
 # of primitive gaussian functions       ...   66
 # of contracted shells                  ...   14
 # of contracted basis functions         ...   40
 Highest angular momentum                ...    3
 Maximum contraction depth               ...    4
 Integral package used                   ... LIBINT
 Integral threshhold            Thresh   ...  2.500e-11
 Primitive cut-off              TCut     ...  2.500e-12


------------------------------ INTEGRAL EVALUATION ----------------------------


 * One electron integrals 

   ECP integrals                         ... done
 Pre-screening matrix                    ... done
 Shell pair data                         ... done (   0.000 sec)



           ************************************************************
           *        Program running with 24 parallel MPI-processes    *
           *              working on a common directory               *
           ************************************************************
-------------------------------------------------------------------------------
                                 ORCA SCF
-------------------------------------------------------------------------------

------------
SCF SETTINGS
------------
Hamiltonian:
 Ab initio Hamiltonian  Method          .... Hartree-Fock(GTOs)


General Settings:
 Integral files         IntName         .... 77_Ir
 Hartree-Fock type      HFTyp           .... UHF
 Total Charge           Charge          ....    0
 Multiplicity           Mult            ....    4
 Number of Electrons    NEL             ....   17
 Basis Dimension        Dim             ....   40
 Nuclear Repulsion      ENuc            ....      0.0000000000 Eh

Convergence Acceleration:
 DIIS                   CNVDIIS         .... on
   Start iteration      DIISMaxIt       ....    12
   Startup error        DIISStart       ....  0.200000
   # of expansion vecs  DIISMaxEq       ....     5
   Bias factor          DIISBfac        ....   1.050
   Max. coefficient     DIISMaxC        ....  10.000
 Newton-Raphson         CNVNR           .... off
 SOSCF                  CNVSOSCF        .... off
 Level Shifting         CNVShift        .... on
   Level shift para.    LevelShift      ....    0.2500
   Turn off err/grad.   ShiftErr        ....    0.0010
 Zerner damping         CNVZerner       .... off
 Static damping         CNVDamp         .... on
   Fraction old density DampFac         ....    0.7000
   Max. Damping (<1)    DampMax         ....    0.9800
   Min. Damping (>=0)   DampMin         ....    0.0000
   Turn off err/grad.   DampErr         ....    0.1000
 Fernandez-Rico         CNVRico         .... off

SCF Procedure:
 Maximum # iterations   MaxIter         ....   125
 SCF integral mode      SCFMode         .... Direct
   Integral package                     .... LIBINT
 Reset frequency        DirectResetFreq ....    20
 Integral Threshold     Thresh          ....  2.500e-11 Eh
 Primitive CutOff       TCut            ....  2.500e-12 Eh

Convergence Tolerance:
 Convergence Check Mode ConvCheckMode   .... Total+1el-Energy
 Convergence forced     ConvForced      .... 1
 Energy Change          TolE            ....  1.000e-08 Eh
 1-El. energy change                    ....  1.000e-05 Eh
 DIIS Error             TolErr          ....  5.000e-07


Diagonalization of the overlap matrix:
Smallest eigenvalue                        ... 1.575e-02
Time for diagonalization                   ...    0.001 sec
Threshold for overlap eigenvalues          ... 1.000e-08
Number of eigenvalues below threshold      ... 0
Time for construction of square roots      ...    0.012 sec
Total time needed                          ...    0.013 sec

-------------------
DFT GRID GENERATION
-------------------

General Integration Accuracy     IntAcc      ...  4.340
Radial Grid Type                 RadialGrid  ... Gauss-Chebyshev
Angular Grid (max. acc.)         AngularGrid ... Lebedev-110
Angular grid pruning method      GridPruning ... 3 (G Style)
Weight generation scheme         WeightScheme... Becke
Basis function cutoff            BFCut       ...    1.0000e-11
Integration weight cutoff        WCut        ...    1.0000e-14
Grids for H and He will be reduced by one unit

# of grid points (after initial pruning)     ...   3530 (   0.0 sec)
# of grid points (after weights+screening)   ...   3530 (   0.0 sec)
Grid point division into batches done        ...    0.0 sec
Reduced shell lists constructed in    0.0 sec

Total number of grid points                  ...     3530
Total number of batches                      ...       56
Average number of points per batch           ...       63
Average number of grid points per atom       ...     3530
Average number of shells per batch           ...     3.00 (21.43%)
Average number of basis functions per batch  ...     7.50 (18.75%)
Average number of large shells per batch     ...     2.25 (75.00%)
Average number of large basis fcns per batch ...     6.75 (90.00%)
Maximum spatial batch extension              ...  25.56, 38.92, 38.92 au
Average spatial batch extension              ...   1.31,  1.85,  2.08 au

Time for grid setup =    0.112 sec

------------------------------
INITIAL GUESS: MODEL POTENTIAL
------------------------------
Loading Hartree-Fock densities                     ... done
  calling /sw/apps/orca/orca_4_2_0_linux_x86-64_openmpi314/orca 77_Ir_atom77.inp > 77_Ir_atom77.out in order to generate an atomic fitting density for atom 0 (Ir with ECP) on-the-fly... 
    atom 0 (Ir), assumed electronic state with S=4: 1s2 2s2 2p6 3s2 3p6 4s2 3d10 4p6 5s2 4d10 5p6 6s2 4f14 5d7           ... done
Calculating cut-offs                               ... done
Setting up the integral package                    ... done
Initializing the effective Hamiltonian             ... done
Starting the Coulomb interaction                   ... done (   0.0 sec)
Reading the grid                                   ... done
Mapping shells                                     ... done
Starting the XC term evaluation                    ... done (   0.0 sec)
Transforming the Hamiltonian                       ... done (   0.0 sec)
Diagonalizing the Hamiltonian                      ... done (   0.0 sec)
Back transforming the eigenvectors                 ... done (   0.0 sec)
Now organizing SCF variables                       ... done
                      ------------------
                      INITIAL GUESS DONE (   1.4 sec)
                      ------------------
--------------
SCF ITERATIONS
--------------
ITER       Energy         Delta-E        Max-DP      RMS-DP      [F,P]     Damp
               ***  Starting incremental Fock matrix formation  ***
  0   -102.2243920357   0.000000000000 0.52281466  0.01562637  0.6772830 0.7000
  1   -102.6794697770  -0.455077741336 0.35889243  0.01123140  0.4234262 0.7000
  2   -102.9334602175  -0.253990440528 0.22995833  0.00725352  0.2319228 0.7000
                               ***Turning on DIIS***
  3   -103.0886298372  -0.155169619705 0.14832903  0.00465856  0.1355276 0.7000
  4   -103.5540677795  -0.465437942284 0.31270512  0.00994663  0.0905676 0.0000
  5   -103.3674385959   0.186629183607 0.03361047  0.00093839  0.0182260 0.0000
  6   -103.4248160766  -0.057377480723 0.03598620  0.00095961  0.0045026 0.0000
  7   -103.4298593905  -0.005043313823 0.02456910  0.00064089  0.0024581 0.0000
  8   -103.4348983296  -0.005038939106 0.01809245  0.00047089  0.0009654 0.0000
  9   -103.4369251851  -0.002026855552 0.00452039  0.00011894  0.0002419 0.0000
 10   -103.4371749765  -0.000249791404 0.00052305  0.00001390  0.0000252 0.0000
 11   -103.4371311286   0.000043847963 0.00001891  0.00000054  0.0000047 0.0000
 12   -103.4371376825  -0.000006553963 0.00000765  0.00000031  0.0000043 0.0000
 13   -103.4371328309   0.000004851591 0.00001698  0.00000052  0.0000037 0.0000
 14   -103.4371329672  -0.000000136227 0.00002126  0.00000061  0.0000022 0.0000
                 **** Energy Check signals convergence ****

               *****************************************************
               *                     SUCCESS                       *
               *           SCF CONVERGED AFTER  15 CYCLES          *
               *****************************************************


----------------
TOTAL SCF ENERGY
----------------

Total Energy       :         -103.43713296 Eh           -2814.66748 eV

Components:
Nuclear Repulsion  :            0.00000000 Eh               0.00000 eV
Electronic Energy  :         -103.43713296 Eh           -2814.66748 eV
One Electron Energy:         -181.13457271 Eh           -4928.92231 eV
Two Electron Energy:           77.69743975 Eh            2114.25482 eV

Virial components:
Potential Energy   :         -139.21126427 Eh           -3788.13109 eV
Kinetic Energy     :           35.77413131 Eh             973.46360 eV
Virial Ratio       :            3.89139468


---------------
SCF CONVERGENCE
---------------

  Last Energy change         ...    6.1432e-09  Tolerance :   1.0000e-08
  Last MAX-Density change    ...    3.6651e-06  Tolerance :   1.0000e-07
  Last RMS-Density change    ...    1.1932e-07  Tolerance :   5.0000e-09
  Last DIIS Error            ...    3.6169e-07  Tolerance :   5.0000e-07

             **** THE GBW FILE WAS UPDATED (77_Ir.gbw) ****
             **** DENSITY FILE WAS UPDATED (77_Ir.scfp) ****
             **** ENERGY FILE WAS UPDATED (77_Ir.en.tmp) ****
----------------------
UHF SPIN CONTAMINATION
----------------------

Expectation value of <S**2>     :     3.752712
Ideal value S*(S+1) for S=1.5   :     3.750000
Deviation                       :     0.002712

             **** THE GBW FILE WAS UPDATED (77_Ir.gbw) ****
             **** DENSITY FILE WAS UPDATED (77_Ir.scfp) ****
----------------
ORBITAL ENERGIES
----------------
                 SPIN UP ORBITALS
  NO   OCC          E(Eh)            E(eV) 
   0   1.0000      -4.207311      -114.4868 
   1   1.0000      -2.417564       -65.7853 
   2   1.0000      -2.417564       -65.7852 
   3   1.0000      -2.417563       -65.7852 
   4   1.0000      -0.428504       -11.6602 
   5   1.0000      -0.428504       -11.6602 
   6   1.0000      -0.393537       -10.7087 
   7   1.0000      -0.393537       -10.7087 
   8   1.0000      -0.393536       -10.7087 
   9   1.0000      -0.291254        -7.9254 
  10   0.0000       0.060464         1.6453 
  11   0.0000       0.060464         1.6453 
  12   0.0000       0.060465         1.6453 
  13   0.0000       0.249693         6.7945 
  14   0.0000       0.392383        10.6773 
  15   0.0000       0.392383        10.6773 
  16   0.0000       0.400267        10.8918 
  17   0.0000       0.400267        10.8918 
  18   0.0000       0.400268        10.8918 
  19   0.0000       0.811797        22.0901 
  20   0.0000       0.811798        22.0901 
  21   0.0000       0.811799        22.0902 
  22   0.0000       1.570196        42.7272 
  23   0.0000       1.570196        42.7272 
  24   0.0000       1.570197        42.7272 
  25   0.0000       1.585572        43.1456 
  26   0.0000       1.585573        43.1456 
  27   0.0000       1.585574        43.1457 
  28   0.0000       1.605022        43.6749 
  29   0.0000       1.654952        45.0335 
  30   0.0000       1.654952        45.0335 
  31   0.0000       1.676792        45.6278 
  32   0.0000       1.676792        45.6278 
  33   0.0000       1.676792        45.6278 
  34   0.0000       2.266428        61.6727 
  35   0.0000      29.198520       794.5321 
  36   0.0000      29.198520       794.5321 
  37   0.0000      29.198521       794.5321 
  38   0.0000      58.249361      1585.0457 
  39   0.0000     362.745142      9870.7971 

                 SPIN DOWN ORBITALS
  NO   OCC          E(Eh)            E(eV) 
   0   1.0000      -4.104384      -111.6860 
   1   1.0000      -2.277874       -61.9841 
   2   1.0000      -2.277874       -61.9841 
   3   1.0000      -2.277874       -61.9841 
   4   1.0000      -0.337605        -9.1867 
   5   1.0000      -0.337605        -9.1867 
   6   1.0000      -0.337605        -9.1867 
   7   0.0000       0.010226         0.2783 
   8   0.0000       0.111196         3.0258 
   9   0.0000       0.111196         3.0258 
  10   0.0000       0.111197         3.0258 
  11   0.0000       0.155879         4.2417 
  12   0.0000       0.155879         4.2417 
  13   0.0000       0.315518         8.5857 
  14   0.0000       0.420007        11.4290 
  15   0.0000       0.420007        11.4290 
  16   0.0000       0.420008        11.4290 
  17   0.0000       0.467517        12.7218 
  18   0.0000       0.467517        12.7218 
  19   0.0000       0.889924        24.2161 
  20   0.0000       0.889924        24.2161 
  21   0.0000       0.889924        24.2161 
  22   0.0000       1.628379        44.3104 
  23   0.0000       1.670696        45.4620 
  24   0.0000       1.670697        45.4620 
  25   0.0000       1.670697        45.4620 
  26   0.0000       1.706055        46.4241 
  27   0.0000       1.706055        46.4241 
  28   0.0000       1.706055        46.4241 
  29   0.0000       1.706772        46.4436 
  30   0.0000       1.706772        46.4436 
  31   0.0000       1.706773        46.4436 
  32   0.0000       1.750037        47.6209 
  33   0.0000       1.750037        47.6209 
  34   0.0000       2.324964        63.2655 
  35   0.0000      29.221916       795.1688 
  36   0.0000      29.221916       795.1688 
  37   0.0000      29.221916       795.1688 
  38   0.0000      58.256857      1585.2497 
  39   0.0000     362.745731      9870.8132 

                    ********************************
                    * MULLIKEN POPULATION ANALYSIS *
                    ********************************

--------------------------------------------
MULLIKEN ATOMIC CHARGES AND SPIN POPULATIONS
--------------------------------------------
   0 Ir:   -0.000000    3.000000
Sum of atomic charges         :   -0.0000000
Sum of atomic spin populations:    3.0000000

-----------------------------------------------------
MULLIKEN REDUCED ORBITAL CHARGES AND SPIN POPULATIONS
-----------------------------------------------------
CHARGE
  0 Irs       :     3.000000  s :     3.000000
      pz      :     1.999555  p :     5.998666
      px      :     1.999555
      py      :     1.999555
      dz2     :     1.000000  d :     8.000000
      dxz     :     2.000000
      dyz     :     2.000000
      dx2y2   :     1.000000
      dxy     :     2.000000
      f0      :     0.000445  f :     0.001334
      f+1     :     0.000167
      f-1     :     0.000167
      f+2     :     0.000000
      f-2     :     0.000000
      f+3     :     0.000278
      f-3     :     0.000278

SPIN
  0 Irs       :     1.000000  s :     1.000000
      pz      :     0.000403  p :     0.001209
      px      :     0.000403
      py      :     0.000403
      dz2     :     1.000000  d :     2.000000
      dxz     :     0.000000
      dyz     :     0.000000
      dx2y2   :     1.000000
      dxy     :     0.000000
      f0      :    -0.000403  f :    -0.001209
      f+1     :    -0.000151
      f-1     :    -0.000151
      f+2     :    -0.000000
      f-2     :     0.000000
      f+3     :    -0.000252
      f-3     :    -0.000252


                     *******************************
                     * LOEWDIN POPULATION ANALYSIS *
                     *******************************

-------------------------------------------
LOEWDIN ATOMIC CHARGES AND SPIN POPULATIONS
-------------------------------------------
   0 Ir:   -0.000000    3.000000

----------------------------------------------------
LOEWDIN REDUCED ORBITAL CHARGES AND SPIN POPULATIONS
----------------------------------------------------
CHARGE
  0 Irs       :     3.000000  s :     3.000000
      pz      :     1.999555  p :     5.998666
      px      :     1.999555
      py      :     1.999555
      dz2     :     1.000000  d :     8.000000
      dxz     :     2.000000
      dyz     :     2.000000
      dx2y2   :     1.000000
      dxy     :     2.000000
      f0      :     0.000445  f :     0.001334
      f+1     :     0.000167
      f-1     :     0.000167
      f+2     :     0.000000
      f-2     :     0.000000
      f+3     :     0.000278
      f-3     :     0.000278

SPIN
  0 Irs       :     1.000000  s :     1.000000
      pz      :     0.000403  p :     0.001209
      px      :     0.000403
      py      :     0.000403
      dz2     :     1.000000  d :     2.000000
      dxz     :     0.000000
      dyz     :     0.000000
      dx2y2   :     1.000000
      dxy     :     0.000000
      f0      :    -0.000403  f :    -0.001209
      f+1     :    -0.000151
      f-1     :    -0.000151
      f+2     :    -0.000000
      f-2     :     0.000000
      f+3     :    -0.000252
      f-3     :    -0.000252


                      *****************************
                      * MAYER POPULATION ANALYSIS *
                      *****************************

  NA   - Mulliken gross atomic population
  ZA   - Total nuclear charge
  QA   - Mulliken gross atomic charge
  VA   - Mayer's total valence
  BVA  - Mayer's bonded valence
  FA   - Mayer's free valence

  ATOM       NA         ZA         QA         VA         BVA        FA
  0 Ir    17.0000    17.0000    -0.0000     3.0054     0.0000     3.0054

  Mayer bond orders larger than 0.100000


-------
TIMINGS
-------

Total SCF time: 0 days 0 hours 0 min 10 sec 

Total time                  ....      10.107 sec
Sum of individual times     ....       9.637 sec  ( 95.3%)

Fock matrix formation       ....       7.688 sec  ( 76.1%)
Diagonalization             ....       0.086 sec  (  0.9%)
Density matrix formation    ....       0.004 sec  (  0.0%)
Population analysis         ....       0.161 sec  (  1.6%)
Initial guess               ....       1.296 sec  ( 12.8%)
Orbital Transformation      ....       0.000 sec  (  0.0%)
Orbital Orthonormalization  ....       0.000 sec  (  0.0%)
DIIS solution               ....       0.290 sec  (  2.9%)


           ************************************************************
           *        Program running with 24 parallel MPI-processes    *
           *              working on a common directory               *
           ************************************************************


------------------------------------------------------------------------------- 
                              ORCA-MATRIX DRIVEN CI                            
------------------------------------------------------------------------------- 

--------------------------------
AUTOMATIC CHOICE OF INCORE LEVEL
--------------------------------

Memory available                           ...   2500.00 MB
Memory needed for S+T                      ...      1.13 MB
Memory needed for J+K                      ...      2.29 MB
Memory needed for DIIS                     ...     15.86 MB
Memory needed for 3-ext                    ...      2.06 MB
Memory needed for 4-ext                    ...      3.19 MB
Memory needed for triples                  ...      1.03 MB
 -> Final InCoreLevel    ... 5
 -> check shows that triples correction can be computed


Wavefunction type
-----------------
Correlation treatment                      ...      CCSD     
Single excitations                         ... ON
Orbital optimization                       ... OFF
Calculation of Z vector                    ... OFF
Calculation of Brueckner orbitals          ... OFF
Perturbative triple excitations            ... ON
Calculation of F12 correction              ... OFF
Frozen core treatment                      ... chemical core (0 el)
Reference Wavefunction                     ... UHF
  Alpha-MOs occ    :     0 ...    9 ( 10 MO's/ 10 electrons)
  Beta-MOs occ     :     0 ...    6 (  7 MO's/  7 electrons)
  Alpha-MOs virt   :    10 ...   39 ( 30 MO's              )
  Beta-MOs virt    :     7 ...   39 ( 33 MO's              )
Number of AO's                             ...     40
Number of electrons                        ...     17
Number of correlated electrons             ...     17

Algorithmic settings
--------------------
Integral transformation                    ... AO direct full transformation
K(C) Formation                             ... FULL-MO TRAFO
Maximum number of iterations               ...        50
Convergence tolerance (max. residuum)      ... 1.000e-05
Level shift for amplitude update           ... 2.000e-01
Maximum number of DIIS vectors             ...         7
DIIS turned on at iteration                ...         0
Damping before turning on DIIS             ...     0.500
Damping after turning on DIIS              ...     0.000
Pair specific amplitude update             ... OFF
Natural orbital iterations                 ... OFF
Perturbative natural orbital generation    ... OFF
Printlevel                                 ... 2

Memory handling:
----------------
Maximum memory for working arrays          ...   2500 MB
Data storage in matrix containers          ... UNCOMPRESSED
Data type for integral storage             ... DOUBLE
In-Core Storage of quantities:
   Amplitudes+Sigma Vector      ... YES
   J+K operators                ... YES
   DIIS vectors                 ... YES
   3-external integrals         ... YES
   4-external integrals         ... YES


Initializing the integral package          ... done
Warning: reference  - re-canonicalizations have been set to INT 1 VIRT 1

--------------------------
UNRESTRICTED FOCK OPERATOR
--------------------------

<ss|ss>:          231 b            0 skpd (  0.0%)    0.000 s ( 0.000 ms/b)
<ss|sp>:          504 b            0 skpd (  0.0%)    0.000 s ( 0.000 ms/b)
<ss|sd>:          378 b            0 skpd (  0.0%)    0.000 s ( 0.000 ms/b)
<ss|sf>:          126 b            0 skpd (  0.0%)    0.000 s ( 0.000 ms/b)
<ss|pp>:          210 b            0 skpd (  0.0%)    0.000 s ( 0.000 ms/b)
<ss|pd>:          252 b            0 skpd (  0.0%)    0.000 s ( 0.000 ms/b)
<ss|pf>:           84 b            0 skpd (  0.0%)    0.000 s ( 0.001 ms/b)
<ss|dd>:          126 b            0 skpd (  0.0%)    0.000 s ( 0.001 ms/b)
<ss|df>:           63 b            0 skpd (  0.0%)    0.000 s ( 0.002 ms/b)
<ss|ff>:           21 b            0 skpd (  0.0%)    0.000 s ( 0.003 ms/b)
<sp|sp>:          300 b            0 skpd (  0.0%)    0.000 s ( 0.000 ms/b)
<sp|sd>:          432 b            0 skpd (  0.0%)    0.000 s ( 0.000 ms/b)
<sp|sf>:          144 b            0 skpd (  0.0%)    0.000 s ( 0.001 ms/b)
<sp|pp>:          240 b            0 skpd (  0.0%)    0.000 s ( 0.001 ms/b)
<sp|pd>:          288 b            0 skpd (  0.0%)    0.000 s ( 0.001 ms/b)
<sp|pf>:           96 b            0 skpd (  0.0%)    0.000 s ( 0.001 ms/b)
<sp|dd>:          144 b            0 skpd (  0.0%)    0.000 s ( 0.003 ms/b)
<sp|df>:           72 b            0 skpd (  0.0%)    0.000 s ( 0.005 ms/b)
<sp|ff>:           24 b            0 skpd (  0.0%)    0.000 s ( 0.008 ms/b)
<sd|sd>:          171 b            0 skpd (  0.0%)    0.000 s ( 0.001 ms/b)
<sd|sf>:          108 b            0 skpd (  0.0%)    0.000 s ( 0.001 ms/b)
<sd|pp>:          180 b            0 skpd (  0.0%)    0.000 s ( 0.001 ms/b)
<sd|pd>:          216 b            0 skpd (  0.0%)    0.001 s ( 0.003 ms/b)
<sd|pf>:           72 b            0 skpd (  0.0%)    0.000 s ( 0.003 ms/b)
<sd|dd>:          108 b            0 skpd (  0.0%)    0.001 s ( 0.007 ms/b)
<sd|df>:           54 b            0 skpd (  0.0%)    0.001 s ( 0.013 ms/b)
<sd|ff>:           18 b            0 skpd (  0.0%)    0.000 s ( 0.019 ms/b)
<sf|sf>:           21 b            0 skpd (  0.0%)    0.000 s ( 0.002 ms/b)
<sf|pp>:           60 b            0 skpd (  0.0%)    0.000 s ( 0.002 ms/b)
<sf|pd>:           72 b            0 skpd (  0.0%)    0.000 s ( 0.004 ms/b)
<sf|pf>:           24 b            0 skpd (  0.0%)    0.000 s ( 0.005 ms/b)
<sf|dd>:           36 b            0 skpd (  0.0%)    0.000 s ( 0.009 ms/b)
<sf|df>:           18 b            0 skpd (  0.0%)    0.000 s ( 0.019 ms/b)
<sf|ff>:            6 b            0 skpd (  0.0%)    0.000 s ( 0.027 ms/b)
<pp|pp>:           55 b            0 skpd (  0.0%)    0.000 s ( 0.003 ms/b)
<pp|pd>:          120 b            0 skpd (  0.0%)    0.001 s ( 0.004 ms/b)
<pp|pf>:           40 b            0 skpd (  0.0%)    0.000 s ( 0.005 ms/b)
<pp|dd>:           60 b            0 skpd (  0.0%)    0.001 s ( 0.010 ms/b)
<pp|df>:           30 b            0 skpd (  0.0%)    0.001 s ( 0.018 ms/b)
<pp|ff>:           10 b            0 skpd (  0.0%)    0.000 s ( 0.027 ms/b)
<pd|pd>:           78 b            0 skpd (  0.0%)    0.001 s ( 0.017 ms/b)
<pd|pf>:           48 b            0 skpd (  0.0%)    0.000 s ( 0.010 ms/b)
<pd|dd>:           72 b            0 skpd (  0.0%)    0.002 s ( 0.023 ms/b)
<pd|df>:           36 b            0 skpd (  0.0%)    0.002 s ( 0.043 ms/b)
<pd|ff>:           12 b            0 skpd (  0.0%)    0.001 s ( 0.057 ms/b)
<pf|pf>:           10 b            0 skpd (  0.0%)    0.000 s ( 0.016 ms/b)
<pf|dd>:           24 b            0 skpd (  0.0%)    0.001 s ( 0.023 ms/b)
<pf|df>:           12 b            0 skpd (  0.0%)    0.001 s ( 0.055 ms/b)
<pf|ff>:            4 b            0 skpd (  0.0%)    0.000 s ( 0.077 ms/b)
<dd|dd>:           21 b            0 skpd (  0.0%)    0.002 s ( 0.094 ms/b)
<dd|df>:           18 b            0 skpd (  0.0%)    0.002 s ( 0.102 ms/b)
<dd|ff>:            6 b            0 skpd (  0.0%)    0.001 s ( 0.123 ms/b)
<df|df>:            6 b            0 skpd (  0.0%)    0.001 s ( 0.125 ms/b)
<df|ff>:            3 b            0 skpd (  0.0%)    0.000 s ( 0.165 ms/b)
<ff|ff>:            1 b            0 skpd (  0.0%)    0.000 s ( 0.256 ms/b)
Recanonicalizing the internal orbitals
Recanonicalizing the virtual orbitals
Time needed for Fock operator              ...            0.277 sec
Reference energy                           ...   -103.437133042
Warning: for UHF the TrafoType has to be JK
Warning: for UHF the K(C)-option cannot be MO but must be AOX

-------------------------------
PARTIAL EXCHANGE TRANSFORMATION
-------------------------------

Transformation type                        ... two-operators
Generation of integrals (i,mue|j,nue)      ... ON
Generation of integrals (mue,kappa|nue,tau)... ON
Generation of integrals (i,mue|a,nue)      ... ON
Dimension of the basis                     ...   40
Number of internal alpha-MOs               ...   10 (   0-   9)
Number of internal beta-MOs                ...    7 (   0-   6)
Number of external alpha-MOs               ...   30 (  10-  39)
Number of external beta-MOs                ...   33 (   7-  39)
Pair cutoff                                ... 0.000e+00 Eh
Number of AO pairs in the trafo            ...  820
Total Number of distinct AO pairs          ...  820
Memory devoted for trafo                   ... 2500.0 MB 
Max. Number of MO pairs treated together   ... 204800      
Number Format for Storage                  ... Double (8 Byte)
Integral package used                      ... LIBINT

Starting integral evaluation:
    ... done with AO integral generation
Closing buffer AOK[aa] ( 0.00 GB; CompressionRatio= 0.00)
Closing buffer AOK[bb] ( 0.00 GB; CompressionRatio= 0.00)
Closing buffer AOK[ab] ( 0.00 GB; CompressionRatio= 0.00)
Closing buffer AOK[ba] ( 0.00 GB; CompressionRatio= 0.00)
Collecting buffer AOK 
Closing buffer IAAO1[aa] ( 0.00 GB; CompressionRatio= 0.00)
Closing buffer IAAO1[bb] ( 0.00 GB; CompressionRatio= 0.00)
Closing buffer IAAO1[ab] ( 0.00 GB; CompressionRatio= 0.00)
Closing buffer IAAO1[ba] ( 0.00 GB; CompressionRatio= 0.00)
Closing buffer IAAO2[aa] ( 0.00 GB; CompressionRatio= 0.00)
Closing buffer IAAO2[bb] ( 0.00 GB; CompressionRatio= 0.00)
Closing buffer IAAO2[ab] ( 0.00 GB; CompressionRatio= 0.00)
Closing buffer IAAO2[ba] ( 0.00 GB; CompressionRatio= 0.00)
Collecting buffer IAAO 
Closing buffer PRQS    ( 0.00 GB; CompressionRatio= 0.00)
Collecting buffer PRQS 
Number of alpha/alpha MO pairs in trafo    ...   55
Number of beta /beta  MO pairs in trafo    ...   28
Number of alpha/ beta MO pairs in trafo    ...   70
------------------------
SORTING OF (i,mue|j,nue)
------------------------

SORTING OF ALPHA/ALPHA PAIRS
IBATCH = 1 of  1
Closing buffer KAO[aa] ( 0.00 GB; CompressionRatio= 1.00)
Collecting buffer KAO 
SORTING OF BETA /BETA  PAIRS
IBATCH = 1 of  1
Closing buffer KAO[bb] ( 0.00 GB; CompressionRatio= 1.00)
Collecting buffer KAO 
SORTING OF ALPHA/BETA  PAIRS
IBATCH = 1 of  1
Closing buffer KAO[ab] ( 0.00 GB; CompressionRatio= 0.999063378083)
Collecting buffer KAO[ab] 
------------------------
SORTING OF (i,mue|a,nue)
------------------------

Number of alpha/alpha (i,a) pairs in trafo  ...  300
Number of beta /beta  (i,a) pairs in trafo  ...  231
Number of alpha/ beta (i,a) pairs in trafo  ...  330
Number of beta /alpha (i,a) pairs in trafo  ...  210
Setting up the alpha/alpha list             ... done
Setting up the beta /beta  list             ... done
Setting up the alpha/beta  list             ... done
Setting up the beta /alpha list             ... done
    ... Now sorting (i,mue|a,nue)integrals
    ... Integrals (i,b|a,c) will be made on the fly
SORTING OF ALPHA/ALPHA PAIRS
IBATCH = 1 of  1
Closing buffer IPAQ[aa]  0.00 GB; CompressionRatio= 1.00)
SORTING OF BETA /BETA  PAIRS
IBATCH = 1 of  1
Closing buffer IPAQ[bb]( 0.00 GB; CompressionRatio= 1.00)
SORTING OF ALPHA/BETA  PAIRS (NMatSort_ab=14)
IBATCH = 1 of  1
Closing buffer IPAQ[ab]( 0.00 GB; CompressionRatio= 1.00)
SORTING OF BETA/ALPHA  PAIRS
IBATCH = 1 of  1
Closing buffer IPAQ[ba]( 0.00 GB; CompressionRatio= 1.00)
N(AO-Batches) Done                         ...         0 
N(AO-Batches) Skipped                      ...         0 
N(IJ)-pairs Skipped                        ...         0 
TOTAL TIME for half transformation         ...     2.168 sec
AO-integral generation                     ...     0.000 sec
Half transformation                        ...     0.000 sec
K-integral sorting                         ...     0.713 sec
<ss|**>: 
------------------------------
PARTIAL COULOMB TRANSFORMATION
------------------------------

Transformation type                        ... two-operators
Dimension of the basis                     ...   40
Number of internal alpha-MOs               ...   10 (0-9)
Number of internal beta-MOs                ...    7 (0-6)
Pair cutoff                                ... 0.000e+00 Eh
Number of AO pairs included in the trafo   ...  820
Total Number of distinct AO pairs          ...  820
Memory devoted for trafo                   ... 2500.0 MB 
Max. Number of MO pairs treated together   ... 399609      
Max. Number of MOs treated per batch       ... 9990      
Number Format for Storage                  ... Double (8 Byte)
AO-integral source                         ... DIRECT
Integral package used                      ... LIBINT

Starting integral evaluation:
<sp|**>:         2205 b        0 skpd     0.001 s (  0.001 ms/b)
<sd|**>:         2520 b        0 skpd     0.015 s (  0.006 ms/b)
        1890 b        0 skpd     0.012 s (  0.007 ms/b)
<sf|**>:          630 b        0 skpd     0.009 s (  0.014 ms/b)
<pp|**>:         1050 b        0 skpd     0.017 s (  0.016 ms/b)
<pd|**>:         1260 b        0 skpd     0.030 s (  0.024 ms/b)
<pf|**>:          420 b        0 skpd     0.021 s (  0.051 ms/b)
<dd|**>:          630 b        0 skpd     0.024 s (  0.038 ms/b)
<df|**>:          315 b        0 skpd     0.032 s (  0.102 ms/b)
<ff|**>:          105 b        0 skpd     0.015 s (  0.143 ms/b)
Closing buffer AOJ[aa] ( 0.00 GB; CompressionRatio= 0.97)
Closing buffer AOJ[bb] ( 0.00 GB; CompressionRatio= 0.00)
Collecting buffer AOJ 
    ... done with AO integral generation
Number of Alpha-MO pairs included          ...   55
Number of Beta-MO pairs included           ...   28
    ... Now sorting integrals
SORTING ALPHA/ALPHA PAIRS
IBATCH = 1 of  1
Closing buffer JAO[aa] ( 0.00 GB; CompressionRatio= 1.00)
SORTING BETA/BETA PAIRS
IBATCH = 1 of  1
Closing buffer JAO[bb] ( 0.00 GB; CompressionRatio= 1.00)
Collecting buffer JAO 
TOTAL TIME for half transformation         ...     0.393 sec
AO-integral generation                     ...     0.118 sec
Half transformation                        ...     0.060 sec
J-integral sorting                         ...     0.093 sec

-------------------------- SECOND HALF TRANSFORMATION -------------------------
Formation of (ij|kl),(ij|ka), (ij|ab)      ... ok (     0.151 sec)
Formation of (ik|jl),(ik|ja), (ia|jb)      ... ok (     0.276 sec)


-----------------------
SPIN UNRESTRICTED GUESS
-----------------------

Entering MDCI_UHF_Guess, Tailored=0
Spin-components of the MP2 energy:
EMP2(aa)=     -0.081195792
EMP2(bb)=     -0.035237775
EMP2(ab)=     -0.211653872

Initial guess performed in     0.007 sec
E(0)                                       ...   -103.437133042
E(MP2)                                     ...     -0.328087439
Initial E(tot)                             ...   -103.765220481
<T|T>                                      ...      0.089348009
Number of pairs included                   ... 136

------------------------------------------------
                  UHF COUPLED CLUSTER ITERATIONS
------------------------------------------------

Number of amplitudes to be optimized       ...       101239

Iter       E(tot)           E(Corr)          Delta-E          Residual     Time      <S|S>**1/2
  0   -103.765220481     -0.328087439     -0.000000000      0.024283886    0.10      0.000001071
                           *** Turning on DIIS ***
  1   -103.746082502     -0.308949460      0.019137979      0.008169308    0.08      0.036065931
  2   -103.752153379     -0.315020337     -0.006070877      0.004757048    0.08      0.042824093
  3   -103.753718304     -0.316585262     -0.001564925      0.001852142    0.08      0.050260053
  4   -103.754099721     -0.316966679     -0.000381417      0.000432554    0.08      0.053306412
  5   -103.754143443     -0.317010402     -0.000043723      0.000107345    0.08      0.054082212
  6   -103.754151973     -0.317018931     -0.000008529      0.000037152    0.08      0.054241660
  7   -103.754151985     -0.317018943     -0.000000012      0.000011192    0.08      0.054243749
  8   -103.754151263     -0.317018222      0.000000722      0.000002637    0.08      0.054233216
               --- The Coupled-Cluster iterations have converged ---

----------------------
COUPLED CLUSTER ENERGY
----------------------

E(0)                                       ...   -103.437133042
E(CORR)                                    ...     -0.317018222
E(TOT)                                     ...   -103.754151263
Singles norm <S|S>**1/2                    ...      0.054233216 ( 0.035368304, 0.018864912)  
T1 diagnostic                              ...      0.013153487                              

------------------
LARGEST AMPLITUDES
------------------
   9a-> 13a  -1a-> -1a       0.046613
   9a-> 10a   4b->  9b       0.024078
   9a-> 11a   4b-> 10b       0.024078
   9a-> 10a   5b-> 10b       0.024077
   9a-> 12a   5b->  8b       0.023988
   9a-> 11a   6b->  8b       0.023987
   9a-> 12a   6b->  9b       0.023987
   4b-> 14b  -1b-> -1b       0.022317
   5b-> 15b  -1b-> -1b       0.022317
   6b-> 16b  -1b-> -1b       0.022317
   7a-> 17a   5b-> 15b       0.021302
   6a-> 16a   4b-> 14b       0.021217
   8a-> 18a   6b-> 16b       0.021217
   4a-> 23a   2b-> 12b       0.017897
   6a-> 25a   4a-> 23a       0.017304
   6a-> 23a   4a-> 25a       0.017304

----------------------
UHF TRIPLES CORRECTION (Algorithm 1)
----------------------

Multiplier for the singles contribution    ...      1.000000000

SPIN-CASE Alpha-Alpha-Alpha:
10% done
20% done
30% done
40% done
50% done
60% done
70% done
80% done
90% done


SPIN-CASE Beta-Beta-Beta:
10% done
20% done
30% done
40% done
50% done
60% done
70% done
80% done
90% done


SPIN-CASE Alpha-Alpha-Beta:
10% done
20% done
30% done
40% done
50% done
60% done
70% done
80% done
90% done


SPIN-CASE Beta-Beta-Alpha:
10% done
20% done
30% done
40% done
50% done
60% done
70% done
80% done
90% done


Triples Correction (T)                     ...     -0.007195251
    alpha-alpha-alpha ... -0.000521733 (  7.3%)
    alpha-alpha-beta  ... -0.004315145 ( 60.0%)
    alpha-beta -beta  ... -0.002281228 ( 31.7%)
    beta -beta -beta  ... -0.000077145 (  1.1%)
Scaling of triples based on CCSD energies (Peterson et al. Molecular Physics 113, 1551 (2015))
E(T*) = f*E(T) where f = E(F12-CCSD)/E(CCSD) 
f = CCSD (with F12)/ CCSD (without F12)    ...      1.000000000
Scaled triples correction (T)              ...     -0.007195251

Final correlation energy                   ...     -0.324213473
E(CCSD)                                    ...   -103.754151263
E(CCSD(T))                                 ...   -103.761346514



        !!!!!!!!!!!!!!!!!!!!!!!!!!!!!!!!!!!!!!!!!!!!!!!!!!!!!!!!!!!!!!!!!!!!!!!!!! 
        !  Warning: Densities are linearized densities                           !
        !!!!!!!!!!!!!!!!!!!!!!!!!!!!!!!!!!!!!!!!!!!!!!!!!!!!!!!!!!!!!!!!!!!!!!!!!! 

NORM  =      1.095539197 sqrt=     1.046680083
W(HF) =      0.912792534
------------------------------------------------------------------------------
                           ORCA POPULATION ANALYSIS
------------------------------------------------------------------------------
Input electron density              ... 77_Ir.mdcip
Input spin density                  ... 77_Ir.mdcir
BaseName (.gbw .S,...)              ... 77_Ir

                    ********************************
                    * MULLIKEN POPULATION ANALYSIS *
                    ********************************

------------------------------------------
MULLIKEN ATOMIC CHARGES AND SPIN DENSITIES
------------------------------------------
   0 Ir:   -0.000000    3.000000
Sum of atomic charges       :   -0.0000000
Sum of atomic spin densities:    3.0000000

---------------------------------------------------
MULLIKEN REDUCED ORBITAL CHARGES AND SPIN DENSITIES
---------------------------------------------------
CHARGE
  0 Irs       :     2.986947  s :     2.986947
      pz      :     2.006997  p :     6.020992
      px      :     2.006997
      py      :     2.006997
      dz2     :     0.998892  d :     7.931372
      dxz     :     1.977863
      dyz     :     1.977863
      dx2y2   :     0.998892
      dxy     :     1.977863
      f0      :     0.007618  f :     0.060689
      f+1     :     0.008472
      f-1     :     0.008472
      f+2     :     0.008984
      f-2     :     0.010882
      f+3     :     0.008131
      f-3     :     0.008131

SPIN
  0 Irs       :     0.983089  s :     0.983089
      pz      :     0.006808  p :     0.020424
      px      :     0.006808
      py      :     0.006808
      dz2     :     0.985921  d :     1.984285
      dxz     :     0.004148
      dyz     :     0.004148
      dx2y2   :     0.985921
      dxy     :     0.004148
      f0      :     0.002792  f :     0.012201
      f+1     :     0.001960
      f-1     :     0.001960
      f+2     :     0.001460
      f-2     :    -0.000556
      f+3     :     0.002293
      f-3     :     0.002293


                     *******************************
                     * LOEWDIN POPULATION ANALYSIS *
                     *******************************

-----------------------------------------
LOEWDIN ATOMIC CHARGES AND SPIN DENSITIES
-----------------------------------------
   0 Ir:   -0.000000    3.000000

--------------------------------------------------
LOEWDIN REDUCED ORBITAL CHARGES AND SPIN DENSITIES
--------------------------------------------------
CHARGE
  0 Irs       :     2.986947  s :     2.986947
      pz      :     2.006997  p :     6.020992
      px      :     2.006997
      py      :     2.006997
      dz2     :     0.998892  d :     7.931372
      dxz     :     1.977863
      dyz     :     1.977863
      dx2y2   :     0.998892
      dxy     :     1.977863
      f0      :     0.007618  f :     0.060689
      f+1     :     0.008472
      f-1     :     0.008472
      f+2     :     0.008984
      f-2     :     0.010882
      f+3     :     0.008131
      f-3     :     0.008131

SPIN
  0 Irs       :     0.983089  s :     0.983089
      pz      :     0.006808  p :     0.020424
      px      :     0.006808
      py      :     0.006808
      dz2     :     0.985921  d :     1.984285
      dxz     :     0.004148
      dyz     :     0.004148
      dx2y2   :     0.985921
      dxy     :     0.004148
      f0      :     0.002792  f :     0.012201
      f+1     :     0.001960
      f-1     :     0.001960
      f+2     :     0.001460
      f-2     :    -0.000556
      f+3     :     0.002293
      f-3     :     0.002293


                      *****************************
                      * MAYER POPULATION ANALYSIS *
                      *****************************

  NA   - Mulliken gross atomic population
  ZA   - Total nuclear charge
  QA   - Mulliken gross atomic charge
  VA   - Mayer's total valence
  BVA  - Mayer's bonded valence
  FA   - Mayer's free valence

  ATOM       NA         ZA         QA         VA         BVA        FA
  0 Ir    17.0000    17.0000    -0.0000     3.6013     0.0000     3.6013





------------------------------------------------------------------------------- 
                                     TIMINGS                                   
------------------------------------------------------------------------------- 


Total execution time                   ...        4.657 sec

Fock Matrix Formation                  ...        0.277 sec (  5.9%)
Initial Guess                          ...        0.007 sec (  0.1%)
DIIS Solver                            ...        0.081 sec (  1.7%)
State Vector Update                    ...        0.006 sec (  0.1%)
Sigma-vector construction              ...        0.654 sec ( 14.0%)
  <D|H|D>(0-ext Fock)                  ...        0.001 sec (  0.2% of sigma)
  <D|H|D>(0-ext)                       ...        0.003 sec (  0.5% of sigma)
  <D|H|D>(2-ext)                       ...        0.014 sec (  2.2% of sigma)
  <D|H|D>(4-ext)                       ...        0.213 sec ( 32.6% of sigma)
  <S|H|0>                              ...        0.021 sec (  3.2% of sigma)
  <D|H|S>(1-ext)                       ...        0.009 sec (  1.3% of sigma)
  Fock-dressing                        ...        0.126 sec ( 19.3% of sigma)
  (ik|jl)-dressing                     ...        0.005 sec (  0.8% of sigma)
  (ij|ab),(ia|jb)-dressing             ...        0.199 sec ( 30.4% of sigma)
  Pair energies                        ...        0.001 sec (  0.2% of sigma)
Total Time for computing (T)           ...        0.036 sec (  0.8% of ALL)
  I/O of integral and amplitudes       ...        0.010 sec ( 26.7% of (T))
  External N**7 contributions          ...        0.008 sec ( 21.0% of (T))
  Internal N**7 contributions          ...        0.002 sec (  6.9% of (T))
  N**6 triples energy contributions    ...        0.014 sec ( 40.0% of (T))


-------------------------   --------------------
FINAL SINGLE POINT ENERGY      -103.761346514181
-------------------------   --------------------


                            ***************************************
                            *     ORCA property calculations      *
                            ***************************************

                                    ---------------------
                                    Active property flags
                                    ---------------------
   (+) Dipole Moment


------------------------------------------------------------------------------
                       ORCA ELECTRIC PROPERTIES CALCULATION
------------------------------------------------------------------------------

Dipole Moment Calculation                       ... on
Quadrupole Moment Calculation                   ... off
Polarizability Calculation                      ... off
GBWName                                         ... 77_Ir.gbw
Electron density file                           ... 77_Ir.scfp
The origin for moment calculation is the CENTER OF MASS  = ( 0.000000,  0.000000  0.000000)

-------------
DIPOLE MOMENT
-------------
                                X             Y             Z
Electronic contribution:     -0.00000      -0.00000       0.00000
Nuclear contribution   :      0.00000       0.00000       0.00000
                        -----------------------------------------
Total Dipole Moment    :     -0.00000      -0.00000       0.00000
                        -----------------------------------------
Magnitude (a.u.)       :      0.00000
Magnitude (Debye)      :      0.00000



--------------------
Rotational spectrum 
--------------------
 
Rotational constants in cm-1:     0.000000     0.000000     0.000000 
Rotational constants in MHz :     0.000000     0.000000     0.000000 

 Dipole components along the rotational axes: 
x,y,z [a.u.] :    -0.000000    -0.000000     0.000000 
x,y,z [Debye]:    -0.000000    -0.000000     0.000000 

 

                           *** MDCI DENSITY ***

------------------------------------------------------------------------------
                       ORCA ELECTRIC PROPERTIES CALCULATION
------------------------------------------------------------------------------

Dipole Moment Calculation                       ... on
Quadrupole Moment Calculation                   ... off
Polarizability Calculation                      ... off
GBWName                                         ... 77_Ir.gbw
Electron density file                           ... 77_Ir.mdcip
The origin for moment calculation is the CENTER OF MASS  = ( 0.000000,  0.000000  0.000000)

-------------
DIPOLE MOMENT
-------------
                                X             Y             Z
Electronic contribution:      0.00000       0.00000       0.00000
Nuclear contribution   :      0.00000       0.00000       0.00000
                        -----------------------------------------
Total Dipole Moment    :      0.00000       0.00000       0.00000
                        -----------------------------------------
Magnitude (a.u.)       :      0.00000
Magnitude (Debye)      :      0.00000



--------------------
Rotational spectrum 
--------------------
 
Rotational constants in cm-1:     0.000000     0.000000     0.000000 
Rotational constants in MHz :     0.000000     0.000000     0.000000 

 Dipole components along the rotational axes: 
x,y,z [a.u.] :     0.000000     0.000000     0.000000 
x,y,z [Debye]:     0.000000     0.000000     0.000000 

 

Timings for individual modules:

Sum of individual times         ...       16.488 sec (=   0.275 min)
GTO integral calculation        ...        0.897 sec (=   0.015 min)   5.4 %
SCF iterations                  ...       10.489 sec (=   0.175 min)  63.6 %
MDCI module                     ...        5.102 sec (=   0.085 min)  30.9 %
                             ****ORCA TERMINATED NORMALLY****
TOTAL RUN TIME: 0 days 0 hours 0 minutes 17 seconds 239 msec
