
                                 *****************
                                 * O   R   C   A *
                                 *****************

           --- An Ab Initio, DFT and Semiempirical electronic structure package ---

                  #######################################################
                  #                        -***-                        #
                  #          Department of theory and spectroscopy      #
                  #               Directorship: Frank Neese             #
                  #        Max Planck Institute fuer Kohlenforschung    #
                  #                Kaiser Wilhelm Platz 1               #
                  #                 D-45470 Muelheim/Ruhr               #
                  #                      Germany                        #
                  #                                                     #
                  #                  All rights reserved                #
                  #                        -***-                        #
                  #######################################################


                         Program Version 4.2.0 -  RELEASE  -


 With contributions from (in alphabetic order):
   Daniel Aravena         : Magnetic Suceptibility
   Michael Atanasov       : Ab Initio Ligand Field Theory (pilot matlab implementation)
   Alexander A. Auer      : GIAO ZORA, VPT2
   Ute Becker             : Parallelization
   Giovanni Bistoni       : ED, misc. LED, open-shell LED, HFLED
   Martin Brehm           : Molecular dynamics
   Dmytro Bykov           : SCF Hessian
   Vijay G. Chilkuri      : MRCI spin determinant printing, contributions to CSF-ICE
   Dipayan Datta          : RHF DLPNO-CCSD density
   Achintya Kumar Dutta   : EOM-CC, STEOM-CC
   Dmitry Ganyushin       : Spin-Orbit,Spin-Spin,Magnetic field MRCI
   Miquel Garcia          : C-PCM Hessian, Gaussian charge scheme
   Yang Guo               : DLPNO-NEVPT2, CIM, IAO-localization
   Andreas Hansen         : Spin unrestricted coupled pair/coupled cluster methods
   Benjamin Helmich-Paris : CASSCF linear response (MC-RPA)
   Lee Huntington         : MR-EOM, pCC
   Robert Izsak           : Overlap fitted RIJCOSX, COSX-SCS-MP3, EOM
   Christian Kollmar      : KDIIS, OOCD, Brueckner-CCSD(T), CCSD density
   Simone Kossmann        : Meta GGA functionals, TD-DFT gradient, OOMP2, MP2 Hessian
   Martin Krupicka        : AUTO-CI
   Lucas Lang             : DCDCAS
   Dagmar Lenk            : GEPOL surface, SMD
   Dimitrios Liakos       : Extrapolation schemes; Compound Job, initial MDCI parallelization
   Dimitrios Manganas     : Further ROCIS development; embedding schemes
   Dimitrios Pantazis     : SARC Basis sets
   Taras Petrenko         : DFT Hessian,TD-DFT gradient, ASA, ECA, R-Raman, ABS, FL, XAS/XES, NRVS
   Peter Pinski           : DLPNO-MP2, DLPNO-MP2 Gradient
   Christoph Reimann      : Effective Core Potentials
   Marius Retegan         : Local ZFS, SOC
   Christoph Riplinger    : Optimizer, TS searches, QM/MM, DLPNO-CCSD(T), (RO)-DLPNO pert. Triples
   Tobias Risthaus        : Range-separated hybrids, TD-DFT gradient, RPA, STAB
   Michael Roemelt        : Original ROCIS implementation
   Masaaki Saitow         : Open-shell DLPNO-CCSD energy and density
   Barbara Sandhoefer     : DKH picture change effects
   Avijit Sen             : IP-ROCIS
   Kantharuban Sivalingam : CASSCF convergence, NEVPT2, FIC-MRCI
   Bernardo de Souza      : ESD, SOC TD-DFT
   Georgi Stoychev        : AutoAux, RI-MP2 NMR
   Willem Van den Heuvel  : Paramagnetic NMR
   Boris Wezisla          : Elementary symmetry handling
   Frank Wennmohs         : Technical directorship


 We gratefully acknowledge several colleagues who have allowed us to
 interface, adapt or use parts of their codes:
   Stefan Grimme, W. Hujo, H. Kruse,             : VdW corrections, initial TS optimization,
                  C. Bannwarth                     DFT functionals, gCP, sTDA/sTD-DF
   Ed Valeev, F. Pavosevic, A. Kumar             : LibInt (2-el integral package), F12 methods
   Garnet Chan, S. Sharma, J. Yang, R. Olivares  : DMRG
   Ulf Ekstrom                                   : XCFun DFT Library
   Mihaly Kallay                                 : mrcc  (arbitrary order and MRCC methods)
   Andreas Klamt, Michael Diedenhofen            : otool_cosmo (COSMO solvation model)
   Jiri Pittner, Ondrej Demel                    : Mk-CCSD
   Frank Weinhold                                : gennbo (NPA and NBO analysis)
   Christopher J. Cramer and Donald G. Truhlar   : smd solvation model
   Lars Goerigk                                  : TD-DFT with DH, B97 family of functionals
   V. Asgeirsson, H. Jonsson                     : NEB implementation
   FAccTs GmbH                                   : IRC, NEB, NEB-TS, Multilevel, MM, QM/MM, CI optimization
   S Lehtola, MJT Oliveira, MAL Marques          : LibXC Library


 Your calculation uses the libint2 library for the computation of 2-el integrals
 For citations please refer to: http://libint.valeyev.net

 Your ORCA version has been built with support for libXC version: 4.2.3
 For citations please refer to: https://tddft.org/programs/libxc/

 This ORCA versions uses:
   CBLAS   interface :  Fast vector & matrix operations
   LAPACKE interface :  Fast linear algebra routines
   SCALAPACK package :  Parallel linear algebra routines


Setting NCore(Au) from 46 to 60
----- Orbital basis set information -----
Your calculation utilizes the basis: def2-TZVP
   F. Weigend and R. Ahlrichs, Phys. Chem. Chem. Phys. 7, 3297 (2005).

cite the ECPs for Au [Def2-ECP] as follows:
Ce-Yb(ecp-28): M. Dolg, H. Stoll, H.Preuss, J. Chem. Phys., 1989, 90, 1730-1734.
Y-Cd(ecp-28), Hf-Hg(ecp-46): D. Andrae,U. Haeussermann, M. Dolg, H. Stoll, H. Preuss, Theor. Chim. Acta, 1990, 77, 123-141.
In-Sb(ecp-28), Tl-Bi(ecp-46): B. Metz, H. Stoll, M. Dolg, J. Chem. Phys., 2000, 113, 2563-2569.
Te-Xe(ecp-28), Po-Rn(ecp-46): K. A. Peterson, D. Figgen, E. Goll, H. Stoll, M. Dolg, J. Chem. Phys., 2003, 119, 11113-11123.
Rb(ecp-28), Cs(ecp-46): T. Leininger, A. Nicklass, W. Kuechle, H. Stoll, M. Dolg, A. Bergner, Chem. Phys. Lett., 1996, 255, 274-280.
Sr(ecp-28), Ba(ecp-46): M. Kaupp, P. V. Schleyer, H. Stoll and H. Preuss, J. Chem. Phys., 1991, 94, 1360-1366.
La(ecp-46): M. Dolg, H. Stoll, A. Savin, H. Preuss, Theor. Chim. Acta, 1989, 75, 173-194.
Lu(ecp-28): X. Cao, M. Dolg, J. Chem. Phys., 2001, 115, 7348-7355.

ECP parameters for Au [Def2-ECP] have been obtained from:
TURBOMOLE (7.0.2)

================================================================================
                                        WARNINGS
                       Please study these warnings very carefully!
================================================================================


WARNING: your system is open-shell and RHF/RKS was chosen
  ===> : WILL SWITCH to UHF/UKS


WARNING: MDCI localization with Augmented Hessian Foster-Boys
  ===> : Switching off randomization!

WARNING: Post HF methods need fully converged wavefunctions
  ===> : Setting SCFConvForced true
         You can overwrite this default with %scf ConvForced false 


INFO   : the flag for use of LIBINT has been found!

================================================================================
                                       INPUT FILE
================================================================================
NAME = 79_Au.in
|  1> #
|  2> # 79_Au CCSD(T)/Def2-TZVP
|  3> #
|  4> ! CCSD(T) Def2-TZVP tightscf
|  5> 
|  6> *xyz 0 2
|  7>  Au 0.0 0.0 0.0
|  8> *
|  9> 
| 10> %maxcore 5000 
| 11> 
| 12> %pal
| 13> nprocs 24
| 14> end
| 15> 
| 16> %method
| 17> NewNCore Au 60 end
| 18> end
| 19> 
| 20> 
| 21>                          ****END OF INPUT****
================================================================================

                       ****************************
                       * Single Point Calculation *
                       ****************************

---------------------------------
CARTESIAN COORDINATES (ANGSTROEM)
---------------------------------
  Au     0.000000    0.000000    0.000000

----------------------------
CARTESIAN COORDINATES (A.U.)
----------------------------
  NO LB      ZA    FRAG     MASS         X           Y           Z
   0 Au   19.0000*   0   196.966    0.000000    0.000000    0.000000
* core charge reduced due to ECP

--------------------------------
INTERNAL COORDINATES (ANGSTROEM)
--------------------------------
 Au     0   0   0     0.000000000000     0.00000000     0.00000000

---------------------------
INTERNAL COORDINATES (A.U.)
---------------------------
 Au     0   0   0     0.000000000000     0.00000000     0.00000000

---------------------
BASIS SET INFORMATION
---------------------
There are 1 groups of distinct atoms

 Group   1 Type Au  : 8s7p6d1f contracted to 6s4p3d1f pattern {311111/4111/411/1}

Atom   0Au   basis set group =>   1
-------------------------
ECP PARAMETER INFORMATION
-------------------------

 Group 1, Type Au ECP Def2-ECP (replacing 60 core electrons, lmax=3)

Atom   0Au   ECP group =>   1



           ************************************************************
           *        Program running with 24 parallel MPI-processes    *
           *              working on a common directory               *
           ************************************************************
------------------------------------------------------------------------------
                           ORCA GTO INTEGRAL CALCULATION
------------------------------------------------------------------------------

                         BASIS SET STATISTICS AND STARTUP INFO

 # of primitive gaussian shells          ...   22
 # of primitive gaussian functions       ...   66
 # of contracted shells                  ...   14
 # of contracted basis functions         ...   40
 Highest angular momentum                ...    3
 Maximum contraction depth               ...    4
 Integral package used                   ... LIBINT
 Integral threshhold            Thresh   ...  2.500e-11
 Primitive cut-off              TCut     ...  2.500e-12


------------------------------ INTEGRAL EVALUATION ----------------------------


 * One electron integrals 

   ECP integrals                         ... done
 Pre-screening matrix                    ... done
 Shell pair data                         ... done (   0.000 sec)



           ************************************************************
           *        Program running with 24 parallel MPI-processes    *
           *              working on a common directory               *
           ************************************************************
-------------------------------------------------------------------------------
                                 ORCA SCF
-------------------------------------------------------------------------------

------------
SCF SETTINGS
------------
Hamiltonian:
 Ab initio Hamiltonian  Method          .... Hartree-Fock(GTOs)


General Settings:
 Integral files         IntName         .... 79_Au
 Hartree-Fock type      HFTyp           .... UHF
 Total Charge           Charge          ....    0
 Multiplicity           Mult            ....    2
 Number of Electrons    NEL             ....   19
 Basis Dimension        Dim             ....   40
 Nuclear Repulsion      ENuc            ....      0.0000000000 Eh

Convergence Acceleration:
 DIIS                   CNVDIIS         .... on
   Start iteration      DIISMaxIt       ....    12
   Startup error        DIISStart       ....  0.200000
   # of expansion vecs  DIISMaxEq       ....     5
   Bias factor          DIISBfac        ....   1.050
   Max. coefficient     DIISMaxC        ....  10.000
 Newton-Raphson         CNVNR           .... off
 SOSCF                  CNVSOSCF        .... off
 Level Shifting         CNVShift        .... on
   Level shift para.    LevelShift      ....    0.2500
   Turn off err/grad.   ShiftErr        ....    0.0010
 Zerner damping         CNVZerner       .... off
 Static damping         CNVDamp         .... on
   Fraction old density DampFac         ....    0.7000
   Max. Damping (<1)    DampMax         ....    0.9800
   Min. Damping (>=0)   DampMin         ....    0.0000
   Turn off err/grad.   DampErr         ....    0.1000
 Fernandez-Rico         CNVRico         .... off

SCF Procedure:
 Maximum # iterations   MaxIter         ....   125
 SCF integral mode      SCFMode         .... Direct
   Integral package                     .... LIBINT
 Reset frequency        DirectResetFreq ....    20
 Integral Threshold     Thresh          ....  2.500e-11 Eh
 Primitive CutOff       TCut            ....  2.500e-12 Eh

Convergence Tolerance:
 Convergence Check Mode ConvCheckMode   .... Total+1el-Energy
 Convergence forced     ConvForced      .... 1
 Energy Change          TolE            ....  1.000e-08 Eh
 1-El. energy change                    ....  1.000e-05 Eh
 DIIS Error             TolErr          ....  5.000e-07


Diagonalization of the overlap matrix:
Smallest eigenvalue                        ... 1.668e-02
Time for diagonalization                   ...    0.001 sec
Threshold for overlap eigenvalues          ... 1.000e-08
Number of eigenvalues below threshold      ... 0
Time for construction of square roots      ...    0.010 sec
Total time needed                          ...    0.011 sec

-------------------
DFT GRID GENERATION
-------------------

General Integration Accuracy     IntAcc      ...  4.340
Radial Grid Type                 RadialGrid  ... Gauss-Chebyshev
Angular Grid (max. acc.)         AngularGrid ... Lebedev-110
Angular grid pruning method      GridPruning ... 3 (G Style)
Weight generation scheme         WeightScheme... Becke
Basis function cutoff            BFCut       ...    1.0000e-11
Integration weight cutoff        WCut        ...    1.0000e-14
Grids for H and He will be reduced by one unit

# of grid points (after initial pruning)     ...   3530 (   0.0 sec)
# of grid points (after weights+screening)   ...   3530 (   0.0 sec)
Grid point division into batches done        ...    0.0 sec
Reduced shell lists constructed in    0.0 sec

Total number of grid points                  ...     3530
Total number of batches                      ...       56
Average number of points per batch           ...       63
Average number of grid points per atom       ...     3530
Average number of shells per batch           ...     3.00 (21.43%)
Average number of basis functions per batch  ...     7.50 (18.75%)
Average number of large shells per batch     ...     2.25 (75.00%)
Average number of large basis fcns per batch ...     6.75 (90.00%)
Maximum spatial batch extension              ...  25.56, 38.92, 38.92 au
Average spatial batch extension              ...   1.31,  1.85,  2.08 au

Time for grid setup =    0.069 sec

------------------------------
INITIAL GUESS: MODEL POTENTIAL
------------------------------
Loading Hartree-Fock densities                     ... done
  calling /sw/apps/orca/orca_4_2_0_linux_x86-64_openmpi314/orca 79_Au_atom79.inp > 79_Au_atom79.out in order to generate an atomic fitting density for atom 0 (Au with ECP) on-the-fly... 
    atom 0 (Au), assumed electronic state with S=2: 1s2 2s2 2p6 3s2 3p6 4s2 3d10 4p6 5s2 4d10 5p6 6s1 4f14 5d10           ... done
Calculating cut-offs                               ... done
Setting up the integral package                    ... done
Initializing the effective Hamiltonian             ... done
Starting the Coulomb interaction                   ... done (   0.0 sec)
Reading the grid                                   ... done
Mapping shells                                     ... done
Starting the XC term evaluation                    ... done (   0.0 sec)
Transforming the Hamiltonian                       ... done (   0.0 sec)
Diagonalizing the Hamiltonian                      ... done (   0.0 sec)
Back transforming the eigenvectors                 ... done (   0.0 sec)
Now organizing SCF variables                       ... done
                      ------------------
                      INITIAL GUESS DONE (   1.2 sec)
                      ------------------
--------------
SCF ITERATIONS
--------------
ITER       Energy         Delta-E        Max-DP      RMS-DP      [F,P]     Damp
               ***  Starting incremental Fock matrix formation  ***
  0   -134.6804539284   0.000000000000 0.16512401  0.00481766  0.5821560 0.7000
  1   -134.7150636424  -0.034609714084 0.12072501  0.00354818  0.4096892 0.7000
  2   -134.7370792330  -0.022015590573 0.08335037  0.00247151  0.2873561 0.7000
  3   -134.7521784836  -0.015099250591 0.05840691  0.00175493  0.2025505 0.7000
                               ***Turning on DIIS***
  4   -134.7629122277  -0.010733744101 0.04179972  0.00128015  0.1434326 0.7000
  5   -134.8078693141  -0.044957086423 0.03210864  0.00103524  0.1019276 0.7000
  6   -134.7925323951   0.015336919053 0.08278018  0.00283050  0.0721563 0.0000
  7   -134.7897763212   0.002756073877 0.01715694  0.00045192  0.0019658 0.0000
  8   -134.7883183996   0.001457921615 0.00953461  0.00024063  0.0011689 0.0000
  9   -134.7914485350  -0.003130135389 0.01313994  0.00033414  0.0007499 0.0000
 10   -134.7902926842   0.001155850737 0.00333361  0.00008518  0.0001580 0.0000
 11   -134.7898466739   0.000446010301 0.00005051  0.00000151  0.0000102 0.0000
 12   -134.7898157445   0.000030929458 0.00002773  0.00000076  0.0000017 0.0000
                            ***DIIS convergence achieved***

               *****************************************************
               *                     SUCCESS                       *
               *           SCF CONVERGED AFTER  13 CYCLES          *
               *****************************************************


----------------
TOTAL SCF ENERGY
----------------

Total Energy       :         -134.78981751 Eh           -3667.81740 eV

Components:
Nuclear Repulsion  :            0.00000000 Eh               0.00000 eV
Electronic Energy  :         -134.78981751 Eh           -3667.81740 eV
One Electron Energy:         -239.01983543 Eh           -6504.06038 eV
Two Electron Energy:          104.23001792 Eh            2836.24298 eV

Virial components:
Potential Energy   :         -180.86485338 Eh           -4921.58287 eV
Kinetic Energy     :           46.07503587 Eh            1253.76547 eV
Virial Ratio       :            3.92544140


---------------
SCF CONVERGENCE
---------------

  Last Energy change         ...   -1.7639e-06  Tolerance :   1.0000e-08
  Last MAX-Density change    ...    2.7010e-06  Tolerance :   1.0000e-07
  Last RMS-Density change    ...    1.8570e-07  Tolerance :   5.0000e-09
  Last DIIS Error            ...    3.8889e-07  Tolerance :   5.0000e-07

             **** THE GBW FILE WAS UPDATED (79_Au.gbw) ****
             **** DENSITY FILE WAS UPDATED (79_Au.scfp) ****
             **** ENERGY FILE WAS UPDATED (79_Au.en.tmp) ****
----------------------
UHF SPIN CONTAMINATION
----------------------

Expectation value of <S**2>     :     0.752754
Ideal value S*(S+1) for S=0.5   :     0.750000
Deviation                       :     0.002754

             **** THE GBW FILE WAS UPDATED (79_Au.gbw) ****
             **** DENSITY FILE WAS UPDATED (79_Au.scfp) ****
----------------
ORBITAL ENERGIES
----------------
                 SPIN UP ORBITALS
  NO   OCC          E(Eh)            E(eV) 
   0   1.0000      -4.688687      -127.5857 
   1   1.0000      -2.724242       -74.1304 
   2   1.0000      -2.724242       -74.1304 
   3   1.0000      -2.724242       -74.1304 
   4   1.0000      -0.457685       -12.4543 
   5   1.0000      -0.457685       -12.4543 
   6   1.0000      -0.457685       -12.4543 
   7   1.0000      -0.457685       -12.4543 
   8   1.0000      -0.457685       -12.4543 
   9   1.0000      -0.291992        -7.9455 
  10   0.0000       0.054783         1.4907 
  11   0.0000       0.054783         1.4907 
  12   0.0000       0.054783         1.4907 
  13   0.0000       0.239147         6.5075 
  14   0.0000       0.412956        11.2371 
  15   0.0000       0.412956        11.2371 
  16   0.0000       0.412956        11.2371 
  17   0.0000       0.412956        11.2371 
  18   0.0000       0.412956        11.2371 
  19   0.0000       0.790391        21.5076 
  20   0.0000       0.790391        21.5076 
  21   0.0000       0.790391        21.5076 
  22   0.0000       1.764948        48.0267 
  23   0.0000       1.764948        48.0267 
  24   0.0000       1.764948        48.0267 
  25   0.0000       1.764948        48.0267 
  26   0.0000       1.764948        48.0267 
  27   0.0000       1.844058        50.1794 
  28   0.0000       1.844058        50.1794 
  29   0.0000       1.844058        50.1794 
  30   0.0000       1.844058        50.1794 
  31   0.0000       1.844058        50.1794 
  32   0.0000       1.844058        50.1794 
  33   0.0000       1.844058        50.1794 
  34   0.0000       2.393025        65.1175 
  35   0.0000      24.126627       656.5189 
  36   0.0000      24.126627       656.5189 
  37   0.0000      24.126627       656.5189 
  38   0.0000      44.324937      1206.1429 
  39   0.0000     205.316726      5586.9522 

                 SPIN DOWN ORBITALS
  NO   OCC          E(Eh)            E(eV) 
   0   1.0000      -4.687343      -127.5491 
   1   1.0000      -2.728293       -74.2406 
   2   1.0000      -2.728293       -74.2406 
   3   1.0000      -2.728293       -74.2406 
   4   1.0000      -0.449149       -12.2220 
   5   1.0000      -0.449149       -12.2220 
   6   1.0000      -0.449149       -12.2220 
   7   1.0000      -0.449149       -12.2220 
   8   1.0000      -0.449149       -12.2220 
   9   0.0000      -0.004692        -0.1277 
  10   0.0000       0.089476         2.4348 
  11   0.0000       0.089476         2.4348 
  12   0.0000       0.089476         2.4348 
  13   0.0000       0.282653         7.6914 
  14   0.0000       0.428458        11.6589 
  15   0.0000       0.428458        11.6589 
  16   0.0000       0.428458        11.6589 
  17   0.0000       0.428458        11.6589 
  18   0.0000       0.428458        11.6589 
  19   0.0000       0.837868        22.7996 
  20   0.0000       0.837868        22.7996 
  21   0.0000       0.837868        22.7996 
  22   0.0000       1.778007        48.3820 
  23   0.0000       1.778007        48.3820 
  24   0.0000       1.778007        48.3820 
  25   0.0000       1.778007        48.3820 
  26   0.0000       1.778007        48.3820 
  27   0.0000       1.854457        50.4623 
  28   0.0000       1.854457        50.4623 
  29   0.0000       1.854457        50.4623 
  30   0.0000       1.854457        50.4623 
  31   0.0000       1.854457        50.4623 
  32   0.0000       1.854457        50.4623 
  33   0.0000       1.854457        50.4623 
  34   0.0000       2.414693        65.7071 
  35   0.0000      24.133326       656.7012 
  36   0.0000      24.133326       656.7012 
  37   0.0000      24.133326       656.7012 
  38   0.0000      44.327403      1206.2099 
  39   0.0000     205.316855      5586.9557 

                    ********************************
                    * MULLIKEN POPULATION ANALYSIS *
                    ********************************

--------------------------------------------
MULLIKEN ATOMIC CHARGES AND SPIN POPULATIONS
--------------------------------------------
   0 Au:   -0.000000    1.000000
Sum of atomic charges         :   -0.0000000
Sum of atomic spin populations:    1.0000000

-----------------------------------------------------
MULLIKEN REDUCED ORBITAL CHARGES AND SPIN POPULATIONS
-----------------------------------------------------
CHARGE
  0 Aus       :     3.000000  s :     3.000000
      pz      :     2.000000  p :     6.000000
      px      :     2.000000
      py      :     2.000000
      dz2     :     2.000000  d :    10.000000
      dxz     :     2.000000
      dyz     :     2.000000
      dx2y2   :     2.000000
      dxy     :     2.000000
      f0      :     0.000000  f :     0.000000
      f+1     :     0.000000
      f-1     :     0.000000
      f+2     :     0.000000
      f-2     :     0.000000
      f+3     :     0.000000
      f-3     :     0.000000

SPIN
  0 Aus       :     1.000000  s :     1.000000
      pz      :     0.000000  p :     0.000000
      px      :     0.000000
      py      :    -0.000000
      dz2     :     0.000000  d :     0.000000
      dxz     :     0.000000
      dyz     :    -0.000000
      dx2y2   :     0.000000
      dxy     :     0.000000
      f0      :    -0.000000  f :    -0.000000
      f+1     :    -0.000000
      f-1     :    -0.000000
      f+2     :    -0.000000
      f-2     :    -0.000000
      f+3     :    -0.000000
      f-3     :    -0.000000


                     *******************************
                     * LOEWDIN POPULATION ANALYSIS *
                     *******************************

-------------------------------------------
LOEWDIN ATOMIC CHARGES AND SPIN POPULATIONS
-------------------------------------------
   0 Au:   -0.000000    1.000000

----------------------------------------------------
LOEWDIN REDUCED ORBITAL CHARGES AND SPIN POPULATIONS
----------------------------------------------------
CHARGE
  0 Aus       :     3.000000  s :     3.000000
      pz      :     2.000000  p :     6.000000
      px      :     2.000000
      py      :     2.000000
      dz2     :     2.000000  d :    10.000000
      dxz     :     2.000000
      dyz     :     2.000000
      dx2y2   :     2.000000
      dxy     :     2.000000
      f0      :     0.000000  f :     0.000000
      f+1     :     0.000000
      f-1     :     0.000000
      f+2     :     0.000000
      f-2     :     0.000000
      f+3     :     0.000000
      f-3     :     0.000000

SPIN
  0 Aus       :     1.000000  s :     1.000000
      pz      :     0.000000  p :     0.000000
      px      :     0.000000
      py      :    -0.000000
      dz2     :     0.000000  d :     0.000000
      dxz     :     0.000000
      dyz     :    -0.000000
      dx2y2   :     0.000000
      dxy     :     0.000000
      f0      :    -0.000000  f :    -0.000000
      f+1     :    -0.000000
      f-1     :    -0.000000
      f+2     :    -0.000000
      f-2     :    -0.000000
      f+3     :    -0.000000
      f-3     :    -0.000000


                      *****************************
                      * MAYER POPULATION ANALYSIS *
                      *****************************

  NA   - Mulliken gross atomic population
  ZA   - Total nuclear charge
  QA   - Mulliken gross atomic charge
  VA   - Mayer's total valence
  BVA  - Mayer's bonded valence
  FA   - Mayer's free valence

  ATOM       NA         ZA         QA         VA         BVA        FA
  0 Au    19.0000    19.0000    -0.0000     1.0055     0.0000     1.0055

  Mayer bond orders larger than 0.100000


-------
TIMINGS
-------

Total SCF time: 0 days 0 hours 0 min 4 sec 

Total time                  ....       4.188 sec
Sum of individual times     ....       3.679 sec  ( 87.9%)

Fock matrix formation       ....       2.049 sec  ( 48.9%)
Diagonalization             ....       0.072 sec  (  1.7%)
Density matrix formation    ....       0.004 sec  (  0.1%)
Population analysis         ....       0.073 sec  (  1.7%)
Initial guess               ....       1.179 sec  ( 28.1%)
Orbital Transformation      ....       0.000 sec  (  0.0%)
Orbital Orthonormalization  ....       0.000 sec  (  0.0%)
DIIS solution               ....       0.234 sec  (  5.6%)


           ************************************************************
           *        Program running with 24 parallel MPI-processes    *
           *              working on a common directory               *
           ************************************************************


------------------------------------------------------------------------------- 
                              ORCA-MATRIX DRIVEN CI                            
------------------------------------------------------------------------------- 

--------------------------------
AUTOMATIC CHOICE OF INCORE LEVEL
--------------------------------

Memory available                           ...   2500.00 MB
Memory needed for S+T                      ...      1.13 MB
Memory needed for J+K                      ...      2.29 MB
Memory needed for DIIS                     ...     15.86 MB
Memory needed for 3-ext                    ...      2.06 MB
Memory needed for 4-ext                    ...      3.19 MB
Memory needed for triples                  ...      1.03 MB
 -> Final InCoreLevel    ... 5
 -> check shows that triples correction can be computed


Wavefunction type
-----------------
Correlation treatment                      ...      CCSD     
Single excitations                         ... ON
Orbital optimization                       ... OFF
Calculation of Z vector                    ... OFF
Calculation of Brueckner orbitals          ... OFF
Perturbative triple excitations            ... ON
Calculation of F12 correction              ... OFF
Frozen core treatment                      ... chemical core (0 el)
Reference Wavefunction                     ... UHF
  Alpha-MOs occ    :     0 ...    9 ( 10 MO's/ 10 electrons)
  Beta-MOs occ     :     0 ...    8 (  9 MO's/  9 electrons)
  Alpha-MOs virt   :    10 ...   39 ( 30 MO's              )
  Beta-MOs virt    :     9 ...   39 ( 31 MO's              )
Number of AO's                             ...     40
Number of electrons                        ...     19
Number of correlated electrons             ...     19

Algorithmic settings
--------------------
Integral transformation                    ... AO direct full transformation
K(C) Formation                             ... FULL-MO TRAFO
Maximum number of iterations               ...        50
Convergence tolerance (max. residuum)      ... 1.000e-05
Level shift for amplitude update           ... 2.000e-01
Maximum number of DIIS vectors             ...         7
DIIS turned on at iteration                ...         0
Damping before turning on DIIS             ...     0.500
Damping after turning on DIIS              ...     0.000
Pair specific amplitude update             ... OFF
Natural orbital iterations                 ... OFF
Perturbative natural orbital generation    ... OFF
Printlevel                                 ... 2

Memory handling:
----------------
Maximum memory for working arrays          ...   2500 MB
Data storage in matrix containers          ... UNCOMPRESSED
Data type for integral storage             ... DOUBLE
In-Core Storage of quantities:
   Amplitudes+Sigma Vector      ... YES
   J+K operators                ... YES
   DIIS vectors                 ... YES
   3-external integrals         ... YES
   4-external integrals         ... YES


Initializing the integral package          ... done
Warning: reference  - re-canonicalizations have been set to INT 1 VIRT 1

--------------------------
UNRESTRICTED FOCK OPERATOR
--------------------------

<ss|ss>:          231 b            0 skpd (  0.0%)    0.000 s ( 0.000 ms/b)
<ss|sp>:          504 b            0 skpd (  0.0%)    0.000 s ( 0.000 ms/b)
<ss|sd>:          378 b            0 skpd (  0.0%)    0.000 s ( 0.000 ms/b)
<ss|sf>:          126 b            0 skpd (  0.0%)    0.000 s ( 0.000 ms/b)
<ss|pp>:          210 b            0 skpd (  0.0%)    0.000 s ( 0.000 ms/b)
<ss|pd>:          252 b            0 skpd (  0.0%)    0.000 s ( 0.001 ms/b)
<ss|pf>:           84 b            0 skpd (  0.0%)    0.000 s ( 0.001 ms/b)
<ss|dd>:          126 b            0 skpd (  0.0%)    0.000 s ( 0.001 ms/b)
<ss|df>:           63 b            0 skpd (  0.0%)    0.000 s ( 0.001 ms/b)
<ss|ff>:           21 b            0 skpd (  0.0%)    0.000 s ( 0.003 ms/b)
<sp|sp>:          300 b            0 skpd (  0.0%)    0.000 s ( 0.000 ms/b)
<sp|sd>:          432 b            0 skpd (  0.0%)    0.000 s ( 0.000 ms/b)
<sp|sf>:          144 b            0 skpd (  0.0%)    0.000 s ( 0.000 ms/b)
<sp|pp>:          240 b            0 skpd (  0.0%)    0.000 s ( 0.001 ms/b)
<sp|pd>:          288 b            0 skpd (  0.0%)    0.000 s ( 0.001 ms/b)
<sp|pf>:           96 b            0 skpd (  0.0%)    0.000 s ( 0.002 ms/b)
<sp|dd>:          144 b            0 skpd (  0.0%)    0.000 s ( 0.003 ms/b)
<sp|df>: done
<sp|ff>: done
<sd|sd>:          171 b            0 skpd (  0.0%)    0.000 s ( 0.001 ms/b)
<sd|sf>:          108 b            0 skpd (  0.0%)    0.000 s ( 0.001 ms/b)
<sd|pp>:          180 b            0 skpd (  0.0%)    0.000 s ( 0.001 ms/b)
<sd|pd>:          216 b            0 skpd (  0.0%)    0.001 s ( 0.003 ms/b)
<sd|pf>: done
<sd|dd>:          108 b            0 skpd (  0.0%)    0.001 s ( 0.007 ms/b)
<sd|df>:           54 b            0 skpd (  0.0%)    0.000 s ( 0.009 ms/b)
<sd|ff>: done
<sf|sf>:           21 b            0 skpd (  0.0%)    0.000 s ( 0.003 ms/b)
<sf|pp>:           60 b            0 skpd (  0.0%)    0.000 s ( 0.002 ms/b)
<sf|pd>: done
<sf|pf>: done
<sf|dd>:           36 b            0 skpd (  0.0%)    0.000 s ( 0.009 ms/b)
<sf|df>: done
<sf|ff>: done
<pp|pp>:           55 b            0 skpd (  0.0%)    0.000 s ( 0.003 ms/b)
<pp|pd>:          120 b            0 skpd (  0.0%)    0.000 s ( 0.004 ms/b)
<pp|pf>:           40 b            0 skpd (  0.0%)    0.000 s ( 0.005 ms/b)
<pp|dd>:           60 b            0 skpd (  0.0%)    0.001 s ( 0.010 ms/b)
<pp|df>:           30 b            0 skpd (  0.0%)    0.000 s ( 0.012 ms/b)
<pp|ff>:           10 b            0 skpd (  0.0%)    0.000 s ( 0.027 ms/b)
<pd|pd>:           78 b            0 skpd (  0.0%)    0.001 s ( 0.015 ms/b)
<pd|pf>:           48 b            0 skpd (  0.0%)    0.000 s ( 0.010 ms/b)
<pd|dd>:           72 b            0 skpd (  0.0%)    0.002 s ( 0.023 ms/b)
<pd|df>:           36 b            0 skpd (  0.0%)    0.001 s ( 0.028 ms/b)
<pd|ff>: done
<pf|pf>:           10 b            0 skpd (  0.0%)    0.000 s ( 0.015 ms/b)
<pf|dd>:           24 b            0 skpd (  0.0%)    0.001 s ( 0.023 ms/b)
<pf|df>: done
<pf|ff>: done
<dd|dd>:           21 b            0 skpd (  0.0%)    0.002 s ( 0.095 ms/b)
<dd|df>:           18 b            0 skpd (  0.0%)    0.001 s ( 0.066 ms/b)
<dd|ff>:            6 b            0 skpd (  0.0%)    0.001 s ( 0.125 ms/b)
<df|df>:            6 b            0 skpd (  0.0%)    0.001 s ( 0.104 ms/b)
<df|ff>: done
<ff|ff>: done
Recanonicalizing the internal orbitals
Recanonicalizing the virtual orbitals
Time needed for Fock operator              ...            0.066 sec
Reference energy                           ...   -134.789816323
Warning: for UHF the TrafoType has to be JK
Warning: for UHF the K(C)-option cannot be MO but must be AOX

-------------------------------
PARTIAL EXCHANGE TRANSFORMATION
-------------------------------

Transformation type                        ... two-operators
Generation of integrals (i,mue|j,nue)      ... ON
Generation of integrals (mue,kappa|nue,tau)... ON
Generation of integrals (i,mue|a,nue)      ... ON
Dimension of the basis                     ...   40
Number of internal alpha-MOs               ...   10 (   0-   9)
Number of internal beta-MOs                ...    9 (   0-   8)
Number of external alpha-MOs               ...   30 (  10-  39)
Number of external beta-MOs                ...   31 (   9-  39)
Pair cutoff                                ... 0.000e+00 Eh
Number of AO pairs in the trafo            ...  820
Total Number of distinct AO pairs          ...  820
Memory devoted for trafo                   ... 2500.0 MB 
Max. Number of MO pairs treated together   ... 204800      
Number Format for Storage                  ... Double (8 Byte)
Integral package used                      ... LIBINT

Starting integral evaluation:
    ... done with AO integral generation
Closing buffer AOK[aa] ( 0.00 GB; CompressionRatio= 0.00)
Closing buffer AOK[bb] ( 0.00 GB; CompressionRatio= 0.00)
Closing buffer AOK[ab] ( 0.00 GB; CompressionRatio= 0.00)
Closing buffer AOK[ba] ( 0.00 GB; CompressionRatio= 0.00)
Collecting buffer AOK 
Closing buffer IAAO1[aa] ( 0.00 GB; CompressionRatio= 0.00)
Closing buffer IAAO1[bb] ( 0.00 GB; CompressionRatio= 0.00)
Closing buffer IAAO1[ab] ( 0.00 GB; CompressionRatio= 0.00)
Closing buffer IAAO1[ba] ( 0.00 GB; CompressionRatio= 0.00)
Closing buffer IAAO2[aa] ( 0.00 GB; CompressionRatio= 0.00)
Closing buffer IAAO2[bb] ( 0.00 GB; CompressionRatio= 0.00)
Closing buffer IAAO2[ab] ( 0.00 GB; CompressionRatio= 0.00)
Closing buffer IAAO2[ba] ( 0.00 GB; CompressionRatio= 0.00)
Collecting buffer IAAO 
Closing buffer PRQS    ( 0.00 GB; CompressionRatio= 0.00)
Collecting buffer PRQS 
Number of alpha/alpha MO pairs in trafo    ...   55
Number of beta /beta  MO pairs in trafo    ...   45
Number of alpha/ beta MO pairs in trafo    ...   90
------------------------
SORTING OF (i,mue|j,nue)
------------------------

SORTING OF ALPHA/ALPHA PAIRS
IBATCH = 1 of  1
Closing buffer KAO[aa] ( 0.00 GB; CompressionRatio= 1.00)
Collecting buffer KAO 
SORTING OF BETA /BETA  PAIRS
IBATCH = 1 of  1
Closing buffer KAO[bb] ( 0.00 GB; CompressionRatio= 1.00)
Collecting buffer KAO 
SORTING OF ALPHA/BETA  PAIRS
IBATCH = 1 of  1
Closing buffer KAO[ab] ( 0.00 GB; CompressionRatio= 0.999063378083)
Collecting buffer KAO[ab] 
------------------------
SORTING OF (i,mue|a,nue)
------------------------

Number of alpha/alpha (i,a) pairs in trafo  ...  300
Number of beta /beta  (i,a) pairs in trafo  ...  279
Number of alpha/ beta (i,a) pairs in trafo  ...  310
Number of beta /alpha (i,a) pairs in trafo  ...  270
Setting up the alpha/alpha list             ... done
Setting up the beta /beta  list             ... done
Setting up the alpha/beta  list             ... done
Setting up the beta /alpha list             ... done
    ... Now sorting (i,mue|a,nue)integrals
    ... Integrals (i,b|a,c) will be made on the fly
SORTING OF ALPHA/ALPHA PAIRS
IBATCH = 1 of  1
Closing buffer IPAQ[aa]  0.00 GB; CompressionRatio= 1.00)
SORTING OF BETA /BETA  PAIRS
IBATCH = 1 of  1
Closing buffer IPAQ[bb]( 0.00 GB; CompressionRatio= 1.00)
SORTING OF ALPHA/BETA  PAIRS (NMatSort_ab=13)
IBATCH = 1 of  1
Closing buffer IPAQ[ab]( 0.00 GB; CompressionRatio= 1.00)
SORTING OF BETA/ALPHA  PAIRS
IBATCH = 1 of  1
Closing buffer IPAQ[ba]( 0.00 GB; CompressionRatio= 1.00)
N(AO-Batches) Done                         ...         0 
N(AO-Batches) Skipped                      ...         0 
N(IJ)-pairs Skipped                        ...         0 
TOTAL TIME for half transformation         ...     2.138 sec
AO-integral generation                     ...     0.000 sec
Half transformation                        ...     0.000 sec
K-integral sorting                         ...     0.793 sec
<ss|**>: 
------------------------------
PARTIAL COULOMB TRANSFORMATION
------------------------------

Transformation type                        ... two-operators
Dimension of the basis                     ...   40
Number of internal alpha-MOs               ...   10 (0-9)
Number of internal beta-MOs                ...    9 (0-8)
Pair cutoff                                ... 0.000e+00 Eh
Number of AO pairs included in the trafo   ...  820
Total Number of distinct AO pairs          ...  820
Memory devoted for trafo                   ... 2500.0 MB 
Max. Number of MO pairs treated together   ... 399609      
Max. Number of MOs treated per batch       ... 9990      
Number Format for Storage                  ... Double (8 Byte)
AO-integral source                         ... DIRECT
Integral package used                      ... LIBINT

Starting integral evaluation:
        2205 b        0 skpd     0.001 s (  0.000 ms/b)
<sp|**>:         2520 b        0 skpd     0.013 s (  0.005 ms/b)
<sd|**>:         1890 b        0 skpd     0.013 s (  0.007 ms/b)
<sf|**>:          630 b        0 skpd     0.008 s (  0.013 ms/b)
<pp|**>:         1050 b        0 skpd     0.013 s (  0.013 ms/b)
<pd|**>:         1260 b        0 skpd     0.030 s (  0.024 ms/b)
<pf|**>:          420 b        0 skpd     0.022 s (  0.051 ms/b)
<dd|**>:          630 b        0 skpd     0.030 s (  0.048 ms/b)
<df|**>:          315 b        0 skpd     0.032 s (  0.103 ms/b)
<ff|**>:          105 b        0 skpd     0.019 s (  0.176 ms/b)
Closing buffer AOJ[aa] ( 0.00 GB; CompressionRatio= 0.97)
Closing buffer AOJ[bb] ( 0.00 GB; CompressionRatio= 0.00)
Collecting buffer AOJ 
    ... done with AO integral generation
Number of Alpha-MO pairs included          ...   55
Number of Beta-MO pairs included           ...   45
    ... Now sorting integrals
SORTING ALPHA/ALPHA PAIRS
IBATCH = 1 of  1
Closing buffer JAO[aa] ( 0.00 GB; CompressionRatio= 1.00)
SORTING BETA/BETA PAIRS
IBATCH = 1 of  1
Closing buffer JAO[bb] ( 0.00 GB; CompressionRatio= 1.00)
Collecting buffer JAO 
TOTAL TIME for half transformation         ...     0.428 sec
AO-integral generation                     ...     0.111 sec
Half transformation                        ...     0.072 sec
J-integral sorting                         ...     0.108 sec

-------------------------- SECOND HALF TRANSFORMATION -------------------------
Formation of (ij|kl),(ij|ka), (ij|ab)      ... ok (     0.175 sec)
Formation of (ik|jl),(ik|ja), (ia|jb)      ... ok (     0.268 sec)


-----------------------
SPIN UNRESTRICTED GUESS
-----------------------

Entering MDCI_UHF_Guess, Tailored=0
Spin-components of the MP2 energy:
EMP2(aa)=     -0.079347336
EMP2(bb)=     -0.059925682
EMP2(ab)=     -0.254499068

Initial guess performed in     0.007 sec
E(0)                                       ...   -134.789816323
E(MP2)                                     ...     -0.393772086
Initial E(tot)                             ...   -135.183588409
<T|T>                                      ...      0.096409779
Number of pairs included                   ... 171

------------------------------------------------
                  UHF COUPLED CLUSTER ITERATIONS
------------------------------------------------

Number of amplitudes to be optimized       ...       121519

Iter       E(tot)           E(Corr)          Delta-E          Residual     Time      <S|S>**1/2
  0   -135.183588409     -0.393772086     -0.000000000      0.024530684    0.11      0.000002219
                           *** Turning on DIIS ***
  1   -135.145571484     -0.355755162      0.038016924      0.009654275    0.08      0.041046418
  2   -135.153947560     -0.364131238     -0.008376076      0.005998626    0.09      0.045919468
  3   -135.155483447     -0.365667125     -0.001535887      0.002543945    0.09      0.054084208
  4   -135.155876548     -0.366060225     -0.000393100      0.000875876    0.10      0.057263825
  5   -135.155946466     -0.366130143     -0.000069918      0.000194078    0.08      0.058590291
  6   -135.155958215     -0.366141892     -0.000011749      0.000027191    0.09      0.058873714
  7   -135.155959811     -0.366143489     -0.000001597      0.000004758    0.09      0.058909649
               --- The Coupled-Cluster iterations have converged ---

----------------------
COUPLED CLUSTER ENERGY
----------------------

E(0)                                       ...   -134.789816323
E(CORR)                                    ...     -0.366143489
E(TOT)                                     ...   -135.155959811
Singles norm <S|S>**1/2                    ...      0.058909649 ( 0.035854563, 0.023055086)  
T1 diagnostic                              ...      0.013514800                              

------------------
LARGEST AMPLITUDES
------------------
   9a-> 13a  -1a-> -1a       0.057581
   8a-> 31a   6a-> 30a       0.018988
   8a-> 30a   6a-> 31a       0.018988
   7a-> 29a   5a-> 33a       0.016692
   7a-> 33a   5a-> 29a       0.016692
   6a-> 30a   7b-> 28b       0.016318
   7b-> 14b  -1b-> -1b       0.016039
   8b-> 18b  -1b-> -1b       0.014871
   7a-> 32a   8b-> 33b       0.014443
   6a-> 20a   7b-> 21b       0.014214
   9a-> 12a   8b-> 10b       0.014110
   7b-> 28b   6b-> 30b       0.013820
   7b-> 30b   6b-> 28b       0.013820
   4a-> 27a   5b-> 31b       0.013585
   6a-> 27a   4a-> 31a       0.013576
   6a-> 31a   4a-> 27a       0.013576

----------------------
UHF TRIPLES CORRECTION (Algorithm 1)
----------------------

Multiplier for the singles contribution    ...      1.000000000

SPIN-CASE Alpha-Alpha-Alpha:
10% done
20% done
30% done
40% done
50% done
60% done
70% done
80% done
90% done


SPIN-CASE Beta-Beta-Beta:
10% done
20% done
30% done
40% done
50% done
60% done
70% done
80% done
90% done


SPIN-CASE Alpha-Alpha-Beta:
10% done
20% done
30% done
40% done
50% done
60% done
70% done
80% done
90% done


SPIN-CASE Beta-Beta-Alpha:
10% done
20% done
30% done
40% done
50% done
60% done
70% done
80% done
90% done


Triples Correction (T)                     ...     -0.007605333
    alpha-alpha-alpha ... -0.000397904 (  5.2%)
    alpha-alpha-beta  ... -0.004029412 ( 53.0%)
    alpha-beta -beta  ... -0.003013581 ( 39.6%)
    beta -beta -beta  ... -0.000164435 (  2.2%)
Scaling of triples based on CCSD energies (Peterson et al. Molecular Physics 113, 1551 (2015))
E(T*) = f*E(T) where f = E(F12-CCSD)/E(CCSD) 
f = CCSD (with F12)/ CCSD (without F12)    ...      1.000000000
Scaled triples correction (T)              ...     -0.007605333

Final correlation energy                   ...     -0.373748821
E(CCSD)                                    ...   -135.155959811
E(CCSD(T))                                 ...   -135.163565144



        !!!!!!!!!!!!!!!!!!!!!!!!!!!!!!!!!!!!!!!!!!!!!!!!!!!!!!!!!!!!!!!!!!!!!!!!!! 
        !  Warning: Densities are linearized densities                           !
        !!!!!!!!!!!!!!!!!!!!!!!!!!!!!!!!!!!!!!!!!!!!!!!!!!!!!!!!!!!!!!!!!!!!!!!!!! 

NORM  =      1.094927302 sqrt=     1.046387740
W(HF) =      0.913302644
------------------------------------------------------------------------------
                           ORCA POPULATION ANALYSIS
------------------------------------------------------------------------------
Input electron density              ... 79_Au.mdcip
Input spin density                  ... 79_Au.mdcir
BaseName (.gbw .S,...)              ... 79_Au

                    ********************************
                    * MULLIKEN POPULATION ANALYSIS *
                    ********************************

------------------------------------------
MULLIKEN ATOMIC CHARGES AND SPIN DENSITIES
------------------------------------------
   0 Au:   -0.000000    1.000000
Sum of atomic charges       :   -0.0000000
Sum of atomic spin densities:    1.0000000

---------------------------------------------------
MULLIKEN REDUCED ORBITAL CHARGES AND SPIN DENSITIES
---------------------------------------------------
CHARGE
  0 Aus       :     2.988825  s :     2.988825
      pz      :     2.010022  p :     6.030067
      px      :     2.010022
      py      :     2.010022
      dz2     :     1.982202  d :     9.911009
      dxz     :     1.982202
      dyz     :     1.982202
      dx2y2   :     1.982202
      dxy     :     1.982202
      f0      :     0.010014  f :     0.070099
      f+1     :     0.010014
      f-1     :     0.010014
      f+2     :     0.010014
      f-2     :     0.010014
      f+3     :     0.010014
      f-3     :     0.010014

SPIN
  0 Aus       :     0.983198  s :     0.983198
      pz      :     0.002896  p :     0.008689
      px      :     0.002896
      py      :     0.002896
      dz2     :     0.001890  d :     0.009448
      dxz     :     0.001890
      dyz     :     0.001890
      dx2y2   :     0.001890
      dxy     :     0.001890
      f0      :    -0.000191  f :    -0.001335
      f+1     :    -0.000191
      f-1     :    -0.000191
      f+2     :    -0.000191
      f-2     :    -0.000191
      f+3     :    -0.000191
      f-3     :    -0.000191


                     *******************************
                     * LOEWDIN POPULATION ANALYSIS *
                     *******************************

-----------------------------------------
LOEWDIN ATOMIC CHARGES AND SPIN DENSITIES
-----------------------------------------
   0 Au:   -0.000000    1.000000

--------------------------------------------------
LOEWDIN REDUCED ORBITAL CHARGES AND SPIN DENSITIES
--------------------------------------------------
CHARGE
  0 Aus       :     2.988825  s :     2.988825
      pz      :     2.010022  p :     6.030067
      px      :     2.010022
      py      :     2.010022
      dz2     :     1.982202  d :     9.911009
      dxz     :     1.982202
      dyz     :     1.982202
      dx2y2   :     1.982202
      dxy     :     1.982202
      f0      :     0.010014  f :     0.070099
      f+1     :     0.010014
      f-1     :     0.010014
      f+2     :     0.010014
      f-2     :     0.010014
      f+3     :     0.010014
      f-3     :     0.010014

SPIN
  0 Aus       :     0.983198  s :     0.983198
      pz      :     0.002896  p :     0.008689
      px      :     0.002896
      py      :     0.002896
      dz2     :     0.001890  d :     0.009448
      dxz     :     0.001890
      dyz     :     0.001890
      dx2y2   :     0.001890
      dxy     :     0.001890
      f0      :    -0.000191  f :    -0.001335
      f+1     :    -0.000191
      f-1     :    -0.000191
      f+2     :    -0.000191
      f-2     :    -0.000191
      f+3     :    -0.000191
      f-3     :    -0.000191


                      *****************************
                      * MAYER POPULATION ANALYSIS *
                      *****************************

  NA   - Mulliken gross atomic population
  ZA   - Total nuclear charge
  QA   - Mulliken gross atomic charge
  VA   - Mayer's total valence
  BVA  - Mayer's bonded valence
  FA   - Mayer's free valence

  ATOM       NA         ZA         QA         VA         BVA        FA
  0 Au    19.0000    19.0000    -0.0000     1.6614     0.0000     1.6614





------------------------------------------------------------------------------- 
                                     TIMINGS                                   
------------------------------------------------------------------------------- 


Total execution time                   ...        9.843 sec

Fock Matrix Formation                  ...        0.066 sec (  0.7%)
Initial Guess                          ...        0.007 sec (  0.1%)
DIIS Solver                            ...        0.082 sec (  0.8%)
State Vector Update                    ...        0.007 sec (  0.1%)
Sigma-vector construction              ...        0.644 sec (  6.5%)
  <D|H|D>(0-ext Fock)                  ...        0.002 sec (  0.2% of sigma)
  <D|H|D>(0-ext)                       ...        0.004 sec (  0.5% of sigma)
  <D|H|D>(2-ext)                       ...        0.020 sec (  3.0% of sigma)
  <D|H|D>(4-ext)                       ...        0.194 sec ( 30.2% of sigma)
  <S|H|0>                              ...        0.032 sec (  4.9% of sigma)
  <D|H|S>(1-ext)                       ...        0.009 sec (  1.4% of sigma)
  Fock-dressing                        ...        0.112 sec ( 17.3% of sigma)
  (ik|jl)-dressing                     ...        0.006 sec (  0.9% of sigma)
  (ij|ab),(ia|jb)-dressing             ...        0.201 sec ( 31.2% of sigma)
  Pair energies                        ...        0.002 sec (  0.2% of sigma)
Total Time for computing (T)           ...        0.047 sec (  0.5% of ALL)
  I/O of integral and amplitudes       ...        0.010 sec ( 21.7% of (T))
  External N**7 contributions          ...        0.009 sec ( 19.2% of (T))
  Internal N**7 contributions          ...        0.004 sec (  7.5% of (T))
  N**6 triples energy contributions    ...        0.020 sec ( 42.6% of (T))


-------------------------   --------------------
FINAL SINGLE POINT ENERGY      -135.163565143965
-------------------------   --------------------


                            ***************************************
                            *     ORCA property calculations      *
                            ***************************************

                                    ---------------------
                                    Active property flags
                                    ---------------------
   (+) Dipole Moment


------------------------------------------------------------------------------
                       ORCA ELECTRIC PROPERTIES CALCULATION
------------------------------------------------------------------------------

Dipole Moment Calculation                       ... on
Quadrupole Moment Calculation                   ... off
Polarizability Calculation                      ... off
GBWName                                         ... 79_Au.gbw
Electron density file                           ... 79_Au.scfp
The origin for moment calculation is the CENTER OF MASS  = ( 0.000000,  0.000000  0.000000)

-------------
DIPOLE MOMENT
-------------
                                X             Y             Z
Electronic contribution:     -0.00000      -0.00000      -0.00000
Nuclear contribution   :      0.00000       0.00000       0.00000
                        -----------------------------------------
Total Dipole Moment    :     -0.00000      -0.00000      -0.00000
                        -----------------------------------------
Magnitude (a.u.)       :      0.00000
Magnitude (Debye)      :      0.00000



--------------------
Rotational spectrum 
--------------------
 
Rotational constants in cm-1:     0.000000     0.000000     0.000000 
Rotational constants in MHz :     0.000000     0.000000     0.000000 

 Dipole components along the rotational axes: 
x,y,z [a.u.] :    -0.000000    -0.000000    -0.000000 
x,y,z [Debye]:    -0.000000    -0.000000    -0.000000 

 

                           *** MDCI DENSITY ***

------------------------------------------------------------------------------
                       ORCA ELECTRIC PROPERTIES CALCULATION
------------------------------------------------------------------------------

Dipole Moment Calculation                       ... on
Quadrupole Moment Calculation                   ... off
Polarizability Calculation                      ... off
GBWName                                         ... 79_Au.gbw
Electron density file                           ... 79_Au.mdcip
The origin for moment calculation is the CENTER OF MASS  = ( 0.000000,  0.000000  0.000000)

-------------
DIPOLE MOMENT
-------------
                                X             Y             Z
Electronic contribution:     -0.00000      -0.00000      -0.00000
Nuclear contribution   :      0.00000       0.00000       0.00000
                        -----------------------------------------
Total Dipole Moment    :     -0.00000      -0.00000      -0.00000
                        -----------------------------------------
Magnitude (a.u.)       :      0.00000
Magnitude (Debye)      :      0.00000



--------------------
Rotational spectrum 
--------------------
 
Rotational constants in cm-1:     0.000000     0.000000     0.000000 
Rotational constants in MHz :     0.000000     0.000000     0.000000 

 Dipole components along the rotational axes: 
x,y,z [a.u.] :    -0.000000    -0.000000    -0.000000 
x,y,z [Debye]:    -0.000000    -0.000000    -0.000000 

 

Timings for individual modules:

Sum of individual times         ...       15.693 sec (=   0.262 min)
GTO integral calculation        ...        0.847 sec (=   0.014 min)   5.4 %
SCF iterations                  ...        4.568 sec (=   0.076 min)  29.1 %
MDCI module                     ...       10.278 sec (=   0.171 min)  65.5 %
                             ****ORCA TERMINATED NORMALLY****
TOTAL RUN TIME: 0 days 0 hours 0 minutes 16 seconds 452 msec
