
                                 *****************
                                 * O   R   C   A *
                                 *****************

           --- An Ab Initio, DFT and Semiempirical electronic structure package ---

                  #######################################################
                  #                        -***-                        #
                  #          Department of theory and spectroscopy      #
                  #               Directorship: Frank Neese             #
                  #        Max Planck Institute fuer Kohlenforschung    #
                  #                Kaiser Wilhelm Platz 1               #
                  #                 D-45470 Muelheim/Ruhr               #
                  #                      Germany                        #
                  #                                                     #
                  #                  All rights reserved                #
                  #                        -***-                        #
                  #######################################################


                         Program Version 4.2.0 -  RELEASE  -


 With contributions from (in alphabetic order):
   Daniel Aravena         : Magnetic Suceptibility
   Michael Atanasov       : Ab Initio Ligand Field Theory (pilot matlab implementation)
   Alexander A. Auer      : GIAO ZORA, VPT2
   Ute Becker             : Parallelization
   Giovanni Bistoni       : ED, misc. LED, open-shell LED, HFLED
   Martin Brehm           : Molecular dynamics
   Dmytro Bykov           : SCF Hessian
   Vijay G. Chilkuri      : MRCI spin determinant printing, contributions to CSF-ICE
   Dipayan Datta          : RHF DLPNO-CCSD density
   Achintya Kumar Dutta   : EOM-CC, STEOM-CC
   Dmitry Ganyushin       : Spin-Orbit,Spin-Spin,Magnetic field MRCI
   Miquel Garcia          : C-PCM Hessian, Gaussian charge scheme
   Yang Guo               : DLPNO-NEVPT2, CIM, IAO-localization
   Andreas Hansen         : Spin unrestricted coupled pair/coupled cluster methods
   Benjamin Helmich-Paris : CASSCF linear response (MC-RPA)
   Lee Huntington         : MR-EOM, pCC
   Robert Izsak           : Overlap fitted RIJCOSX, COSX-SCS-MP3, EOM
   Christian Kollmar      : KDIIS, OOCD, Brueckner-CCSD(T), CCSD density
   Simone Kossmann        : Meta GGA functionals, TD-DFT gradient, OOMP2, MP2 Hessian
   Martin Krupicka        : AUTO-CI
   Lucas Lang             : DCDCAS
   Dagmar Lenk            : GEPOL surface, SMD
   Dimitrios Liakos       : Extrapolation schemes; Compound Job, initial MDCI parallelization
   Dimitrios Manganas     : Further ROCIS development; embedding schemes
   Dimitrios Pantazis     : SARC Basis sets
   Taras Petrenko         : DFT Hessian,TD-DFT gradient, ASA, ECA, R-Raman, ABS, FL, XAS/XES, NRVS
   Peter Pinski           : DLPNO-MP2, DLPNO-MP2 Gradient
   Christoph Reimann      : Effective Core Potentials
   Marius Retegan         : Local ZFS, SOC
   Christoph Riplinger    : Optimizer, TS searches, QM/MM, DLPNO-CCSD(T), (RO)-DLPNO pert. Triples
   Tobias Risthaus        : Range-separated hybrids, TD-DFT gradient, RPA, STAB
   Michael Roemelt        : Original ROCIS implementation
   Masaaki Saitow         : Open-shell DLPNO-CCSD energy and density
   Barbara Sandhoefer     : DKH picture change effects
   Avijit Sen             : IP-ROCIS
   Kantharuban Sivalingam : CASSCF convergence, NEVPT2, FIC-MRCI
   Bernardo de Souza      : ESD, SOC TD-DFT
   Georgi Stoychev        : AutoAux, RI-MP2 NMR
   Willem Van den Heuvel  : Paramagnetic NMR
   Boris Wezisla          : Elementary symmetry handling
   Frank Wennmohs         : Technical directorship


 We gratefully acknowledge several colleagues who have allowed us to
 interface, adapt or use parts of their codes:
   Stefan Grimme, W. Hujo, H. Kruse,             : VdW corrections, initial TS optimization,
                  C. Bannwarth                     DFT functionals, gCP, sTDA/sTD-DF
   Ed Valeev, F. Pavosevic, A. Kumar             : LibInt (2-el integral package), F12 methods
   Garnet Chan, S. Sharma, J. Yang, R. Olivares  : DMRG
   Ulf Ekstrom                                   : XCFun DFT Library
   Mihaly Kallay                                 : mrcc  (arbitrary order and MRCC methods)
   Andreas Klamt, Michael Diedenhofen            : otool_cosmo (COSMO solvation model)
   Jiri Pittner, Ondrej Demel                    : Mk-CCSD
   Frank Weinhold                                : gennbo (NPA and NBO analysis)
   Christopher J. Cramer and Donald G. Truhlar   : smd solvation model
   Lars Goerigk                                  : TD-DFT with DH, B97 family of functionals
   V. Asgeirsson, H. Jonsson                     : NEB implementation
   FAccTs GmbH                                   : IRC, NEB, NEB-TS, Multilevel, MM, QM/MM, CI optimization
   S Lehtola, MJT Oliveira, MAL Marques          : LibXC Library


 Your calculation uses the libint2 library for the computation of 2-el integrals
 For citations please refer to: http://libint.valeyev.net

 Your ORCA version has been built with support for libXC version: 4.2.3
 For citations please refer to: https://tddft.org/programs/libxc/

 This ORCA versions uses:
   CBLAS   interface :  Fast vector & matrix operations
   LAPACKE interface :  Fast linear algebra routines
   SCALAPACK package :  Parallel linear algebra routines


Setting NCore(Hg) from 46 to 60
----- Orbital basis set information -----
Your calculation utilizes the basis: def2-TZVP
   F. Weigend and R. Ahlrichs, Phys. Chem. Chem. Phys. 7, 3297 (2005).

cite the ECPs for Hg [Def2-ECP] as follows:
Ce-Yb(ecp-28): M. Dolg, H. Stoll, H.Preuss, J. Chem. Phys., 1989, 90, 1730-1734.
Y-Cd(ecp-28), Hf-Hg(ecp-46): D. Andrae,U. Haeussermann, M. Dolg, H. Stoll, H. Preuss, Theor. Chim. Acta, 1990, 77, 123-141.
In-Sb(ecp-28), Tl-Bi(ecp-46): B. Metz, H. Stoll, M. Dolg, J. Chem. Phys., 2000, 113, 2563-2569.
Te-Xe(ecp-28), Po-Rn(ecp-46): K. A. Peterson, D. Figgen, E. Goll, H. Stoll, M. Dolg, J. Chem. Phys., 2003, 119, 11113-11123.
Rb(ecp-28), Cs(ecp-46): T. Leininger, A. Nicklass, W. Kuechle, H. Stoll, M. Dolg, A. Bergner, Chem. Phys. Lett., 1996, 255, 274-280.
Sr(ecp-28), Ba(ecp-46): M. Kaupp, P. V. Schleyer, H. Stoll and H. Preuss, J. Chem. Phys., 1991, 94, 1360-1366.
La(ecp-46): M. Dolg, H. Stoll, A. Savin, H. Preuss, Theor. Chim. Acta, 1989, 75, 173-194.
Lu(ecp-28): X. Cao, M. Dolg, J. Chem. Phys., 2001, 115, 7348-7355.

ECP parameters for Hg [Def2-ECP] have been obtained from:
TURBOMOLE (7.0.2)

================================================================================
                                        WARNINGS
                       Please study these warnings very carefully!
================================================================================


WARNING: MDCI localization with Augmented Hessian Foster-Boys
  ===> : Switching off randomization!

WARNING: Post HF methods need fully converged wavefunctions
  ===> : Setting SCFConvForced true
         You can overwrite this default with %scf ConvForced false 


INFO   : the flag for use of LIBINT has been found!

================================================================================
                                       INPUT FILE
================================================================================
NAME = 80_Hg.in
|  1> #
|  2> # 80_Hg CCSD(T)/Def2-TZVP
|  3> #
|  4> ! CCSD(T) Def2-TZVP tightscf
|  5> 
|  6> *xyz 0 1
|  7>  Hg 0.0 0.0 0.0
|  8> *
|  9> 
| 10> %maxcore 5000 
| 11> 
| 12> %pal
| 13> nprocs 24
| 14> end
| 15> 
| 16> %method
| 17> NewNCore Hg 60 end
| 18> end
| 19> 
| 20> 
| 21>                          ****END OF INPUT****
================================================================================

                       ****************************
                       * Single Point Calculation *
                       ****************************

---------------------------------
CARTESIAN COORDINATES (ANGSTROEM)
---------------------------------
  Hg     0.000000    0.000000    0.000000

----------------------------
CARTESIAN COORDINATES (A.U.)
----------------------------
  NO LB      ZA    FRAG     MASS         X           Y           Z
   0 Hg   20.0000*   0   200.590    0.000000    0.000000    0.000000
* core charge reduced due to ECP

--------------------------------
INTERNAL COORDINATES (ANGSTROEM)
--------------------------------
 Hg     0   0   0     0.000000000000     0.00000000     0.00000000

---------------------------
INTERNAL COORDINATES (A.U.)
---------------------------
 Hg     0   0   0     0.000000000000     0.00000000     0.00000000

---------------------
BASIS SET INFORMATION
---------------------
There are 1 groups of distinct atoms

 Group   1 Type Hg  : 8s8p6d1f contracted to 6s5p3d1f pattern {311111/41111/411/1}

Atom   0Hg   basis set group =>   1
-------------------------
ECP PARAMETER INFORMATION
-------------------------

 Group 1, Type Hg ECP Def2-ECP (replacing 60 core electrons, lmax=3)

Atom   0Hg   ECP group =>   1



           ************************************************************
           *        Program running with 24 parallel MPI-processes    *
           *              working on a common directory               *
           ************************************************************
------------------------------------------------------------------------------
                           ORCA GTO INTEGRAL CALCULATION
------------------------------------------------------------------------------

                         BASIS SET STATISTICS AND STARTUP INFO

 # of primitive gaussian shells          ...   23
 # of primitive gaussian functions       ...   69
 # of contracted shells                  ...   15
 # of contracted basis functions         ...   43
 Highest angular momentum                ...    3
 Maximum contraction depth               ...    4
 Integral package used                   ... LIBINT
 Integral threshhold            Thresh   ...  2.500e-11
 Primitive cut-off              TCut     ...  2.500e-12


------------------------------ INTEGRAL EVALUATION ----------------------------


 * One electron integrals 

   ECP integrals                         ... done
 Pre-screening matrix                    ... done
 Shell pair data                         ... done (   0.000 sec)



           ************************************************************
           *        Program running with 24 parallel MPI-processes    *
           *              working on a common directory               *
           ************************************************************
-------------------------------------------------------------------------------
                                 ORCA SCF
-------------------------------------------------------------------------------

------------
SCF SETTINGS
------------
Hamiltonian:
 Ab initio Hamiltonian  Method          .... Hartree-Fock(GTOs)


General Settings:
 Integral files         IntName         .... 80_Hg
 Hartree-Fock type      HFTyp           .... RHF
 Total Charge           Charge          ....    0
 Multiplicity           Mult            ....    1
 Number of Electrons    NEL             ....   20
 Basis Dimension        Dim             ....   43
 Nuclear Repulsion      ENuc            ....      0.0000000000 Eh

Convergence Acceleration:
 DIIS                   CNVDIIS         .... on
   Start iteration      DIISMaxIt       ....    12
   Startup error        DIISStart       ....  0.200000
   # of expansion vecs  DIISMaxEq       ....     5
   Bias factor          DIISBfac        ....   1.050
   Max. coefficient     DIISMaxC        ....  10.000
 Newton-Raphson         CNVNR           .... off
 SOSCF                  CNVSOSCF        .... off
 Level Shifting         CNVShift        .... on
   Level shift para.    LevelShift      ....    0.2500
   Turn off err/grad.   ShiftErr        ....    0.0010
 Zerner damping         CNVZerner       .... off
 Static damping         CNVDamp         .... on
   Fraction old density DampFac         ....    0.7000
   Max. Damping (<1)    DampMax         ....    0.9800
   Min. Damping (>=0)   DampMin         ....    0.0000
   Turn off err/grad.   DampErr         ....    0.1000
 Fernandez-Rico         CNVRico         .... off

SCF Procedure:
 Maximum # iterations   MaxIter         ....   125
 SCF integral mode      SCFMode         .... Direct
   Integral package                     .... LIBINT
 Reset frequency        DirectResetFreq ....    20
 Integral Threshold     Thresh          ....  2.500e-11 Eh
 Primitive CutOff       TCut            ....  2.500e-12 Eh

Convergence Tolerance:
 Convergence Check Mode ConvCheckMode   .... Total+1el-Energy
 Convergence forced     ConvForced      .... 1
 Energy Change          TolE            ....  1.000e-08 Eh
 1-El. energy change                    ....  1.000e-05 Eh
 DIIS Error             TolErr          ....  5.000e-07


Diagonalization of the overlap matrix:
Smallest eigenvalue                        ... 1.422e-02
Time for diagonalization                   ...    0.001 sec
Threshold for overlap eigenvalues          ... 1.000e-08
Number of eigenvalues below threshold      ... 0
Time for construction of square roots      ...    0.012 sec
Total time needed                          ...    0.014 sec

-------------------
DFT GRID GENERATION
-------------------

General Integration Accuracy     IntAcc      ...  4.340
Radial Grid Type                 RadialGrid  ... Gauss-Chebyshev
Angular Grid (max. acc.)         AngularGrid ... Lebedev-110
Angular grid pruning method      GridPruning ... 3 (G Style)
Weight generation scheme         WeightScheme... Becke
Basis function cutoff            BFCut       ...    1.0000e-11
Integration weight cutoff        WCut        ...    1.0000e-14
Grids for H and He will be reduced by one unit

# of grid points (after initial pruning)     ...   3590 (   0.0 sec)
# of grid points (after weights+screening)   ...   3590 (   0.0 sec)
Grid point division into batches done        ...    0.0 sec
Reduced shell lists constructed in    0.0 sec

Total number of grid points                  ...     3590
Total number of batches                      ...       57
Average number of points per batch           ...       62
Average number of grid points per atom       ...     3590
Average number of shells per batch           ...     3.75 (25.00%)
Average number of basis functions per batch  ...     9.75 (22.67%)
Average number of large shells per batch     ...     3.00 (80.00%)
Average number of large basis fcns per batch ...     9.00 (92.31%)
Maximum spatial batch extension              ...  25.56, 38.92, 38.92 au
Average spatial batch extension              ...   1.27,  1.82,  2.05 au

Time for grid setup =    0.066 sec

------------------------------
INITIAL GUESS: MODEL POTENTIAL
------------------------------
Loading Hartree-Fock densities                     ... done
  calling /sw/apps/orca/orca_4_2_0_linux_x86-64_openmpi314/orca 80_Hg_atom80.inp > 80_Hg_atom80.out in order to generate an atomic fitting density for atom 0 (Hg with ECP) on-the-fly... 
    atom 0 (Hg), assumed electronic state with S=1: 1s2 2s2 2p6 3s2 3p6 4s2 3d10 4p6 5s2 4d10 5p6 6s2 4f14 5d10           ... done
Calculating cut-offs                               ... done
Setting up the integral package                    ... done
Initializing the effective Hamiltonian             ... done
Starting the Coulomb interaction                   ... done (   0.0 sec)
Reading the grid                                   ... done
Mapping shells                                     ... done
Starting the XC term evaluation                    ... done (   0.0 sec)
Transforming the Hamiltonian                       ... done (   0.0 sec)
Diagonalizing the Hamiltonian                      ... done (   0.0 sec)
Back transforming the eigenvectors                 ... done (   0.0 sec)
Now organizing SCF variables                       ... done
                      ------------------
                      INITIAL GUESS DONE (   1.4 sec)
                      ------------------
--------------
SCF ITERATIONS
--------------
ITER       Energy         Delta-E        Max-DP      RMS-DP      [F,P]     Damp
               ***  Starting incremental Fock matrix formation  ***
  0   -152.4183294973   0.000000000000 0.35279737  0.01100785  0.6727811 0.7000
  1   -152.4625430806  -0.044213583273 0.25489254  0.00813146  0.4733057 0.7000
  2   -152.4901569214  -0.027613840833 0.17374576  0.00560459  0.3319861 0.7000
  3   -152.5087842640  -0.018627342537 0.12018811  0.00391883  0.2339868 0.7000
                               ***Turning on DIIS***
  4   -152.5218892632  -0.013104999218 0.08497345  0.00281799  0.1656617 0.7000
  5   -152.6045813588  -0.082692095663 0.06374603  0.00222501  0.1177082 0.7000
  6   -152.5868179530   0.017763405808 0.16357280  0.00604851  0.0833796 0.0000
  7   -152.5551590784   0.031658874647 0.02351400  0.00084286  0.0024522 0.0000
  8   -152.5532797601   0.001879318240 0.01180160  0.00039143  0.0013879 0.0000
  9   -152.5568808384  -0.003601078260 0.01299425  0.00043421  0.0007770 0.0000
 10   -152.5545089693   0.002371869075 0.00163874  0.00005441  0.0001161 0.0000
 11   -152.5543479138   0.000161055563 0.00008171  0.00000272  0.0000101 0.0000
 12   -152.5543221595   0.000025754301 0.00000697  0.00000024  0.0000012 0.0000
                            ***DIIS convergence achieved***

               *****************************************************
               *                     SUCCESS                       *
               *           SCF CONVERGED AFTER  13 CYCLES          *
               *****************************************************


----------------
TOTAL SCF ENERGY
----------------

Total Energy       :         -152.55432670 Eh           -4151.21427 eV

Components:
Nuclear Repulsion  :            0.00000000 Eh               0.00000 eV
Electronic Energy  :         -152.55432670 Eh           -4151.21427 eV
One Electron Energy:         -270.13774184 Eh           -7350.82166 eV
Two Electron Energy:          117.58341514 Eh            3199.60739 eV

Virial components:
Potential Energy   :         -203.63639168 Eh           -5541.22793 eV
Kinetic Energy     :           51.08206498 Eh            1390.01365 eV
Virial Ratio       :            3.98645575


---------------
SCF CONVERGENCE
---------------

  Last Energy change         ...   -4.5382e-06  Tolerance :   1.0000e-08
  Last MAX-Density change    ...    7.9562e-07  Tolerance :   1.0000e-07
  Last RMS-Density change    ...    2.5983e-08  Tolerance :   5.0000e-09
  Last DIIS Error            ...    4.3427e-08  Tolerance :   5.0000e-07

             **** THE GBW FILE WAS UPDATED (80_Hg.gbw) ****
             **** DENSITY FILE WAS UPDATED (80_Hg.scfp) ****
             **** ENERGY FILE WAS UPDATED (80_Hg.en.tmp) ****
             **** THE GBW FILE WAS UPDATED (80_Hg.gbw) ****
             **** DENSITY FILE WAS UPDATED (80_Hg.scfp) ****
----------------
ORBITAL ENERGIES
----------------

  NO   OCC          E(Eh)            E(eV) 
   0   2.0000      -5.043568      -137.2424 
   1   2.0000      -3.031607       -82.4942 
   2   2.0000      -3.031607       -82.4942 
   3   2.0000      -3.031607       -82.4942 
   4   2.0000      -0.604049       -16.4370 
   5   2.0000      -0.604049       -16.4370 
   6   2.0000      -0.604049       -16.4370 
   7   2.0000      -0.604049       -16.4370 
   8   2.0000      -0.604049       -16.4370 
   9   2.0000      -0.326821        -8.8933 
  10   0.0000       0.048796         1.3278 
  11   0.0000       0.048796         1.3278 
  12   0.0000       0.048796         1.3278 
  13   0.0000       0.249189         6.7808 
  14   0.0000       0.249189         6.7808 
  15   0.0000       0.249189         6.7808 
  16   0.0000       0.271872         7.3980 
  17   0.0000       0.476714        12.9720 
  18   0.0000       0.476714        12.9720 
  19   0.0000       0.476714        12.9720 
  20   0.0000       0.476714        12.9720 
  21   0.0000       0.476714        12.9720 
  22   0.0000       1.338317        36.4175 
  23   0.0000       1.338317        36.4175 
  24   0.0000       1.338317        36.4175 
  25   0.0000       1.890167        51.4341 
  26   0.0000       1.890167        51.4341 
  27   0.0000       1.890167        51.4341 
  28   0.0000       1.890167        51.4341 
  29   0.0000       1.890167        51.4341 
  30   0.0000       1.890167        51.4341 
  31   0.0000       1.890167        51.4341 
  32   0.0000       1.988918        54.1212 
  33   0.0000       1.988918        54.1212 
  34   0.0000       1.988918        54.1212 
  35   0.0000       1.988918        54.1212 
  36   0.0000       1.988918        54.1212 
  37   0.0000       2.642425        71.9040 
  38   0.0000      32.967375       897.0879 
  39   0.0000      32.967375       897.0879 
  40   0.0000      32.967375       897.0879 
  41   0.0000      35.696647       971.3551 
  42   0.0000     124.787808      3395.6489 

                    ********************************
                    * MULLIKEN POPULATION ANALYSIS *
                    ********************************

-----------------------
MULLIKEN ATOMIC CHARGES
-----------------------
   0 Hg:    0.000000
Sum of atomic charges:    0.0000000

--------------------------------
MULLIKEN REDUCED ORBITAL CHARGES
--------------------------------
  0 Hgs       :     4.000000  s :     4.000000
      pz      :     2.000000  p :     6.000000
      px      :     2.000000
      py      :     2.000000
      dz2     :     2.000000  d :    10.000000
      dxz     :     2.000000
      dyz     :     2.000000
      dx2y2   :     2.000000
      dxy     :     2.000000
      f0      :     0.000000  f :     0.000000
      f+1     :     0.000000
      f-1     :     0.000000
      f+2     :     0.000000
      f-2     :     0.000000
      f+3     :     0.000000
      f-3     :     0.000000


                     *******************************
                     * LOEWDIN POPULATION ANALYSIS *
                     *******************************

----------------------
LOEWDIN ATOMIC CHARGES
----------------------
   0 Hg:    0.000000

-------------------------------
LOEWDIN REDUCED ORBITAL CHARGES
-------------------------------
  0 Hgs       :     4.000000  s :     4.000000
      pz      :     2.000000  p :     6.000000
      px      :     2.000000
      py      :     2.000000
      dz2     :     2.000000  d :    10.000000
      dxz     :     2.000000
      dyz     :     2.000000
      dx2y2   :     2.000000
      dxy     :     2.000000
      f0      :     0.000000  f :     0.000000
      f+1     :     0.000000
      f-1     :     0.000000
      f+2     :     0.000000
      f-2     :     0.000000
      f+3     :     0.000000
      f-3     :     0.000000


                      *****************************
                      * MAYER POPULATION ANALYSIS *
                      *****************************

  NA   - Mulliken gross atomic population
  ZA   - Total nuclear charge
  QA   - Mulliken gross atomic charge
  VA   - Mayer's total valence
  BVA  - Mayer's bonded valence
  FA   - Mayer's free valence

  ATOM       NA         ZA         QA         VA         BVA        FA
  0 Hg    20.0000    20.0000     0.0000     0.0000     0.0000     0.0000

  Mayer bond orders larger than 0.100000


--------------------------
ATOM BASIS FOR ELEMENT Hg
--------------------------
 NewGTO Hg
 S 8
    1         48.013786990000         0.005718031910
    2         21.239875095000        -0.170808715946
    3         15.876100879000         0.358969753741
    4          5.518053182000        -0.791332833981
    5          1.509914547900         0.911280898191
    6          0.706834821600         0.467730472260
    7          0.162662655800         0.014863582392
    8          0.056960589100        -0.002796570867
 S 8
    1         48.013786990000        -0.002026961423
    2         21.239875095000         0.060549273503
    3         15.876100879000        -0.127249699632
    4          5.518053182000         0.307025733562
    5          1.509914547900        -0.510712417741
    6          0.706834821600        -0.255838036256
    7          0.162662655800         0.652065215764
    8          0.056960589100         0.552363553225
 S 8
    1         48.013786990000        -0.001439809774
    2         21.239875095000         0.043009913662
    3         15.876100879000        -0.090389170308
    4          5.518053182000         0.224772361383
    5          1.509914547900        -0.240588483202
    6          0.706834821600        -0.693014406536
    7          0.162662655800         2.308225648441
    8          0.056960589100        -1.874964550379
 S 8
    1         48.013786990000         0.008864726424
    2         21.239875095000        -0.264806591075
    3         15.876100879000         0.556514673509
    4          5.518053182000        -1.360709918849
    5          1.509914547900         4.464899881241
    6          0.706834821600        -4.537272083790
    7          0.162662655800         1.941230217729
    8          0.056960589100        -0.740366490641
 S 8
    1         48.013786990000         0.053832767085
    2         21.239875095000        -1.608089280846
    3         15.876100879000         3.379543075079
    4          5.518053182000        -3.597034335033
    5          1.509914547900         2.774443418827
    6          0.706834821600        -1.715260124193
    7          0.162662655800         0.483867391437
    8          0.056960589100        -0.180273504258
 S 8
    1         48.013786990000         0.056906346166
    2         21.239875095000        -1.699903056004
    3         15.876100879000         3.572497913924
    4          5.518053182000        -1.540066726791
    5          1.509914547900         0.880724961242
    6          0.706834821600        -0.519385681343
    7          0.162662655800         0.144703400836
    8          0.056960589100        -0.054074156319
 P 8
    1         17.500000000000        -0.086454249799
    2         15.252594855000         0.153267974634
    3          6.440471516900        -0.302739266169
    4          1.818015992000         0.543594380309
    5          0.900679818000         0.497504454035
    6          0.413045401200         0.138126437709
    7          0.118457026500         0.006003763583
    8          0.036087619300        -0.000422008414
 P 8
    1         17.500000000000        -0.011615843939
    2         15.252594855000         0.020592820808
    3          6.440471516900        -0.040675525822
    4          1.818015992000         0.073036403677
    5          0.900679818000         0.131942465231
    6          0.413045401200        -0.079410857977
    7          0.118457026500        -0.083125977147
    8          0.036087619300        -0.932390967391
 P 8
    1         17.500000000000        -0.022307241345
    2         15.252594855000         0.039546762693
    3          6.440471516900        -0.078113891343
    4          1.818015992000         0.140260207721
    5          0.900679818000         0.169557299428
    6          0.413045401200         0.153214473248
    7          0.118457026500        -1.479334142500
    8          0.036087619300         1.015104004523
 P 8
    1         17.500000000000        -0.057091037598
    2         15.252594855000         0.101212233323
    3          6.440471516900        -0.199917284199
    4          1.818015992000         0.358968671597
    5          0.900679818000         1.300457963634
    6          0.413045401200        -2.431597750766
    7          0.118457026500         1.344416271899
    8          0.036087619300        -0.446321080993
 P 8
    1         17.500000000000        -0.573823936559
    2         15.252594855000         1.017287556802
    3          6.440471516900        -2.009375338621
    4          1.818015992000         3.608006175831
    5          0.900679818000        -4.253786868553
    6          0.413045401200         2.201218261690
    7          0.118457026500        -0.643200295596
    8          0.036087619300         0.203023697993
 D 6
    1         10.028197701000        -0.039893260639
    2          7.592066149300         0.094705165807
    3          1.914425611800        -0.311414472469
    4          0.886415521000        -0.455338723763
    5          0.381542353200        -0.331917116447
    6          0.148807400900        -0.109343935459
 D 6
    1         10.028197701000        -0.012696782976
    2          7.592066149300         0.030141706085
    3          1.914425611800        -0.099113532190
    4          0.886415521000        -0.144920140986
    5          0.381542353200        -0.477033752687
    6          0.148807400900         1.234826248473
 D 6
    1         10.028197701000        -0.065791630869
    2          7.592066149300         0.156186965174
    3          1.914425611800        -0.513582136220
    4          0.886415521000        -0.750940804390
    5          0.381542353200         1.755355809354
    6          0.148807400900        -0.802107406377
 F 1
    1          0.795690000000         1.000000000000
 end
  // -----------------------------------------------
  // The basis set
  // -----------------------------------------------
  BAS[ATNO] = new BFNGauss[NSH];
  // Basis function   1 L = s
  InitBFNGauss(BAS[ATNO][  0]);
  BAS[ATNO][  0].l  = 0;
  BAS[ATNO][  0].ng = 8;
  BAS[ATNO][  0].a[  0] =        48.013786990000;     BAS[ATNO][  0].d[  0] =         0.005718031910;
  BAS[ATNO][  0].a[  1] =        21.239875095000;     BAS[ATNO][  0].d[  1] =        -0.170808715946;
  BAS[ATNO][  0].a[  2] =        15.876100879000;     BAS[ATNO][  0].d[  2] =         0.358969753741;
  BAS[ATNO][  0].a[  3] =         5.518053182000;     BAS[ATNO][  0].d[  3] =        -0.791332833981;
  BAS[ATNO][  0].a[  4] =         1.509914547900;     BAS[ATNO][  0].d[  4] =         0.911280898191;
  BAS[ATNO][  0].a[  5] =         0.706834821600;     BAS[ATNO][  0].d[  5] =         0.467730472260;
  BAS[ATNO][  0].a[  6] =         0.162662655800;     BAS[ATNO][  0].d[  6] =         0.014863582392;
  BAS[ATNO][  0].a[  7] =         0.056960589100;     BAS[ATNO][  0].d[  7] =        -0.002796570867;

  // Basis function   2 L = s
  InitBFNGauss(BAS[ATNO][  1]);
  BAS[ATNO][  1].l  = 0;
  BAS[ATNO][  1].ng = 8;
  BAS[ATNO][  1].a[  0] =        48.013786990000;     BAS[ATNO][  1].d[  0] =        -0.002026961423;
  BAS[ATNO][  1].a[  1] =        21.239875095000;     BAS[ATNO][  1].d[  1] =         0.060549273503;
  BAS[ATNO][  1].a[  2] =        15.876100879000;     BAS[ATNO][  1].d[  2] =        -0.127249699632;
  BAS[ATNO][  1].a[  3] =         5.518053182000;     BAS[ATNO][  1].d[  3] =         0.307025733562;
  BAS[ATNO][  1].a[  4] =         1.509914547900;     BAS[ATNO][  1].d[  4] =        -0.510712417741;
  BAS[ATNO][  1].a[  5] =         0.706834821600;     BAS[ATNO][  1].d[  5] =        -0.255838036256;
  BAS[ATNO][  1].a[  6] =         0.162662655800;     BAS[ATNO][  1].d[  6] =         0.652065215764;
  BAS[ATNO][  1].a[  7] =         0.056960589100;     BAS[ATNO][  1].d[  7] =         0.552363553225;

  // Basis function   3 L = s
  InitBFNGauss(BAS[ATNO][  2]);
  BAS[ATNO][  2].l  = 0;
  BAS[ATNO][  2].ng = 8;
  BAS[ATNO][  2].a[  0] =        48.013786990000;     BAS[ATNO][  2].d[  0] =        -0.001439809774;
  BAS[ATNO][  2].a[  1] =        21.239875095000;     BAS[ATNO][  2].d[  1] =         0.043009913662;
  BAS[ATNO][  2].a[  2] =        15.876100879000;     BAS[ATNO][  2].d[  2] =        -0.090389170308;
  BAS[ATNO][  2].a[  3] =         5.518053182000;     BAS[ATNO][  2].d[  3] =         0.224772361383;
  BAS[ATNO][  2].a[  4] =         1.509914547900;     BAS[ATNO][  2].d[  4] =        -0.240588483202;
  BAS[ATNO][  2].a[  5] =         0.706834821600;     BAS[ATNO][  2].d[  5] =        -0.693014406536;
  BAS[ATNO][  2].a[  6] =         0.162662655800;     BAS[ATNO][  2].d[  6] =         2.308225648441;
  BAS[ATNO][  2].a[  7] =         0.056960589100;     BAS[ATNO][  2].d[  7] =        -1.874964550379;

  // Basis function   4 L = s
  InitBFNGauss(BAS[ATNO][  3]);
  BAS[ATNO][  3].l  = 0;
  BAS[ATNO][  3].ng = 8;
  BAS[ATNO][  3].a[  0] =        48.013786990000;     BAS[ATNO][  3].d[  0] =        -0.008864726424;
  BAS[ATNO][  3].a[  1] =        21.239875095000;     BAS[ATNO][  3].d[  1] =         0.264806591075;
  BAS[ATNO][  3].a[  2] =        15.876100879000;     BAS[ATNO][  3].d[  2] =        -0.556514673509;
  BAS[ATNO][  3].a[  3] =         5.518053182000;     BAS[ATNO][  3].d[  3] =         1.360709918849;
  BAS[ATNO][  3].a[  4] =         1.509914547900;     BAS[ATNO][  3].d[  4] =        -4.464899881241;
  BAS[ATNO][  3].a[  5] =         0.706834821600;     BAS[ATNO][  3].d[  5] =         4.537272083790;
  BAS[ATNO][  3].a[  6] =         0.162662655800;     BAS[ATNO][  3].d[  6] =        -1.941230217729;
  BAS[ATNO][  3].a[  7] =         0.056960589100;     BAS[ATNO][  3].d[  7] =         0.740366490641;

  // Basis function   5 L = s
  InitBFNGauss(BAS[ATNO][  4]);
  BAS[ATNO][  4].l  = 0;
  BAS[ATNO][  4].ng = 8;
  BAS[ATNO][  4].a[  0] =        48.013786990000;     BAS[ATNO][  4].d[  0] =        -0.053832767085;
  BAS[ATNO][  4].a[  1] =        21.239875095000;     BAS[ATNO][  4].d[  1] =         1.608089280846;
  BAS[ATNO][  4].a[  2] =        15.876100879000;     BAS[ATNO][  4].d[  2] =        -3.379543075079;
  BAS[ATNO][  4].a[  3] =         5.518053182000;     BAS[ATNO][  4].d[  3] =         3.597034335033;
  BAS[ATNO][  4].a[  4] =         1.509914547900;     BAS[ATNO][  4].d[  4] =        -2.774443418827;
  BAS[ATNO][  4].a[  5] =         0.706834821600;     BAS[ATNO][  4].d[  5] =         1.715260124193;
  BAS[ATNO][  4].a[  6] =         0.162662655800;     BAS[ATNO][  4].d[  6] =        -0.483867391437;
  BAS[ATNO][  4].a[  7] =         0.056960589100;     BAS[ATNO][  4].d[  7] =         0.180273504258;

  // Basis function   6 L = s
  InitBFNGauss(BAS[ATNO][  5]);
  BAS[ATNO][  5].l  = 0;
  BAS[ATNO][  5].ng = 8;
  BAS[ATNO][  5].a[  0] =        48.013786990000;     BAS[ATNO][  5].d[  0] =         0.056906346166;
  BAS[ATNO][  5].a[  1] =        21.239875095000;     BAS[ATNO][  5].d[  1] =        -1.699903056004;
  BAS[ATNO][  5].a[  2] =        15.876100879000;     BAS[ATNO][  5].d[  2] =         3.572497913924;
  BAS[ATNO][  5].a[  3] =         5.518053182000;     BAS[ATNO][  5].d[  3] =        -1.540066726791;
  BAS[ATNO][  5].a[  4] =         1.509914547900;     BAS[ATNO][  5].d[  4] =         0.880724961242;
  BAS[ATNO][  5].a[  5] =         0.706834821600;     BAS[ATNO][  5].d[  5] =        -0.519385681343;
  BAS[ATNO][  5].a[  6] =         0.162662655800;     BAS[ATNO][  5].d[  6] =         0.144703400836;
  BAS[ATNO][  5].a[  7] =         0.056960589100;     BAS[ATNO][  5].d[  7] =        -0.054074156319;

  // Basis function   7 L = p
  InitBFNGauss(BAS[ATNO][  6]);
  BAS[ATNO][  6].l  = 1;
  BAS[ATNO][  6].ng = 8;
  BAS[ATNO][  6].a[  0] =        17.500000000000;     BAS[ATNO][  6].d[  0] =        -0.086454249799;
  BAS[ATNO][  6].a[  1] =        15.252594855000;     BAS[ATNO][  6].d[  1] =         0.153267974634;
  BAS[ATNO][  6].a[  2] =         6.440471516900;     BAS[ATNO][  6].d[  2] =        -0.302739266169;
  BAS[ATNO][  6].a[  3] =         1.818015992000;     BAS[ATNO][  6].d[  3] =         0.543594380309;
  BAS[ATNO][  6].a[  4] =         0.900679818000;     BAS[ATNO][  6].d[  4] =         0.497504454035;
  BAS[ATNO][  6].a[  5] =         0.413045401200;     BAS[ATNO][  6].d[  5] =         0.138126437709;
  BAS[ATNO][  6].a[  6] =         0.118457026500;     BAS[ATNO][  6].d[  6] =         0.006003763583;
  BAS[ATNO][  6].a[  7] =         0.036087619300;     BAS[ATNO][  6].d[  7] =        -0.000422008414;

  // Basis function   8 L = p
  InitBFNGauss(BAS[ATNO][  7]);
  BAS[ATNO][  7].l  = 1;
  BAS[ATNO][  7].ng = 8;
  BAS[ATNO][  7].a[  0] =        17.500000000000;     BAS[ATNO][  7].d[  0] =         0.011615843939;
  BAS[ATNO][  7].a[  1] =        15.252594855000;     BAS[ATNO][  7].d[  1] =        -0.020592820808;
  BAS[ATNO][  7].a[  2] =         6.440471516900;     BAS[ATNO][  7].d[  2] =         0.040675525822;
  BAS[ATNO][  7].a[  3] =         1.818015992000;     BAS[ATNO][  7].d[  3] =        -0.073036403677;
  BAS[ATNO][  7].a[  4] =         0.900679818000;     BAS[ATNO][  7].d[  4] =        -0.131942465231;
  BAS[ATNO][  7].a[  5] =         0.413045401200;     BAS[ATNO][  7].d[  5] =         0.079410857977;
  BAS[ATNO][  7].a[  6] =         0.118457026500;     BAS[ATNO][  7].d[  6] =         0.083125977147;
  BAS[ATNO][  7].a[  7] =         0.036087619300;     BAS[ATNO][  7].d[  7] =         0.932390967391;

  // Basis function   9 L = p
  InitBFNGauss(BAS[ATNO][  8]);
  BAS[ATNO][  8].l  = 1;
  BAS[ATNO][  8].ng = 8;
  BAS[ATNO][  8].a[  0] =        17.500000000000;     BAS[ATNO][  8].d[  0] =         0.022307241345;
  BAS[ATNO][  8].a[  1] =        15.252594855000;     BAS[ATNO][  8].d[  1] =        -0.039546762693;
  BAS[ATNO][  8].a[  2] =         6.440471516900;     BAS[ATNO][  8].d[  2] =         0.078113891343;
  BAS[ATNO][  8].a[  3] =         1.818015992000;     BAS[ATNO][  8].d[  3] =        -0.140260207721;
  BAS[ATNO][  8].a[  4] =         0.900679818000;     BAS[ATNO][  8].d[  4] =        -0.169557299428;
  BAS[ATNO][  8].a[  5] =         0.413045401200;     BAS[ATNO][  8].d[  5] =        -0.153214473248;
  BAS[ATNO][  8].a[  6] =         0.118457026500;     BAS[ATNO][  8].d[  6] =         1.479334142500;
  BAS[ATNO][  8].a[  7] =         0.036087619300;     BAS[ATNO][  8].d[  7] =        -1.015104004523;

  // Basis function  10 L = p
  InitBFNGauss(BAS[ATNO][  9]);
  BAS[ATNO][  9].l  = 1;
  BAS[ATNO][  9].ng = 8;
  BAS[ATNO][  9].a[  0] =        17.500000000000;     BAS[ATNO][  9].d[  0] =         0.057091037598;
  BAS[ATNO][  9].a[  1] =        15.252594855000;     BAS[ATNO][  9].d[  1] =        -0.101212233323;
  BAS[ATNO][  9].a[  2] =         6.440471516900;     BAS[ATNO][  9].d[  2] =         0.199917284199;
  BAS[ATNO][  9].a[  3] =         1.818015992000;     BAS[ATNO][  9].d[  3] =        -0.358968671597;
  BAS[ATNO][  9].a[  4] =         0.900679818000;     BAS[ATNO][  9].d[  4] =        -1.300457963634;
  BAS[ATNO][  9].a[  5] =         0.413045401200;     BAS[ATNO][  9].d[  5] =         2.431597750766;
  BAS[ATNO][  9].a[  6] =         0.118457026500;     BAS[ATNO][  9].d[  6] =        -1.344416271899;
  BAS[ATNO][  9].a[  7] =         0.036087619300;     BAS[ATNO][  9].d[  7] =         0.446321080993;

  // Basis function  11 L = p
  InitBFNGauss(BAS[ATNO][ 10]);
  BAS[ATNO][ 10].l  = 1;
  BAS[ATNO][ 10].ng = 8;
  BAS[ATNO][ 10].a[  0] =        17.500000000000;     BAS[ATNO][ 10].d[  0] =         0.573823936559;
  BAS[ATNO][ 10].a[  1] =        15.252594855000;     BAS[ATNO][ 10].d[  1] =        -1.017287556802;
  BAS[ATNO][ 10].a[  2] =         6.440471516900;     BAS[ATNO][ 10].d[  2] =         2.009375338621;
  BAS[ATNO][ 10].a[  3] =         1.818015992000;     BAS[ATNO][ 10].d[  3] =        -3.608006175831;
  BAS[ATNO][ 10].a[  4] =         0.900679818000;     BAS[ATNO][ 10].d[  4] =         4.253786868553;
  BAS[ATNO][ 10].a[  5] =         0.413045401200;     BAS[ATNO][ 10].d[  5] =        -2.201218261690;
  BAS[ATNO][ 10].a[  6] =         0.118457026500;     BAS[ATNO][ 10].d[  6] =         0.643200295596;
  BAS[ATNO][ 10].a[  7] =         0.036087619300;     BAS[ATNO][ 10].d[  7] =        -0.203023697993;

  // Basis function  12 L = d
  InitBFNGauss(BAS[ATNO][ 11]);
  BAS[ATNO][ 11].l  = 2;
  BAS[ATNO][ 11].ng = 6;
  BAS[ATNO][ 11].a[  0] =        10.028197701000;     BAS[ATNO][ 11].d[  0] =         0.039893260639;
  BAS[ATNO][ 11].a[  1] =         7.592066149300;     BAS[ATNO][ 11].d[  1] =        -0.094705165807;
  BAS[ATNO][ 11].a[  2] =         1.914425611800;     BAS[ATNO][ 11].d[  2] =         0.311414472469;
  BAS[ATNO][ 11].a[  3] =         0.886415521000;     BAS[ATNO][ 11].d[  3] =         0.455338723763;
  BAS[ATNO][ 11].a[  4] =         0.381542353200;     BAS[ATNO][ 11].d[  4] =         0.331917116447;
  BAS[ATNO][ 11].a[  5] =         0.148807400900;     BAS[ATNO][ 11].d[  5] =         0.109343935459;

  // Basis function  13 L = d
  InitBFNGauss(BAS[ATNO][ 12]);
  BAS[ATNO][ 12].l  = 2;
  BAS[ATNO][ 12].ng = 6;
  BAS[ATNO][ 12].a[  0] =        10.028197701000;     BAS[ATNO][ 12].d[  0] =        -0.012696782976;
  BAS[ATNO][ 12].a[  1] =         7.592066149300;     BAS[ATNO][ 12].d[  1] =         0.030141706085;
  BAS[ATNO][ 12].a[  2] =         1.914425611800;     BAS[ATNO][ 12].d[  2] =        -0.099113532190;
  BAS[ATNO][ 12].a[  3] =         0.886415521000;     BAS[ATNO][ 12].d[  3] =        -0.144920140986;
  BAS[ATNO][ 12].a[  4] =         0.381542353200;     BAS[ATNO][ 12].d[  4] =        -0.477033752687;
  BAS[ATNO][ 12].a[  5] =         0.148807400900;     BAS[ATNO][ 12].d[  5] =         1.234826248473;

  // Basis function  14 L = d
  InitBFNGauss(BAS[ATNO][ 13]);
  BAS[ATNO][ 13].l  = 2;
  BAS[ATNO][ 13].ng = 6;
  BAS[ATNO][ 13].a[  0] =        10.028197701000;     BAS[ATNO][ 13].d[  0] =        -0.065791630869;
  BAS[ATNO][ 13].a[  1] =         7.592066149300;     BAS[ATNO][ 13].d[  1] =         0.156186965174;
  BAS[ATNO][ 13].a[  2] =         1.914425611800;     BAS[ATNO][ 13].d[  2] =        -0.513582136220;
  BAS[ATNO][ 13].a[  3] =         0.886415521000;     BAS[ATNO][ 13].d[  3] =        -0.750940804390;
  BAS[ATNO][ 13].a[  4] =         0.381542353200;     BAS[ATNO][ 13].d[  4] =         1.755355809354;
  BAS[ATNO][ 13].a[  5] =         0.148807400900;     BAS[ATNO][ 13].d[  5] =        -0.802107406377;

  // Basis function  15 L = f
  InitBFNGauss(BAS[ATNO][ 14]);
  BAS[ATNO][ 14].l  = 3;
  BAS[ATNO][ 14].ng = 1;
  BAS[ATNO][ 14].a[  0] =         0.795690000000;     BAS[ATNO][ 14].d[  0] =         1.000000000000;

-------------------------------------------
RADIAL EXPECTATION VALUES <R**-3> TO <R**3>
-------------------------------------------
   0 :     0.000000     1.488796     1.166797     0.935992     0.956458     1.067064
   1 :     0.000000     0.244635     0.425162     2.843773     9.342300    34.916744
   2 :     0.000000     0.159995     0.315098     4.235670    20.948964   113.161218
   3 :     0.000000     0.893944     0.803923     1.816018     4.898280    18.735781
   4 :     0.000000     6.682539     2.245416     0.576095     0.571292     1.314655
   5 :     0.000000    63.954130     6.375194     0.217615     0.086586     0.126589
   6 :     1.446013     1.161481     1.027382     1.071899     1.267159     1.654887
   7 :     1.446013     1.161481     1.027382     1.071899     1.267159     1.654887
   8 :     1.446013     1.161481     1.027382     1.071899     1.267159     1.654887
   9 :     0.032352     0.064524     0.220528     5.334244    31.988591   210.669249
  10 :     0.032352     0.064524     0.220528     5.334244    31.988591   210.669249
  11 :     0.032352     0.064524     0.220528     5.334244    31.988591   210.669249
  12 :     0.090561     0.132115     0.303596     4.467113    25.694914   176.006494
  13 :     0.090561     0.132115     0.303596     4.467113    25.694914   176.006494
  14 :     0.090561     0.132115     0.303596     4.467113    25.694914   176.006494
  15 :     0.495956     0.443527     0.556055     2.544173     9.097192    44.671481
  16 :     0.495956     0.443527     0.556055     2.544173     9.097192    44.671481
  17 :     0.495956     0.443527     0.556055     2.544173     9.097192    44.671481
  18 :    16.525208     4.515189     1.692091     1.152797     2.626434    10.339484
  19 :    16.525208     4.515189     1.692091     1.152797     2.626434    10.339484
  20 :    16.525208     4.515189     1.692091     1.152797     2.626434    10.339484
  21 :     0.716104     0.698206     0.779211     1.485980     2.573551    26.067788
  22 :     0.716104     0.698206     0.779211     1.485980     2.573551    26.067788
  23 :     0.716104     0.698206     0.779211     1.485980     2.573551    26.067788
  24 :     0.716104     0.698206     0.779211     1.485980     2.573551    26.067788
  25 :     0.716104     0.698206     0.779211     1.485980     2.573551    26.067788
  26 :     0.099786     0.144176     0.326171     3.556923    13.647351   275.305782
  27 :     0.099786     0.144176     0.326171     3.556923    13.647351   275.305782
  28 :     0.099786     0.144176     0.326171     3.556923    13.647351   275.305782
  29 :     0.099786     0.144176     0.326171     3.556923    13.647351   275.305782
  30 :     0.099786     0.144176     0.326171     3.556923    13.647351   275.305782
  31 :     0.596855     0.546690     0.634393     2.147894     5.957065   100.359221
  32 :     0.596855     0.546690     0.634393     2.147894     5.957065   100.359221
  33 :     0.596855     0.546690     0.634393     2.147894     5.957065   100.359221
  34 :     0.596855     0.546690     0.634393     2.147894     5.957065   100.359221
  35 :     0.596855     0.546690     0.634393     2.147894     5.957065   100.359221
  36 :     0.345181     0.454680     0.650720     1.635611     2.827734    35.972796
  37 :     0.345181     0.454680     0.650720     1.635611     2.827734    35.972796
  38 :     0.345181     0.454680     0.650720     1.635611     2.827734    35.972796
  39 :     0.345181     0.454680     0.650720     1.635611     2.827734    35.972796
  40 :     0.345181     0.454680     0.650720     1.635611     2.827734    35.972796
  41 :     0.345181     0.454680     0.650720     1.635611     2.827734    35.972796
  42 :     0.345181     0.454680     0.650720     1.635611     2.827734    35.972796
-------
TIMINGS
-------

Total SCF time: 0 days 0 hours 0 min 3 sec 

Total time                  ....       3.876 sec
Sum of individual times     ....       3.413 sec  ( 88.1%)

Fock matrix formation       ....       1.673 sec  ( 43.2%)
Diagonalization             ....       0.069 sec  (  1.8%)
Density matrix formation    ....       0.002 sec  (  0.1%)
Population analysis         ....       0.028 sec  (  0.7%)
Initial guess               ....       1.336 sec  ( 34.5%)
Orbital Transformation      ....       0.000 sec  (  0.0%)
Orbital Orthonormalization  ....       0.000 sec  (  0.0%)
DIIS solution               ....       0.239 sec  (  6.2%)


           ************************************************************
           *        Program running with 24 parallel MPI-processes    *
           *              working on a common directory               *
           ************************************************************


------------------------------------------------------------------------------- 
                              ORCA-MATRIX DRIVEN CI                            
------------------------------------------------------------------------------- 

--------------------------------
AUTOMATIC CHOICE OF INCORE LEVEL
--------------------------------

Memory available                           ...   2500.00 MB
Memory needed for S+T                      ...      1.37 MB
Memory needed for J+K                      ...      2.77 MB
Memory needed for DIIS                     ...     19.19 MB
Memory needed for 3-ext                    ...      2.74 MB
Memory needed for 4-ext                    ...      4.66 MB
Memory needed for triples                  ...      1.37 MB
 -> Final InCoreLevel    ... 5
 -> check shows that triples correction can be computed


Wavefunction type
-----------------
Correlation treatment                      ...      CCSD     
Single excitations                         ... ON
Orbital optimization                       ... OFF
Calculation of Z vector                    ... OFF
Calculation of Brueckner orbitals          ... OFF
Perturbative triple excitations            ... ON
Calculation of F12 correction              ... OFF
Frozen core treatment                      ... chemical core (0 el)
Reference Wavefunction                     ... RHF
  Internal Orbitals:     0 ...    9 ( 10 MO's/ 20 electrons)
  Virtual  Orbitals:    10 ...   42 ( 33 MO's              )
Number of AO's                             ...     43
Number of electrons                        ...     20
Number of correlated electrons             ...     20

Algorithmic settings
--------------------
Integral transformation                    ... AO direct full transformation
K(C) Formation                             ... FULL-MO TRAFO
Maximum number of iterations               ...        50
Convergence tolerance (max. residuum)      ... 1.000e-05
Level shift for amplitude update           ... 2.000e-01
Maximum number of DIIS vectors             ...         7
DIIS turned on at iteration                ...         0
Damping before turning on DIIS             ...     0.500
Damping after turning on DIIS              ...     0.000
Pair specific amplitude update             ... OFF
Natural orbital iterations                 ... OFF
Perturbative natural orbital generation    ... OFF
Printlevel                                 ... 2

Memory handling:
----------------
Maximum memory for working arrays          ...   2500 MB
Data storage in matrix containers          ... UNCOMPRESSED
Data type for integral storage             ... DOUBLE
In-Core Storage of quantities:
   Amplitudes+Sigma Vector      ... YES
   J+K operators                ... YES
   DIIS vectors                 ... YES
   3-external integrals         ... YES
   4-external integrals         ... YES


Initializing the integral package          ... done
Warning: reference  - re-canonicalizations have been set to INT 1 VIRT 1

--------------------------
CLOSED-SHELL FOCK OPERATOR
--------------------------

<ss|ss>:          231 b            0 skpd (  0.0%)    0.000 s ( 0.000 ms/b)
<ss|sp>:          630 b            0 skpd (  0.0%)    0.000 s ( 0.000 ms/b)
<ss|sd>:          378 b            0 skpd (  0.0%)    0.000 s ( 0.000 ms/b)
<ss|sf>:          126 b            0 skpd (  0.0%)    0.000 s ( 0.000 ms/b)
<ss|pp>:          315 b            0 skpd (  0.0%)    0.000 s ( 0.000 ms/b)
<ss|pd>:          315 b            0 skpd (  0.0%)    0.000 s ( 0.000 ms/b)
<ss|pf>:          105 b            0 skpd (  0.0%)    0.000 s ( 0.001 ms/b)
<ss|dd>:          126 b            0 skpd (  0.0%)    0.000 s ( 0.001 ms/b)
<ss|df>:           63 b            0 skpd (  0.0%)    0.000 s ( 0.002 ms/b)
<ss|ff>:           21 b            0 skpd (  0.0%)    0.000 s ( 0.002 ms/b)
<sp|sp>:          465 b            0 skpd (  0.0%)    0.000 s ( 0.000 ms/b)
<sp|sd>:          540 b            0 skpd (  0.0%)    0.000 s ( 0.000 ms/b)
<sp|sf>:          180 b            0 skpd (  0.0%)    0.000 s ( 0.000 ms/b)
<sp|pp>:          450 b            0 skpd (  0.0%)    0.000 s ( 0.000 ms/b)
<sp|pd>:          450 b            1 skpd (  0.2%)    0.000 s ( 0.001 ms/b)
<sp|pf>:          150 b            0 skpd (  0.0%)    0.000 s ( 0.003 ms/b)
<sp|dd>:          180 b            0 skpd (  0.0%)    0.000 s ( 0.002 ms/b)
<sp|df>: done
<sp|ff>: done
<sd|sd>:          171 b            0 skpd (  0.0%)    0.000 s ( 0.000 ms/b)
<sd|sf>:          108 b            0 skpd (  0.0%)    0.000 s ( 0.001 ms/b)
<sd|pp>:          270 b            0 skpd (  0.0%)    0.000 s ( 0.001 ms/b)
<sd|pd>:          270 b            0 skpd (  0.0%)    0.000 s ( 0.001 ms/b)
<sd|pf>: done
<sd|dd>:          108 b            0 skpd (  0.0%)    0.001 s ( 0.007 ms/b)
<sd|df>:           54 b            0 skpd (  0.0%)    0.001 s ( 0.010 ms/b)
<sd|ff>: done
<sf|sf>:           21 b            0 skpd (  0.0%)    0.000 s ( 0.002 ms/b)
<sf|pp>:           90 b            0 skpd (  0.0%)    0.000 s ( 0.001 ms/b)
<sf|pd>: done
<sf|pf>: done
<sf|dd>:           36 b            0 skpd (  0.0%)    0.000 s ( 0.008 ms/b)
<sf|df>: done
<sf|ff>: done
<pp|pp>:          120 b            0 skpd (  0.0%)    0.000 s ( 0.002 ms/b)
<pp|pd>:          225 b            0 skpd (  0.0%)    0.000 s ( 0.002 ms/b)
<pp|pf>:           75 b            0 skpd (  0.0%)    0.001 s ( 0.008 ms/b)
<pp|dd>:           90 b            0 skpd (  0.0%)    0.001 s ( 0.008 ms/b)
<pp|df>:           45 b            0 skpd (  0.0%)    0.001 s ( 0.013 ms/b)
<pp|ff>:           15 b            0 skpd (  0.0%)    0.000 s ( 0.020 ms/b)
<pd|pd>:          120 b            0 skpd (  0.0%)    0.001 s ( 0.008 ms/b)
<pd|pf>:           75 b            0 skpd (  0.0%)    0.001 s ( 0.019 ms/b)
<pd|dd>:           90 b            0 skpd (  0.0%)    0.002 s ( 0.020 ms/b)
<pd|df>:           45 b            0 skpd (  0.0%)    0.001 s ( 0.023 ms/b)
<pd|ff>: done
<pf|pf>:           15 b            0 skpd (  0.0%)    0.000 s ( 0.017 ms/b)
<pf|dd>:           30 b            0 skpd (  0.0%)    0.001 s ( 0.020 ms/b)
<pf|df>: done
<pf|ff>: done
<dd|dd>:           21 b            0 skpd (  0.0%)    0.002 s ( 0.093 ms/b)
<dd|df>:           18 b            0 skpd (  0.0%)    0.001 s ( 0.061 ms/b)
<dd|ff>:            6 b            0 skpd (  0.0%)    0.001 s ( 0.110 ms/b)
<df|df>:            6 b            0 skpd (  0.0%)    0.001 s ( 0.091 ms/b)
<df|ff>: done
<ff|ff>: done
Recanonicalizing the internal orbitals
Recanonicalizing the virtual orbitals
Time needed for Fock operator              ...            0.137 sec
Reference energy                           ...   -152.554326940
<ss|**>: 
------------------------------
PARTIAL COULOMB TRANSFORMATION
------------------------------

Transformation type                        ... one-operator
Dimension of the basis                     ...   43
Number of internal MOs                     ...   43 (0-42)
Pair cutoff                                ... 0.000e+00 Eh
Number of AO pairs included in the trafo   ...  946
Total Number of distinct AO pairs          ...  946
Memory devoted for trafo                   ... 2500.0 MB 
Max. Number of MO pairs treated together   ... 346384      
Max. Number of MOs treated per batch       ... 8055      
Number Format for Storage                  ... Double (8 Byte)
AO-integral source                         ... DIRECT
Integral package used                      ... LIBINT

Starting integral evaluation:
<sp|**>:         2520 b        0 skpd     0.011 s (  0.004 ms/b)
<sd|**>:         3600 b        0 skpd     0.010 s (  0.003 ms/b)
<sf|**>:         2160 b        0 skpd     0.010 s (  0.004 ms/b)
<pp|**>:          720 b        0 skpd     0.006 s (  0.008 ms/b)
<pd|**>:         1800 b        0 skpd     0.014 s (  0.008 ms/b)
<pf|**>:         1800 b        0 skpd     0.024 s (  0.014 ms/b)
         600 b        0 skpd     0.015 s (  0.026 ms/b)
<dd|**>:          720 b        0 skpd     0.020 s (  0.028 ms/b)
<df|**>:          360 b        0 skpd     0.021 s (  0.059 ms/b)
<ff|**>:          120 b        0 skpd     0.013 s (  0.109 ms/b)
Closing buffer AOJ ( 0.00 GB; CompressionRatio= 1.00)
Collecting buffer AOJ 
    ... done with AO integral generation
Number of MO pairs included in the trafo   ...  946
    ... Now sorting integrals
IBATCH = 1 of  1
Closing buffer JAO ( 0.00 GB; CompressionRatio= 1.00)
Collecting buffer JAO 
TOTAL TIME for half transformation         ...     0.331 sec
AO-integral generation                     ...     0.097 sec
Half transformation                        ...     0.049 sec
J-integral sorting                         ...     0.156 sec

-------------------------- SECOND HALF TRANSFORMATION -------------------------
Formation of (pq|rs)                       ... ok (     0.179 sec)
Integral sorting                           ... ok (     0.126 sec)

------------------
CLOSED SHELL GUESS
------------------

Initial guess performed in     0.003 sec
E(0)                                       ...   -152.554326940
E(MP2)                                     ...     -0.448166460
Initial E(tot)                             ...   -153.002493400
<T|T>                                      ...      0.116031257
Number of pairs included                   ... 55
Total number of pairs                      ... 55

------------------------------------------------
                  RHF COUPLED CLUSTER ITERATIONS
------------------------------------------------

Number of amplitudes to be optimized       ... 60225

Iter       E(tot)           E(Corr)          Delta-E          Residual     Time
  0   -153.002493400     -0.448166460      0.000000000      0.020683136    0.04
                           *** Turning on DIIS ***
  1   -152.954105220     -0.399778279      0.048388180      0.007829889    0.05
  2   -152.965431620     -0.411104680     -0.011326400      0.004939314    0.05
  3   -152.967765642     -0.413438702     -0.002334022      0.001742515    0.05
  4   -152.968365142     -0.414038202     -0.000599500      0.000462039    0.05
  5   -152.968465828     -0.414138888     -0.000100686      0.000098484    0.05
  6   -152.968478103     -0.414151163     -0.000012276      0.000022013    0.05
  7   -152.968478658     -0.414151717     -0.000000554      0.000005852    0.05
               --- The Coupled-Cluster iterations have converged ---

----------------------
COUPLED CLUSTER ENERGY
----------------------

E(0)                                       ...   -152.554326940
E(CORR)                                    ...     -0.414151717
E(TOT)                                     ...   -152.968478658
Singles Norm <S|S>**1/2                    ...      0.063315550  
T1 diagnostic                              ...      0.014157787  

------------------
LARGEST AMPLITUDES
------------------
   9-> 16  -1-> -1       0.048206
   9-> 10   9-> 10       0.040836
   9-> 11   9-> 11       0.040836
   9-> 12   9-> 12       0.040836
   9-> 15   9-> 15       0.040831
   9-> 13   9-> 13       0.040831
   9-> 14   9-> 14       0.040831
   9-> 10   9-> 13       0.038358
   9-> 13   9-> 10       0.038358
   9-> 11   9-> 14       0.036826
   9-> 14   9-> 11       0.036826
   9-> 12   9-> 15       0.036520
   9-> 15   9-> 12       0.036520
   9-> 16   9-> 16       0.023710
   4-> 29   4-> 29       0.020795
   6-> 25   6-> 25       0.016723


        !!!!!!!!!!!!!!!!!!!!!!!!!!!!!!!!!!!!!!!!!!!!!!!!!!!!!!!!!!!!!!!!!!!!!!!!!! 
        !  Warning: Densities are linearized densities !                         !
        !!!!!!!!!!!!!!!!!!!!!!!!!!!!!!!!!!!!!!!!!!!!!!!!!!!!!!!!!!!!!!!!!!!!!!!!!! 

Trace of internal density part =     -0.230262766
Trace of external density part =      0.230262766
----------------------
RHF TRIPLES CORRECTION (Algorithm 1)
----------------------

Multiplier for the singles contribution    ...      1.000000000

10% done
20% done
30% done
40% done
50% done
60% done
70% done
80% done

Triples Correction (T)                     ...     -0.009921818
Scaling of triples based on CCSD energies (Peterson et al. Molecular Physics 113, 1551 (2015))
E(T*) = f*E(T) where f = E(F12-CCSD)/E(CCSD) 
f = CCSD (with F12)/ CCSD (without F12)    ...      1.000000000
Scaled triples correction (T)              ...     -0.009921818

Final correlation energy                   ...     -0.424073536
E(CCSD)                                    ...   -152.968478658
E(CCSD(T))                                 ...   -152.978400476

NORM  =      1.119140242 sqrt=     1.057894249
W(HF) =      0.893543063
------------------------------------------------------------------------------
                           ORCA POPULATION ANALYSIS
------------------------------------------------------------------------------
Input electron density              ... 80_Hg.mdcip
BaseName (.gbw .S,...)              ... 80_Hg

                    ********************************
                    * MULLIKEN POPULATION ANALYSIS *
                    ********************************

-----------------------
MULLIKEN ATOMIC CHARGES
-----------------------
   0 Hg:    0.000000
Sum of atomic charges:    0.0000000

--------------------------------
MULLIKEN REDUCED ORBITAL CHARGES
--------------------------------
  0 Hgs       :     3.931296  s :     3.931296
      pz      :     2.029602  p :     6.088807
      px      :     2.029602
      py      :     2.029602
      dz2     :     1.981818  d :     9.909088
      dxz     :     1.981818
      dyz     :     1.981818
      dx2y2   :     1.981818
      dxy     :     1.981818
      f0      :     0.010116  f :     0.070810
      f+1     :     0.010116
      f-1     :     0.010116
      f+2     :     0.010116
      f-2     :     0.010116
      f+3     :     0.010116
      f-3     :     0.010116


                     *******************************
                     * LOEWDIN POPULATION ANALYSIS *
                     *******************************

----------------------
LOEWDIN ATOMIC CHARGES
----------------------
   0 Hg:    0.000000

-------------------------------
LOEWDIN REDUCED ORBITAL CHARGES
-------------------------------
  0 Hgs       :     3.931296  s :     3.931296
      pz      :     2.029602  p :     6.088807
      px      :     2.029602
      py      :     2.029602
      dz2     :     1.981818  d :     9.909088
      dxz     :     1.981818
      dyz     :     1.981818
      dx2y2   :     1.981818
      dxy     :     1.981818
      f0      :     0.010116  f :     0.070810
      f+1     :     0.010116
      f-1     :     0.010116
      f+2     :     0.010116
      f-2     :     0.010116
      f+3     :     0.010116
      f-3     :     0.010116


                      *****************************
                      * MAYER POPULATION ANALYSIS *
                      *****************************

  NA   - Mulliken gross atomic population
  ZA   - Total nuclear charge
  QA   - Mulliken gross atomic charge
  VA   - Mayer's total valence
  BVA  - Mayer's bonded valence
  FA   - Mayer's free valence

  ATOM       NA         ZA         QA         VA         BVA        FA
  0 Hg    20.0000    20.0000     0.0000     0.8753     0.0000     0.8753





------------------------------------------------------------------------------- 
                                     TIMINGS                                   
------------------------------------------------------------------------------- 


Total execution time                   ...        1.476 sec

Fock Matrix Formation                  ...        0.137 sec (  9.3%)
Initial Guess                          ...        0.003 sec (  0.2%)
DIIS Solver                            ...        0.035 sec (  2.4%)
State Vector Update                    ...        0.002 sec (  0.1%)
Sigma-vector construction              ...        0.342 sec ( 23.2%)
  <D|H|D>(0-ext)                       ...        0.003 sec (  0.8% of sigma)
  <D|H|D>(2-ext)                       ...        0.006 sec (  1.8% of sigma)
  <D|H|D>(4-ext)                       ...        0.042 sec ( 12.2% of sigma)
  <D|H|D>(4-ext-corr)                  ...        0.018 sec (  5.3% of sigma)
  <S|H|0>                              ...        0.002 sec (  0.6% of sigma)
  <S|H|S>                              ...        0.001 sec (  0.3% of sigma)
  <S|H|D>(1-ext)                       ...        0.002 sec (  0.7% of sigma)
  <D|H|S>(1-ext)                       ...        0.002 sec (  0.5% of sigma)
  <S|H|D>(3-ext)                       ...        0.037 sec ( 10.7% of sigma)
  Fock-dressing                        ...        0.095 sec ( 27.9% of sigma)
  (ik|jl)-dressing                     ...        0.004 sec (  1.3% of sigma)
  (ij|ab),(ia|jb)-dressing             ...        0.095 sec ( 27.9% of sigma)
Total Time for computing (T)           ...        0.015 sec (  1.0% of ALL)
  I/O of integral and amplitudes       ...        0.005 sec ( 35.5% of (T))
  N**6 sorting step                    ...        0.002 sec ( 11.6% of (T))
  External N**7 contributions          ...        0.003 sec ( 22.8% of (T))
  Internal N**7 contributions          ...        0.003 sec ( 17.6% of (T))
  N**6 triples energy contributions    ...        0.002 sec ( 11.5% of (T))


-------------------------   --------------------
FINAL SINGLE POINT ENERGY      -152.978400475998
-------------------------   --------------------


                            ***************************************
                            *     ORCA property calculations      *
                            ***************************************

                                    ---------------------
                                    Active property flags
                                    ---------------------
   (+) Dipole Moment


------------------------------------------------------------------------------
                       ORCA ELECTRIC PROPERTIES CALCULATION
------------------------------------------------------------------------------

Dipole Moment Calculation                       ... on
Quadrupole Moment Calculation                   ... off
Polarizability Calculation                      ... off
GBWName                                         ... 80_Hg.gbw
Electron density file                           ... 80_Hg.scfp
The origin for moment calculation is the CENTER OF MASS  = ( 0.000000,  0.000000  0.000000)

-------------
DIPOLE MOMENT
-------------
                                X             Y             Z
Electronic contribution:      0.00000       0.00000       0.00000
Nuclear contribution   :      0.00000       0.00000       0.00000
                        -----------------------------------------
Total Dipole Moment    :      0.00000       0.00000       0.00000
                        -----------------------------------------
Magnitude (a.u.)       :      0.00000
Magnitude (Debye)      :      0.00000



--------------------
Rotational spectrum 
--------------------
 
Rotational constants in cm-1:     0.000000     0.000000     0.000000 
Rotational constants in MHz :     0.000000     0.000000     0.000000 

 Dipole components along the rotational axes: 
x,y,z [a.u.] :     0.000000     0.000000     0.000000 
x,y,z [Debye]:     0.000000     0.000000     0.000000 

 

                           *** MDCI DENSITY ***

------------------------------------------------------------------------------
                       ORCA ELECTRIC PROPERTIES CALCULATION
------------------------------------------------------------------------------

Dipole Moment Calculation                       ... on
Quadrupole Moment Calculation                   ... off
Polarizability Calculation                      ... off
GBWName                                         ... 80_Hg.gbw
Electron density file                           ... 80_Hg.mdcip
The origin for moment calculation is the CENTER OF MASS  = ( 0.000000,  0.000000  0.000000)

-------------
DIPOLE MOMENT
-------------
                                X             Y             Z
Electronic contribution:      0.00000       0.00000       0.00000
Nuclear contribution   :      0.00000       0.00000       0.00000
                        -----------------------------------------
Total Dipole Moment    :      0.00000       0.00000       0.00000
                        -----------------------------------------
Magnitude (a.u.)       :      0.00000
Magnitude (Debye)      :      0.00000



--------------------
Rotational spectrum 
--------------------
 
Rotational constants in cm-1:     0.000000     0.000000     0.000000 
Rotational constants in MHz :     0.000000     0.000000     0.000000 

 Dipole components along the rotational axes: 
x,y,z [a.u.] :     0.000000     0.000000     0.000000 
x,y,z [Debye]:     0.000000     0.000000     0.000000 

 

Timings for individual modules:

Sum of individual times         ...        6.936 sec (=   0.116 min)
GTO integral calculation        ...        0.839 sec (=   0.014 min)  12.1 %
SCF iterations                  ...        4.239 sec (=   0.071 min)  61.1 %
MDCI module                     ...        1.858 sec (=   0.031 min)  26.8 %
                             ****ORCA TERMINATED NORMALLY****
TOTAL RUN TIME: 0 days 0 hours 0 minutes 7 seconds 726 msec
