
                                 *****************
                                 * O   R   C   A *
                                 *****************

           --- An Ab Initio, DFT and Semiempirical electronic structure package ---

                  #######################################################
                  #                        -***-                        #
                  #          Department of theory and spectroscopy      #
                  #               Directorship: Frank Neese             #
                  #        Max Planck Institute fuer Kohlenforschung    #
                  #                Kaiser Wilhelm Platz 1               #
                  #                 D-45470 Muelheim/Ruhr               #
                  #                      Germany                        #
                  #                                                     #
                  #                  All rights reserved                #
                  #                        -***-                        #
                  #######################################################


                         Program Version 4.2.0 -  RELEASE  -


 With contributions from (in alphabetic order):
   Daniel Aravena         : Magnetic Suceptibility
   Michael Atanasov       : Ab Initio Ligand Field Theory (pilot matlab implementation)
   Alexander A. Auer      : GIAO ZORA, VPT2
   Ute Becker             : Parallelization
   Giovanni Bistoni       : ED, misc. LED, open-shell LED, HFLED
   Martin Brehm           : Molecular dynamics
   Dmytro Bykov           : SCF Hessian
   Vijay G. Chilkuri      : MRCI spin determinant printing, contributions to CSF-ICE
   Dipayan Datta          : RHF DLPNO-CCSD density
   Achintya Kumar Dutta   : EOM-CC, STEOM-CC
   Dmitry Ganyushin       : Spin-Orbit,Spin-Spin,Magnetic field MRCI
   Miquel Garcia          : C-PCM Hessian, Gaussian charge scheme
   Yang Guo               : DLPNO-NEVPT2, CIM, IAO-localization
   Andreas Hansen         : Spin unrestricted coupled pair/coupled cluster methods
   Benjamin Helmich-Paris : CASSCF linear response (MC-RPA)
   Lee Huntington         : MR-EOM, pCC
   Robert Izsak           : Overlap fitted RIJCOSX, COSX-SCS-MP3, EOM
   Christian Kollmar      : KDIIS, OOCD, Brueckner-CCSD(T), CCSD density
   Simone Kossmann        : Meta GGA functionals, TD-DFT gradient, OOMP2, MP2 Hessian
   Martin Krupicka        : AUTO-CI
   Lucas Lang             : DCDCAS
   Dagmar Lenk            : GEPOL surface, SMD
   Dimitrios Liakos       : Extrapolation schemes; Compound Job, initial MDCI parallelization
   Dimitrios Manganas     : Further ROCIS development; embedding schemes
   Dimitrios Pantazis     : SARC Basis sets
   Taras Petrenko         : DFT Hessian,TD-DFT gradient, ASA, ECA, R-Raman, ABS, FL, XAS/XES, NRVS
   Peter Pinski           : DLPNO-MP2, DLPNO-MP2 Gradient
   Christoph Reimann      : Effective Core Potentials
   Marius Retegan         : Local ZFS, SOC
   Christoph Riplinger    : Optimizer, TS searches, QM/MM, DLPNO-CCSD(T), (RO)-DLPNO pert. Triples
   Tobias Risthaus        : Range-separated hybrids, TD-DFT gradient, RPA, STAB
   Michael Roemelt        : Original ROCIS implementation
   Masaaki Saitow         : Open-shell DLPNO-CCSD energy and density
   Barbara Sandhoefer     : DKH picture change effects
   Avijit Sen             : IP-ROCIS
   Kantharuban Sivalingam : CASSCF convergence, NEVPT2, FIC-MRCI
   Bernardo de Souza      : ESD, SOC TD-DFT
   Georgi Stoychev        : AutoAux, RI-MP2 NMR
   Willem Van den Heuvel  : Paramagnetic NMR
   Boris Wezisla          : Elementary symmetry handling
   Frank Wennmohs         : Technical directorship


 We gratefully acknowledge several colleagues who have allowed us to
 interface, adapt or use parts of their codes:
   Stefan Grimme, W. Hujo, H. Kruse,             : VdW corrections, initial TS optimization,
                  C. Bannwarth                     DFT functionals, gCP, sTDA/sTD-DF
   Ed Valeev, F. Pavosevic, A. Kumar             : LibInt (2-el integral package), F12 methods
   Garnet Chan, S. Sharma, J. Yang, R. Olivares  : DMRG
   Ulf Ekstrom                                   : XCFun DFT Library
   Mihaly Kallay                                 : mrcc  (arbitrary order and MRCC methods)
   Andreas Klamt, Michael Diedenhofen            : otool_cosmo (COSMO solvation model)
   Jiri Pittner, Ondrej Demel                    : Mk-CCSD
   Frank Weinhold                                : gennbo (NPA and NBO analysis)
   Christopher J. Cramer and Donald G. Truhlar   : smd solvation model
   Lars Goerigk                                  : TD-DFT with DH, B97 family of functionals
   V. Asgeirsson, H. Jonsson                     : NEB implementation
   FAccTs GmbH                                   : IRC, NEB, NEB-TS, Multilevel, MM, QM/MM, CI optimization
   S Lehtola, MJT Oliveira, MAL Marques          : LibXC Library


 Your calculation uses the libint2 library for the computation of 2-el integrals
 For citations please refer to: http://libint.valeyev.net

 Your ORCA version has been built with support for libXC version: 4.2.3
 For citations please refer to: https://tddft.org/programs/libxc/

 This ORCA versions uses:
   CBLAS   interface :  Fast vector & matrix operations
   LAPACKE interface :  Fast linear algebra routines
   SCALAPACK package :  Parallel linear algebra routines


----- Orbital basis set information -----
Your calculation utilizes the basis: def2-SVP
   F. Weigend and R. Ahlrichs, Phys. Chem. Chem. Phys. 7, 3297 (2005).

----- AuxJ basis set information -----
Your calculation utilizes the auxiliary basis: def2/J
   F. Weigend, Phys. Chem. Chem. Phys. 8, 1057 (2006).

================================================================================
                                        WARNINGS
                       Please study these warnings very carefully!
================================================================================


INFO   : the flag for use of LIBINT has been found!

================================================================================
                                       INPUT FILE
================================================================================
NAME = 83_Bi_atom83.inp
|  1> # input to generate an atomic fitting density for Bi
|  2> # this file is use internally by ORCA
|  3> #
|  4> # atomic ground state (S=4): 1s2 2s2 2p6 3s2 3p6 4s2 3d10 4p6 5s2 4d10 5p6 6s2 4f14 5d10 6p3 
|  5> #
|  6> ! RHF AllowRHF def2-SVP def2/J  NoMulliken NoLoewdin NoMayer NoPrintMOs 
|  7> 
|  8> %output print[p_atomdensfit] 2 end
|  9> 
| 10> %scf
| 11>   guess hcore
| 12>   maxiter 1000
| 13>   maxdisk 500000
| 14>   SCFMode Conventional
| 15>   lshift 1.000000
| 16>   hftyp rohf
| 17>   rohf_case sahf
| 18>   rohf_numop   2
| 19>   rohf_norb[1] 3
| 20>   rohf_nel[1]  3
| 21> end
| 22> 
| 23> %basis
| 24>   NewECP 83
| 25>     N_core 60
| 26>     lmax f
| 27>     s 4
| 28>       1      13.0430900000    283.2642270000  2
| 29>       2       8.2216820000     62.4719590000  2
| 30>       3       4.2145460000    -13.7133830000  2
| 31>       4       4.1334000000    -18.1943080000  2
| 32>     p 6
| 33>       1      10.4677770000     72.0014990000  2
| 34>       2       9.1189010000    144.0022770000  2
| 35>       3       6.7547910000      5.0079450000  2
| 36>       4       6.2525920000      9.9915500000  2
| 37>       5       4.2145460000    -13.7133830000  2
| 38>       6       4.1334000000    -18.1943080000  2
| 39>     d 6
| 40>       1       8.0814740000     36.3962590000  2
| 41>       2       7.8905950000     54.5976640000  2
| 42>       3       4.9555560000      9.9842940000  2
| 43>       4       4.7045590000     14.9814850000  2
| 44>       5       4.2145460000    -13.7133830000  2
| 45>       6       4.1334000000    -18.1943080000  2
| 46>     f 2
| 47>       1       4.2145460000     13.7133830000  2
| 48>       2       4.1334000000     18.1943080000  2
| 49>   end
| 50>   NewGTO 83
| 51>     s 4 
| 52>      1     716.4143531000      0.0016093804
| 53>      2      83.8060590470      0.0090755346
| 54>      3      21.1169628530     -1.1282637962
| 55>      4      15.4914481870      2.0808980196
| 56>     s 2 
| 57>      1      23.2398550290     -0.0735378540
| 58>      2       6.6474255000      1.0546329000
| 59>     s 1 
| 60>      1       1.7617744005      1.0000000000
| 61>     s 1 
| 62>      1       0.8725286600      1.0000000000
| 63>     s 1 
| 64>      1       0.2561889600      1.0000000000
| 65>     s 1 
| 66>      1       0.0970739130      1.0000000000
| 67>     p 3 
| 68>      1      15.2496446690      2.4477011965
| 69>      2      14.8461760530     -2.8094143356
| 70>      3       7.0636826784      1.3180348276
| 71>     p 3 
| 72>      1       2.5881255616      0.2841971176
| 73>      2       1.5020208499      0.5115554398
| 74>      3       0.7673272439      0.2585305412
| 75>     p 1 
| 76>      1       0.3279764898      1.0000000000
| 77>     p 1 
| 78>      1       0.1382033599      1.0000000000
| 79>     p 1 
| 80>      1       0.0551373310      1.0000000000
| 81>   end
| 82>   NewAuxGTO 83
| 83>     S 1
| 84>      1 1310.72 1.0
| 85>     S 1
| 86>      1  655.36 1.0
| 87>     S 1
| 88>      1  327.68 1.0
| 89>     S 1
| 90>      1  163.84 1.0
| 91>     S 1
| 92>      1   81.82 1.0
| 93>     S 1
| 94>      1   40.96 1.0
| 95>     S 1
| 96>      1   20.48 1.0
| 97>     S 1
| 98>      1   10.24 1.0
| 99>     S 1
|100>      1    5.12 1.0
|101>     S 1
|102>      1    2.56 1.0
|103>     S 1
|104>      1    1.28 1.0
|105>     S 1
|106>      1    0.64 1.0
|107>     S 1
|108>      1    0.32 1.0
|109>     S 1
|110>      1    0.16 1.0
|111>     S 1
|112>      1    0.08 1.0
|113>     S 1
|114>      1    0.04 1.0
|115>     S 1
|116>      1    0.02 1.0
|117>     S 1
|118>      1    0.01 1.0
|119>   end
|120> end
|121> 
|122> * xyz 0 4
|123> 83  0.0 0.0 0.0
|124> *
|125> 
|126> 
|127>                          ****END OF INPUT****
================================================================================

                       ****************************
                       * Single Point Calculation *
                       ****************************

---------------------------------
CARTESIAN COORDINATES (ANGSTROEM)
---------------------------------
  Bi     0.000000    0.000000    0.000000

----------------------------
CARTESIAN COORDINATES (A.U.)
----------------------------
  NO LB      ZA    FRAG     MASS         X           Y           Z
   0 Bi   23.0000*   0   208.980    0.000000    0.000000    0.000000
* core charge reduced due to ECP

--------------------------------
INTERNAL COORDINATES (ANGSTROEM)
--------------------------------
 Bi     0   0   0     0.000000000000     0.00000000     0.00000000

---------------------------
INTERNAL COORDINATES (A.U.)
---------------------------
 Bi     0   0   0     0.000000000000     0.00000000     0.00000000

---------------------
BASIS SET INFORMATION
---------------------
There are 1 groups of distinct atoms

 Group   1 Type Bi  : 10s9p contracted to 6s5p pattern {421111/33111}

Atom   0Bi   basis set group =>   1
---------------------------------
AUXILIARY/J BASIS SET INFORMATION
---------------------------------
There are 1 groups of distinct atoms

 Group   1 Type Bi  : 18s contracted to 18s pattern {111111111111111111}

Atom   0Bi   basis set group =>   1
-------------------------
ECP PARAMETER INFORMATION
-------------------------

 Group 1, Type Bi ECP (replacing 60 core electrons, lmax=3)

Atom   0Bi   ECP group =>   1

------------------------------------------------------------------------------
                           ORCA GTO INTEGRAL CALCULATION
------------------------------------------------------------------------------

                         BASIS SET STATISTICS AND STARTUP INFO

 # of primitive gaussian shells          ...   19
 # of primitive gaussian functions       ...   37
 # of contracted shells                  ...   11
 # of contracted basis functions         ...   21
 Highest angular momentum                ...    1
 Maximum contraction depth               ...    4
 Integral package used                   ... LIBINT
 Integral threshhold            Thresh   ...  1.000e-10
 Primitive cut-off              TCut     ...  1.000e-11
 Storage cut-off                TCutStore... -1.000e+00
 Buffer length                           ... 1048576 integrals/buffer
 Generate file with integrals 4 distinct ...false


------------------------------ INTEGRAL EVALUATION ----------------------------


 * One electron integrals 

   ECP integrals                         ... done
 Pre-screening matrix                    ... done
 Shell pair data                         ... done (   0.000 sec)
 Statistics run                          ... done
 Maximum amount of storage needed        ...     0 MB
 Maximum amount of storage dedicated     ... 500000 MB
 Beginning two electron integral evaluation:
 Starting repulsion integrals
  <ss|ss>  ...          231 b.         0 skpd (  0.0%)     0.000 s. (  0.000 ms/b)
  <ss|sp>  ...          630 b.         0 skpd (  0.0%)     0.000 s. (  0.000 ms/b)
  <ss|pp>  ...          315 b.         0 skpd (  0.0%)     0.000 s. (  0.001 ms/b)
  <sp|sp>  ...          465 b.         0 skpd (  0.0%)     0.000 s. (  0.001 ms/b)
  <sp|pp>  ...          450 b.         0 skpd (  0.0%)     0.001 s. (  0.002 ms/b)
  <pp|pp>  ...          120 b.         0 skpd (  0.0%)     0.001 s. (  0.004 ms/b)


                                      INTEGRAL STATISTICS

Integral type statistics:
 Number of integrals retained            ...      26796 
 One   Center Integrals retained         ...      26796 (100.0%)
 Two   Center Integrals retained         ...          0 (  0.0%)
 Three Center Integrals retained         ...          0 (  0.0%)
 Four  Center Integrals retained         ...          0 (  0.0%)

Storage statistics:
 Number of char integrals                ...          0 (  0.0%)
 Number of short int integrals           ...          0 (  0.0%)
 Number of double/float integrals        ...      26796 (100.0%)
 Amount of memory used                   ...          0 MB
 Amount of memory estimated              ...          0 MB ( 95.2%)

Prescreening statistics:
 Total number of shell quadruples        ...       2211 
 Number of skipped shell quadruples      ...          0 (  0.0%)
 # of negligible batches done            ...          0 (  0.0%)

Timings:
 Total evaluation time               ...     0.152 sec (   0.003 min)
 One electron matrix time            ...     0.011 sec (   0.000 min) =  7.6%
 Schwartz matrix evaluation time     ...     0.070 sec (   0.001 min) = 46.2%
 Statistics run                      ...     0.000 sec (   0.000 min) =  0.2%
 Repulsion integral time             ...     0.002 sec (   0.000 min) =  1.4%

-------------------------------------------------------------------------------
                                 ORCA SCF
-------------------------------------------------------------------------------

------------
SCF SETTINGS
------------
Hamiltonian:
 Ab initio Hamiltonian  Method          .... Hartree-Fock(GTOs)


General Settings:
 Integral files         IntName         .... 83_Bi_atom83
 Hartree-Fock type      HFTyp           .... ROHF
 Total Charge           Charge          ....    0
 Multiplicity           Mult            ....    4
 Number of Electrons    NEL             ....   23
 Basis Dimension        Dim             ....   21
 Nuclear Repulsion      ENuc            ....      0.0000000000 Eh

Convergence Acceleration:
 DIIS                   CNVDIIS         .... on
   Start iteration      DIISMaxIt       ....    12
   Startup error        DIISStart       ....  0.200000
   # of expansion vecs  DIISMaxEq       ....     5
   Bias factor          DIISBfac        ....   1.050
   Max. coefficient     DIISMaxC        ....  10.000
 Newton-Raphson         CNVNR           .... off
 SOSCF                  CNVSOSCF        .... off
 Level Shifting         CNVShift        .... on
   Level shift para.    LevelShift      ....    1.0000
   Turn off err/grad.   ShiftErr        ....    0.0010
 Zerner damping         CNVZerner       .... off
 Static damping         CNVDamp         .... on
   Fraction old density DampFac         ....    0.7000
   Max. Damping (<1)    DampMax         ....    0.9800
   Min. Damping (>=0)   DampMin         ....    0.0000
   Turn off err/grad.   DampErr         ....    0.1000
 Fernandez-Rico         CNVRico         .... off

SCF Procedure:
 Maximum # iterations   MaxIter         ....  1000
 SCF integral mode      SCFMode         .... Conventional
 Integral Threshold     Thresh          ....  1.000e-10 Eh
 Primitive CutOff       TCut            ....  1.000e-11 Eh
 Integral Buffer length BufferLength    .... 1048576
 Integral index format  IndFormat       ....     0
 Integral value format  ValFormat       ....     0
 Integral Storage       Thresh          ....  1.000e-10 Eh

Convergence Tolerance:
 Convergence Check Mode ConvCheckMode   .... Total+1el-Energy
 Convergence forced     ConvForced      .... 0
 Energy Change          TolE            ....  1.000e-06 Eh
 1-El. energy change                    ....  1.000e-03 Eh
 DIIS Error             TolErr          ....  1.000e-06


Diagonalization of the overlap matrix:
Smallest eigenvalue                        ... 8.174e-03
Time for diagonalization                   ...    0.000 sec
Threshold for overlap eigenvalues          ... 1.000e-08
Number of eigenvalues below threshold      ... 0
Time for construction of square roots      ...    0.002 sec
Total time needed                          ...    0.002 sec

--------------------
INITIAL GUESS: HCORE
--------------------
AVERAGE-CONFIGURATION (SAHF) CASE FOUND

-------------------
FINAL ROHF SETTINGS
-------------------
Number of operators             ... 2
  operator   0:  10 orbitals  20 electrons n(mue)= 2.000
  operator   1:   3 orbitals   3 electrons n(mue)= 1.000
Vector coupling coefficients a and b (Zerner convention):
   1.000    1.000           1.000    1.000 
   1.000    1.000           1.000    2.000 

                      -----------------
                      INTIAL GUESS DONE 
                      -----------------

 InCore treatment chosen:
   Memory dedicated               ...    1024 MB
   Memory needed                  ...      0 MB
   Number of tiny    integrals    ...       0
   Number of small   integrals    ...       0
   Number of regular integrals    ...   26796

--------------
SCF ITERATIONS
--------------
ITER       Energy         Delta-E        Max-DP      RMS-DP      [F,P]     Damp
  0   -188.6193358447   0.000000000000 5.35203779  0.42166872  1.2488463 0.7000
  1   -189.4472991726  -0.827963327836 5.18977805  0.40507912  0.2832623 0.7000
  2   -189.7977684384  -0.350469265845 4.42718860  0.34364820  0.2164180 0.7000
                            ****Activating DIIS****
  3   -190.0632223212  -0.265453882756 3.89498887  0.30271790  0.1610983 0.7000
  4   -190.3293944026  -0.266172081377 2.99432467  0.23545246  0.1208149 0.7000
  5   -190.5065357247  -0.177141322111 7.54611009  0.60906483  0.0884816 0.0000
  6   -190.8889783442  -0.382442619487 0.34390743  0.04399257  0.0574068 0.0000
  7   -190.9120302211  -0.023051876973 0.20802458  0.02311466  0.0271062 0.0000
  8   -190.9181231621  -0.006092940965 0.18187138  0.02041217  0.0179230 0.0000
  9   -190.9211738487  -0.003050686560 0.09798839  0.01301453  0.0133950 0.0000
 10   -190.9234779047  -0.002304056011 0.06864405  0.00936308  0.0056050 0.0000
 11   -190.9241815710  -0.000703666310 0.01734671  0.00184140  0.0027129 0.0000
 12   -190.9242633718  -0.000081800791 0.00983069  0.00086663  0.0018552 0.0000
 13   -190.9242954932  -0.000032121448 0.01288893  0.00112854  0.0010027 0.0000
 14   -190.9243236260  -0.000028132803 0.01181143  0.00105471  0.0007145 0.0000
 15   -190.9243365085  -0.000012882457 0.00368399  0.00037991  0.0006158 0.0000
 16   -190.9243387403  -0.000002231850 0.00142464  0.00012482  0.0003929 0.0000
                 **** Energy Check signals convergence ****

               *****************************************************
               *                     SUCCESS                       *
               *           SCF CONVERGED AFTER  17 CYCLES          *
               *****************************************************


----------------
TOTAL SCF ENERGY
----------------

Total Energy       :         -190.92433930 Eh           -5195.31540 eV

Components:
Nuclear Repulsion  :            0.00000000 Eh               0.00000 eV
Electronic Energy  :         -190.92433930 Eh           -5195.31540 eV
One Electron Energy:         -303.21039914 Eh           -8250.77442 eV
Two Electron Energy:          112.28605985 Eh            3055.45903 eV

Virial components:
Potential Energy   :         -243.75514597 Eh           -6632.91473 eV
Kinetic Energy     :           52.83080667 Eh            1437.59934 eV
Virial Ratio       :            4.61388272


---------------
SCF CONVERGENCE
---------------

  Last Energy change         ...   -5.5653e-07  Tolerance :   1.0000e-06
  Last MAX-Density change    ...    8.3553e-04  Tolerance :   1.0000e-05
  Last RMS-Density change    ...    9.5128e-05  Tolerance :   1.0000e-06
  Last DIIS Error            ...    2.1392e-04  Tolerance :   1.0000e-06

             **** THE GBW FILE WAS UPDATED (83_Bi_atom83.gbw) ****
             **** DENSITY FILE WAS UPDATED (83_Bi_atom83.scfp) ****
             **** ENERGY FILE WAS UPDATED (83_Bi_atom83.en.tmp) ****
             **** THE GBW FILE WAS UPDATED (83_Bi_atom83.gbw) ****
             **** DENSITY FILE WAS UPDATED (83_Bi_atom83.scfp) ****
----------------
ORBITAL ENERGIES
----------------

  NO   OCC          E(Eh)            E(eV) 
   0   2.0000     -10.032120      -272.9879 
   1   2.0000      -7.258944      -197.5259 
   2   2.0000      -7.258944      -197.5259 
   3   2.0000      -7.253685      -197.3828 
   4   2.0000      -2.523166       -68.6588 
   5   2.0000      -1.519851       -41.3573 
   6   2.0000      -1.519851       -41.3573 
   7   2.0000      -1.506808       -41.0023 
   8   2.0000      -0.441991       -12.0272 
   9   2.0000      -0.185440        -5.0461 
  10   1.0000      -0.234953        -6.3934 
  11   1.0000      -0.234953        -6.3934 
  12   1.0000       0.831406        22.6237 
  13   0.0000       0.318844         8.6762 
  14   0.0000       0.318844         8.6762 
  15   0.0000       0.342261         9.3134 
  16   0.0000      31.967209       869.8720 
  17   0.0000      31.967209       869.8720 
  18   0.0000      31.970178       869.9528 
  19   0.0000      32.265171       877.9799 
  20   0.0000     116.625011      3173.5279 
CleanUpVectors: The p-vectors have cracked symmetry
CleanUpVectors: The p-vectors have cracked symmetry
CleanUpVectors: The p-vectors have cracked symmetry
CleanUpVectors: The p-vectors have cracked symmetry
CleanUpVectors: The p-vectors have cracked symmetry
CleanUpVectors: The p-vectors have cracked symmetry
CleanUpVectors: The p-vectors have cracked symmetry
CleanUpVectors: The p-vectors have cracked symmetry
CleanUpVectors: The p-vectors have cracked symmetry
CleanUpVectors: The p-vectors have cracked symmetry
CleanUpVectors: The p-vectors have cracked symmetry
CleanUpVectors: The p-vectors have cracked symmetry
CleanUpVectors: The p-vectors have cracked symmetry
CleanUpVectors: The p-vectors have cracked symmetry
CleanUpVectors: The p-vectors have cracked symmetry
--------------------------
ATOM BASIS FOR ELEMENT Bi
--------------------------
 NewGTO Bi
 S 10
    1        716.414353100000         0.000472916341
    2         83.806059047000         0.002666845335
    3         21.116962853000        -0.331540253500
    4         15.491448187000         0.611471766841
    5         23.239855029000         0.074615845169
    6          6.647425500000        -1.070092760349
    7          1.761774400500         1.248290422215
    8          0.872528660000         0.227224989132
    9          0.256188960000        -0.002096715195
   10          0.097073913000         0.000958195534
 P 19
    1         15.249644669000         0.123699401480
    2         14.846176053000        -0.141979287471
    3          7.063682678400         0.066609486295
    4         15.249644669000         0.078555405246
    5         14.846176053000        -0.090164061672
    6          7.063682678400         0.042300408301
    7         15.249644669000        -0.737334500591
    8         14.846176053000         0.846295339911
    9          7.063682678400        -0.397038883978
   10          2.588125561600        -0.057132938751
   11          1.502020849900        -0.102839416025
   12          0.767327243900        -0.051973115352
   13          2.588125561600        -0.036282319096
   14          1.502020849900        -0.065308254563
   15          0.767327243900        -0.033005569061
   16          2.588125561600         0.340552067007
   17          1.502020849900         0.612994473285
   18          0.767327243900         0.309795929436
   19          0.327976489800         0.026161530426
 S 10
    1        716.414353100000        -0.000319761700
    2         83.806059047000        -0.001803183615
    3         21.116962853000         0.224170462757
    4         15.491448187000        -0.413445750519
    5         23.239855029000        -0.058898427552
    6          6.647425500000         0.844683602739
    7          1.761774400500        -1.945168716879
    8          0.872528660000         0.820048090141
    9          0.256188960000         1.123889028721
   10          0.097073913000        -0.170723404137
 P 19
    1         15.249644669000         0.062701159843
    2         14.846176053000        -0.071966928632
    3          7.063682678400         0.033763235693
    4         15.249644669000         0.039884084574
    5         14.846176053000        -0.045778021895
    6          7.063682678400         0.021476727883
    7         15.249644669000        -0.373909734853
    8         14.846176053000         0.429164871439
    9          7.063682678400        -0.201342407978
   10          2.588125561600        -0.038305199420
   11          1.502020849900        -0.068949443617
   12          0.767327243900        -0.034845757834
   13          2.588125561600        -0.024365862085
   14          1.502020849900        -0.043858605606
   15          0.767327243900        -0.022165318090
   16          2.588125561600         0.228427783390
   17          1.502020849900         0.411170514963
   18          0.767327243900         0.207797879738
   19          0.327976489800         0.237857649647
 S 10
    1        716.414353100000         0.004421061410
    2         83.806059047000         0.024931020534
    3         21.116962853000        -3.099406162897
    4         15.491448187000         5.716347691055
    5         23.239855029000         0.351043575029
    6          6.647425500000        -5.034442581898
    7          1.761774400500         3.710660135327
    8          0.872528660000        -2.627039819766
    9          0.256188960000         0.868296669503
   10          0.097073913000        -0.296825965732
 S 10
    1        716.414353100000         0.004146398288
    2         83.806059047000         0.023382154477
    3         21.116962853000        -2.906852272173
    4         15.491448187000         5.361213536061
    5         23.239855029000         0.168179835442
    6          6.647425500000        -2.411927706972
    7          1.761774400500         1.209435852988
    8          0.872528660000        -0.800417260996
    9          0.256188960000         0.254981010811
   10          0.097073913000        -0.086797156063
 P 19
    1         21.116962853000         0.000000011426
    2         15.491448187000        -0.000000024603
    3         23.239855029000        -0.000000003195
    4          6.647425500000         0.000000085687
    5          1.761774400500        -0.000000404413
    6          0.872528660000         0.000000251544
    7          0.256188960000         0.000000590113
    8         15.249644669000         0.193241487645
    9         14.846176053000        -0.221798071758
   10          7.063682678400         0.104056414736
   11         15.249644669000        -0.328605215312
   12         14.846176053000         0.377165400732
   13          7.063682678400        -0.176946891611
   14         15.249644669000        -0.002646769265
   15         14.846176053000         0.003037900021
   16          7.063682678400        -0.001425228732
   17          2.588125561600        -0.118054494353
   18          1.502020849900        -0.212498350754
   19          0.767327243900        -0.107392687772
 P 19
    1         15.249644669000         0.024209176616
    2         14.846176053000        -0.027786728191
    3          7.063682678400         0.013036124660
    4         15.249644669000         0.015377879510
    5         14.846176053000        -0.017650371380
    6          7.063682678400         0.008280659746
    7         15.249644669000        -0.144313269581
    8         14.846176053000         0.165639404417
    9          7.063682678400        -0.077709614092
   10          2.588125561600        -0.015786407560
   11          1.502020849900        -0.028415568499
   12          0.767327243900        -0.014360696282
   13          2.588125561600        -0.010027663361
   14          1.502020849900        -0.018049816213
   15          0.767327243900        -0.009122039159
   16          2.588125561600         0.094104319451
   17          1.502020849900         0.169387982997
   18          0.767327243900         0.085605515082
   19          0.327976489800         0.158754691823
 P 19
    1        716.414353100000         0.000000000676
    2         83.806059047000         0.000000011139
    3         21.116962853000        -0.000002758682
    4         15.491448187000         0.000005940342
    5         23.239855029000         0.000000723882
    6          6.647425500000        -0.000019411000
    7          1.761774400500         0.000135647578
    8          0.872528660000        -0.000237954466
    9          0.256188960000         0.000274271998
   10          0.097073913000        -0.000195988586
   11         15.249644669000         0.102949384856
   12         14.846176053000        -0.118162902429
   13          7.063682678400         0.055436045427
   14         15.249644669000        -0.175071240515
   15         14.846176053000         0.200942685960
   16          7.063682678400        -0.094272124653
   17         15.249644669000        -0.001392644000
   18         14.846176053000         0.001598444297
   19          7.063682678400        -0.000749909057
 P 19
    1        716.414353100000        -0.000000000051
    2         83.806059047000        -0.000000000833
    3         21.116962853000         0.000000206387
    4         15.491448187000        -0.000000444419
    5         23.239855029000        -0.000000022266
    6          6.647425500000         0.000000597074
    7          1.761774400500        -0.000000850007
    8          0.872528660000         0.000000851482
    9          0.256188960000        -0.000000516229
   10         15.249644669000         0.142930435481
   11         14.846176053000        -0.164052219694
   12          7.063682678400         0.076964987457
   13         15.249644669000         0.936391657707
   14         14.846176053000        -1.074768501425
   15          7.063682678400         0.504226912540
   16         15.249644669000        -3.005180318525
   17         14.846176053000         3.449275867495
   18          7.063682678400        -1.618225430742
   19          2.588125561600        -0.009645737057
 end
  // -----------------------------------------------
  // The basis set
  // -----------------------------------------------
  BAS[ATNO] = new BFNGauss[NSH];
  // Basis function   1 L = s
  InitBFNGauss(BAS[ATNO][  0]);
  BAS[ATNO][  0].l  = 0;
  BAS[ATNO][  0].ng = 10;
  BAS[ATNO][  0].a[  0] =       716.414353100000;     BAS[ATNO][  0].d[  0] =         0.000472916341;
  BAS[ATNO][  0].a[  1] =        83.806059047000;     BAS[ATNO][  0].d[  1] =         0.002666845335;
  BAS[ATNO][  0].a[  2] =        21.116962853000;     BAS[ATNO][  0].d[  2] =        -0.331540253500;
  BAS[ATNO][  0].a[  3] =        15.491448187000;     BAS[ATNO][  0].d[  3] =         0.611471766841;
  BAS[ATNO][  0].a[  4] =        23.239855029000;     BAS[ATNO][  0].d[  4] =         0.074615845169;
  BAS[ATNO][  0].a[  5] =         6.647425500000;     BAS[ATNO][  0].d[  5] =        -1.070092760349;
  BAS[ATNO][  0].a[  6] =         1.761774400500;     BAS[ATNO][  0].d[  6] =         1.248290422215;
  BAS[ATNO][  0].a[  7] =         0.872528660000;     BAS[ATNO][  0].d[  7] =         0.227224989132;
  BAS[ATNO][  0].a[  8] =         0.256188960000;     BAS[ATNO][  0].d[  8] =        -0.002096715195;
  BAS[ATNO][  0].a[  9] =         0.097073913000;     BAS[ATNO][  0].d[  9] =         0.000958195534;

  // Basis function   2 L = p
  InitBFNGauss(BAS[ATNO][  1]);
  BAS[ATNO][  1].l  = 1;
  BAS[ATNO][  1].ng = 19;
  BAS[ATNO][  1].a[  0] =        15.249644669000;     BAS[ATNO][  1].d[  0] =         0.123699401480;
  BAS[ATNO][  1].a[  1] =        14.846176053000;     BAS[ATNO][  1].d[  1] =        -0.141979287471;
  BAS[ATNO][  1].a[  2] =         7.063682678400;     BAS[ATNO][  1].d[  2] =         0.066609486295;
  BAS[ATNO][  1].a[  3] =        15.249644669000;     BAS[ATNO][  1].d[  3] =         0.078555405246;
  BAS[ATNO][  1].a[  4] =        14.846176053000;     BAS[ATNO][  1].d[  4] =        -0.090164061672;
  BAS[ATNO][  1].a[  5] =         7.063682678400;     BAS[ATNO][  1].d[  5] =         0.042300408301;
  BAS[ATNO][  1].a[  6] =        15.249644669000;     BAS[ATNO][  1].d[  6] =        -0.737334500591;
  BAS[ATNO][  1].a[  7] =        14.846176053000;     BAS[ATNO][  1].d[  7] =         0.846295339911;
  BAS[ATNO][  1].a[  8] =         7.063682678400;     BAS[ATNO][  1].d[  8] =        -0.397038883978;
  BAS[ATNO][  1].a[  9] =         2.588125561600;     BAS[ATNO][  1].d[  9] =        -0.057132938751;
  BAS[ATNO][  1].a[ 10] =         1.502020849900;     BAS[ATNO][  1].d[ 10] =        -0.102839416025;
  BAS[ATNO][  1].a[ 11] =         0.767327243900;     BAS[ATNO][  1].d[ 11] =        -0.051973115352;
  BAS[ATNO][  1].a[ 12] =         2.588125561600;     BAS[ATNO][  1].d[ 12] =        -0.036282319096;
  BAS[ATNO][  1].a[ 13] =         1.502020849900;     BAS[ATNO][  1].d[ 13] =        -0.065308254563;
  BAS[ATNO][  1].a[ 14] =         0.767327243900;     BAS[ATNO][  1].d[ 14] =        -0.033005569061;
  BAS[ATNO][  1].a[ 15] =         2.588125561600;     BAS[ATNO][  1].d[ 15] =         0.340552067007;
  BAS[ATNO][  1].a[ 16] =         1.502020849900;     BAS[ATNO][  1].d[ 16] =         0.612994473285;
  BAS[ATNO][  1].a[ 17] =         0.767327243900;     BAS[ATNO][  1].d[ 17] =         0.309795929436;
  BAS[ATNO][  1].a[ 18] =         0.327976489800;     BAS[ATNO][  1].d[ 18] =         0.026161530426;

  // Basis function   3 L = s
  InitBFNGauss(BAS[ATNO][  2]);
  BAS[ATNO][  2].l  = 0;
  BAS[ATNO][  2].ng = 10;
  BAS[ATNO][  2].a[  0] =       716.414353100000;     BAS[ATNO][  2].d[  0] =         0.000319761700;
  BAS[ATNO][  2].a[  1] =        83.806059047000;     BAS[ATNO][  2].d[  1] =         0.001803183615;
  BAS[ATNO][  2].a[  2] =        21.116962853000;     BAS[ATNO][  2].d[  2] =        -0.224170462757;
  BAS[ATNO][  2].a[  3] =        15.491448187000;     BAS[ATNO][  2].d[  3] =         0.413445750519;
  BAS[ATNO][  2].a[  4] =        23.239855029000;     BAS[ATNO][  2].d[  4] =         0.058898427552;
  BAS[ATNO][  2].a[  5] =         6.647425500000;     BAS[ATNO][  2].d[  5] =        -0.844683602739;
  BAS[ATNO][  2].a[  6] =         1.761774400500;     BAS[ATNO][  2].d[  6] =         1.945168716879;
  BAS[ATNO][  2].a[  7] =         0.872528660000;     BAS[ATNO][  2].d[  7] =        -0.820048090141;
  BAS[ATNO][  2].a[  8] =         0.256188960000;     BAS[ATNO][  2].d[  8] =        -1.123889028721;
  BAS[ATNO][  2].a[  9] =         0.097073913000;     BAS[ATNO][  2].d[  9] =         0.170723404137;

  // Basis function   4 L = p
  InitBFNGauss(BAS[ATNO][  3]);
  BAS[ATNO][  3].l  = 1;
  BAS[ATNO][  3].ng = 19;
  BAS[ATNO][  3].a[  0] =        15.249644669000;     BAS[ATNO][  3].d[  0] =         0.062701159843;
  BAS[ATNO][  3].a[  1] =        14.846176053000;     BAS[ATNO][  3].d[  1] =        -0.071966928632;
  BAS[ATNO][  3].a[  2] =         7.063682678400;     BAS[ATNO][  3].d[  2] =         0.033763235693;
  BAS[ATNO][  3].a[  3] =        15.249644669000;     BAS[ATNO][  3].d[  3] =         0.039884084574;
  BAS[ATNO][  3].a[  4] =        14.846176053000;     BAS[ATNO][  3].d[  4] =        -0.045778021895;
  BAS[ATNO][  3].a[  5] =         7.063682678400;     BAS[ATNO][  3].d[  5] =         0.021476727883;
  BAS[ATNO][  3].a[  6] =        15.249644669000;     BAS[ATNO][  3].d[  6] =        -0.373909734853;
  BAS[ATNO][  3].a[  7] =        14.846176053000;     BAS[ATNO][  3].d[  7] =         0.429164871439;
  BAS[ATNO][  3].a[  8] =         7.063682678400;     BAS[ATNO][  3].d[  8] =        -0.201342407978;
  BAS[ATNO][  3].a[  9] =         2.588125561600;     BAS[ATNO][  3].d[  9] =        -0.038305199420;
  BAS[ATNO][  3].a[ 10] =         1.502020849900;     BAS[ATNO][  3].d[ 10] =        -0.068949443617;
  BAS[ATNO][  3].a[ 11] =         0.767327243900;     BAS[ATNO][  3].d[ 11] =        -0.034845757834;
  BAS[ATNO][  3].a[ 12] =         2.588125561600;     BAS[ATNO][  3].d[ 12] =        -0.024365862085;
  BAS[ATNO][  3].a[ 13] =         1.502020849900;     BAS[ATNO][  3].d[ 13] =        -0.043858605606;
  BAS[ATNO][  3].a[ 14] =         0.767327243900;     BAS[ATNO][  3].d[ 14] =        -0.022165318090;
  BAS[ATNO][  3].a[ 15] =         2.588125561600;     BAS[ATNO][  3].d[ 15] =         0.228427783390;
  BAS[ATNO][  3].a[ 16] =         1.502020849900;     BAS[ATNO][  3].d[ 16] =         0.411170514963;
  BAS[ATNO][  3].a[ 17] =         0.767327243900;     BAS[ATNO][  3].d[ 17] =         0.207797879738;
  BAS[ATNO][  3].a[ 18] =         0.327976489800;     BAS[ATNO][  3].d[ 18] =         0.237857649647;

  // Basis function   5 L = s
  InitBFNGauss(BAS[ATNO][  4]);
  BAS[ATNO][  4].l  = 0;
  BAS[ATNO][  4].ng = 10;
  BAS[ATNO][  4].a[  0] =       716.414353100000;     BAS[ATNO][  4].d[  0] =         0.004421061410;
  BAS[ATNO][  4].a[  1] =        83.806059047000;     BAS[ATNO][  4].d[  1] =         0.024931020534;
  BAS[ATNO][  4].a[  2] =        21.116962853000;     BAS[ATNO][  4].d[  2] =        -3.099406162897;
  BAS[ATNO][  4].a[  3] =        15.491448187000;     BAS[ATNO][  4].d[  3] =         5.716347691055;
  BAS[ATNO][  4].a[  4] =        23.239855029000;     BAS[ATNO][  4].d[  4] =         0.351043575029;
  BAS[ATNO][  4].a[  5] =         6.647425500000;     BAS[ATNO][  4].d[  5] =        -5.034442581898;
  BAS[ATNO][  4].a[  6] =         1.761774400500;     BAS[ATNO][  4].d[  6] =         3.710660135327;
  BAS[ATNO][  4].a[  7] =         0.872528660000;     BAS[ATNO][  4].d[  7] =        -2.627039819766;
  BAS[ATNO][  4].a[  8] =         0.256188960000;     BAS[ATNO][  4].d[  8] =         0.868296669503;
  BAS[ATNO][  4].a[  9] =         0.097073913000;     BAS[ATNO][  4].d[  9] =        -0.296825965732;

  // Basis function   6 L = s
  InitBFNGauss(BAS[ATNO][  5]);
  BAS[ATNO][  5].l  = 0;
  BAS[ATNO][  5].ng = 10;
  BAS[ATNO][  5].a[  0] =       716.414353100000;     BAS[ATNO][  5].d[  0] =         0.004146398288;
  BAS[ATNO][  5].a[  1] =        83.806059047000;     BAS[ATNO][  5].d[  1] =         0.023382154477;
  BAS[ATNO][  5].a[  2] =        21.116962853000;     BAS[ATNO][  5].d[  2] =        -2.906852272173;
  BAS[ATNO][  5].a[  3] =        15.491448187000;     BAS[ATNO][  5].d[  3] =         5.361213536061;
  BAS[ATNO][  5].a[  4] =        23.239855029000;     BAS[ATNO][  5].d[  4] =         0.168179835442;
  BAS[ATNO][  5].a[  5] =         6.647425500000;     BAS[ATNO][  5].d[  5] =        -2.411927706972;
  BAS[ATNO][  5].a[  6] =         1.761774400500;     BAS[ATNO][  5].d[  6] =         1.209435852988;
  BAS[ATNO][  5].a[  7] =         0.872528660000;     BAS[ATNO][  5].d[  7] =        -0.800417260996;
  BAS[ATNO][  5].a[  8] =         0.256188960000;     BAS[ATNO][  5].d[  8] =         0.254981010811;
  BAS[ATNO][  5].a[  9] =         0.097073913000;     BAS[ATNO][  5].d[  9] =        -0.086797156063;

  // Basis function   7 L = p
  InitBFNGauss(BAS[ATNO][  6]);
  BAS[ATNO][  6].l  = 1;
  BAS[ATNO][  6].ng = 19;
  BAS[ATNO][  6].a[  0] =        21.116962853000;     BAS[ATNO][  6].d[  0] =         0.000000011426;
  BAS[ATNO][  6].a[  1] =        15.491448187000;     BAS[ATNO][  6].d[  1] =        -0.000000024603;
  BAS[ATNO][  6].a[  2] =        23.239855029000;     BAS[ATNO][  6].d[  2] =        -0.000000003195;
  BAS[ATNO][  6].a[  3] =         6.647425500000;     BAS[ATNO][  6].d[  3] =         0.000000085687;
  BAS[ATNO][  6].a[  4] =         1.761774400500;     BAS[ATNO][  6].d[  4] =        -0.000000404413;
  BAS[ATNO][  6].a[  5] =         0.872528660000;     BAS[ATNO][  6].d[  5] =         0.000000251544;
  BAS[ATNO][  6].a[  6] =         0.256188960000;     BAS[ATNO][  6].d[  6] =         0.000000590113;
  BAS[ATNO][  6].a[  7] =        15.249644669000;     BAS[ATNO][  6].d[  7] =         0.193241487645;
  BAS[ATNO][  6].a[  8] =        14.846176053000;     BAS[ATNO][  6].d[  8] =        -0.221798071758;
  BAS[ATNO][  6].a[  9] =         7.063682678400;     BAS[ATNO][  6].d[  9] =         0.104056414736;
  BAS[ATNO][  6].a[ 10] =        15.249644669000;     BAS[ATNO][  6].d[ 10] =        -0.328605215312;
  BAS[ATNO][  6].a[ 11] =        14.846176053000;     BAS[ATNO][  6].d[ 11] =         0.377165400732;
  BAS[ATNO][  6].a[ 12] =         7.063682678400;     BAS[ATNO][  6].d[ 12] =        -0.176946891611;
  BAS[ATNO][  6].a[ 13] =        15.249644669000;     BAS[ATNO][  6].d[ 13] =        -0.002646769265;
  BAS[ATNO][  6].a[ 14] =        14.846176053000;     BAS[ATNO][  6].d[ 14] =         0.003037900021;
  BAS[ATNO][  6].a[ 15] =         7.063682678400;     BAS[ATNO][  6].d[ 15] =        -0.001425228732;
  BAS[ATNO][  6].a[ 16] =         2.588125561600;     BAS[ATNO][  6].d[ 16] =        -0.118054494353;
  BAS[ATNO][  6].a[ 17] =         1.502020849900;     BAS[ATNO][  6].d[ 17] =        -0.212498350754;
  BAS[ATNO][  6].a[ 18] =         0.767327243900;     BAS[ATNO][  6].d[ 18] =        -0.107392687772;

  // Basis function   8 L = p
  InitBFNGauss(BAS[ATNO][  7]);
  BAS[ATNO][  7].l  = 1;
  BAS[ATNO][  7].ng = 19;
  BAS[ATNO][  7].a[  0] =        15.249644669000;     BAS[ATNO][  7].d[  0] =         0.024209176616;
  BAS[ATNO][  7].a[  1] =        14.846176053000;     BAS[ATNO][  7].d[  1] =        -0.027786728191;
  BAS[ATNO][  7].a[  2] =         7.063682678400;     BAS[ATNO][  7].d[  2] =         0.013036124660;
  BAS[ATNO][  7].a[  3] =        15.249644669000;     BAS[ATNO][  7].d[  3] =         0.015377879510;
  BAS[ATNO][  7].a[  4] =        14.846176053000;     BAS[ATNO][  7].d[  4] =        -0.017650371380;
  BAS[ATNO][  7].a[  5] =         7.063682678400;     BAS[ATNO][  7].d[  5] =         0.008280659746;
  BAS[ATNO][  7].a[  6] =        15.249644669000;     BAS[ATNO][  7].d[  6] =        -0.144313269581;
  BAS[ATNO][  7].a[  7] =        14.846176053000;     BAS[ATNO][  7].d[  7] =         0.165639404417;
  BAS[ATNO][  7].a[  8] =         7.063682678400;     BAS[ATNO][  7].d[  8] =        -0.077709614092;
  BAS[ATNO][  7].a[  9] =         2.588125561600;     BAS[ATNO][  7].d[  9] =        -0.015786407560;
  BAS[ATNO][  7].a[ 10] =         1.502020849900;     BAS[ATNO][  7].d[ 10] =        -0.028415568499;
  BAS[ATNO][  7].a[ 11] =         0.767327243900;     BAS[ATNO][  7].d[ 11] =        -0.014360696282;
  BAS[ATNO][  7].a[ 12] =         2.588125561600;     BAS[ATNO][  7].d[ 12] =        -0.010027663361;
  BAS[ATNO][  7].a[ 13] =         1.502020849900;     BAS[ATNO][  7].d[ 13] =        -0.018049816213;
  BAS[ATNO][  7].a[ 14] =         0.767327243900;     BAS[ATNO][  7].d[ 14] =        -0.009122039159;
  BAS[ATNO][  7].a[ 15] =         2.588125561600;     BAS[ATNO][  7].d[ 15] =         0.094104319451;
  BAS[ATNO][  7].a[ 16] =         1.502020849900;     BAS[ATNO][  7].d[ 16] =         0.169387982997;
  BAS[ATNO][  7].a[ 17] =         0.767327243900;     BAS[ATNO][  7].d[ 17] =         0.085605515082;
  BAS[ATNO][  7].a[ 18] =         0.327976489800;     BAS[ATNO][  7].d[ 18] =         0.158754691823;

  // Basis function   9 L = p
  InitBFNGauss(BAS[ATNO][  8]);
  BAS[ATNO][  8].l  = 1;
  BAS[ATNO][  8].ng = 19;
  BAS[ATNO][  8].a[  0] =       716.414353100000;     BAS[ATNO][  8].d[  0] =         0.000000000676;
  BAS[ATNO][  8].a[  1] =        83.806059047000;     BAS[ATNO][  8].d[  1] =         0.000000011139;
  BAS[ATNO][  8].a[  2] =        21.116962853000;     BAS[ATNO][  8].d[  2] =        -0.000002758682;
  BAS[ATNO][  8].a[  3] =        15.491448187000;     BAS[ATNO][  8].d[  3] =         0.000005940342;
  BAS[ATNO][  8].a[  4] =        23.239855029000;     BAS[ATNO][  8].d[  4] =         0.000000723882;
  BAS[ATNO][  8].a[  5] =         6.647425500000;     BAS[ATNO][  8].d[  5] =        -0.000019411000;
  BAS[ATNO][  8].a[  6] =         1.761774400500;     BAS[ATNO][  8].d[  6] =         0.000135647578;
  BAS[ATNO][  8].a[  7] =         0.872528660000;     BAS[ATNO][  8].d[  7] =        -0.000237954466;
  BAS[ATNO][  8].a[  8] =         0.256188960000;     BAS[ATNO][  8].d[  8] =         0.000274271998;
  BAS[ATNO][  8].a[  9] =         0.097073913000;     BAS[ATNO][  8].d[  9] =        -0.000195988586;
  BAS[ATNO][  8].a[ 10] =        15.249644669000;     BAS[ATNO][  8].d[ 10] =         0.102949384856;
  BAS[ATNO][  8].a[ 11] =        14.846176053000;     BAS[ATNO][  8].d[ 11] =        -0.118162902429;
  BAS[ATNO][  8].a[ 12] =         7.063682678400;     BAS[ATNO][  8].d[ 12] =         0.055436045427;
  BAS[ATNO][  8].a[ 13] =        15.249644669000;     BAS[ATNO][  8].d[ 13] =        -0.175071240515;
  BAS[ATNO][  8].a[ 14] =        14.846176053000;     BAS[ATNO][  8].d[ 14] =         0.200942685960;
  BAS[ATNO][  8].a[ 15] =         7.063682678400;     BAS[ATNO][  8].d[ 15] =        -0.094272124653;
  BAS[ATNO][  8].a[ 16] =        15.249644669000;     BAS[ATNO][  8].d[ 16] =        -0.001392644000;
  BAS[ATNO][  8].a[ 17] =        14.846176053000;     BAS[ATNO][  8].d[ 17] =         0.001598444297;
  BAS[ATNO][  8].a[ 18] =         7.063682678400;     BAS[ATNO][  8].d[ 18] =        -0.000749909057;

  // Basis function  10 L = p
  InitBFNGauss(BAS[ATNO][  9]);
  BAS[ATNO][  9].l  = 1;
  BAS[ATNO][  9].ng = 19;
  BAS[ATNO][  9].a[  0] =       716.414353100000;     BAS[ATNO][  9].d[  0] =        -0.000000000051;
  BAS[ATNO][  9].a[  1] =        83.806059047000;     BAS[ATNO][  9].d[  1] =        -0.000000000833;
  BAS[ATNO][  9].a[  2] =        21.116962853000;     BAS[ATNO][  9].d[  2] =         0.000000206387;
  BAS[ATNO][  9].a[  3] =        15.491448187000;     BAS[ATNO][  9].d[  3] =        -0.000000444419;
  BAS[ATNO][  9].a[  4] =        23.239855029000;     BAS[ATNO][  9].d[  4] =        -0.000000022266;
  BAS[ATNO][  9].a[  5] =         6.647425500000;     BAS[ATNO][  9].d[  5] =         0.000000597074;
  BAS[ATNO][  9].a[  6] =         1.761774400500;     BAS[ATNO][  9].d[  6] =        -0.000000850007;
  BAS[ATNO][  9].a[  7] =         0.872528660000;     BAS[ATNO][  9].d[  7] =         0.000000851482;
  BAS[ATNO][  9].a[  8] =         0.256188960000;     BAS[ATNO][  9].d[  8] =        -0.000000516229;
  BAS[ATNO][  9].a[  9] =        15.249644669000;     BAS[ATNO][  9].d[  9] =         0.142930435481;
  BAS[ATNO][  9].a[ 10] =        14.846176053000;     BAS[ATNO][  9].d[ 10] =        -0.164052219694;
  BAS[ATNO][  9].a[ 11] =         7.063682678400;     BAS[ATNO][  9].d[ 11] =         0.076964987457;
  BAS[ATNO][  9].a[ 12] =        15.249644669000;     BAS[ATNO][  9].d[ 12] =         0.936391657707;
  BAS[ATNO][  9].a[ 13] =        14.846176053000;     BAS[ATNO][  9].d[ 13] =        -1.074768501425;
  BAS[ATNO][  9].a[ 14] =         7.063682678400;     BAS[ATNO][  9].d[ 14] =         0.504226912540;
  BAS[ATNO][  9].a[ 15] =        15.249644669000;     BAS[ATNO][  9].d[ 15] =        -3.005180318525;
  BAS[ATNO][  9].a[ 16] =        14.846176053000;     BAS[ATNO][  9].d[ 16] =         3.449275867495;
  BAS[ATNO][  9].a[ 17] =         7.063682678400;     BAS[ATNO][  9].d[ 17] =        -1.618225430742;
  BAS[ATNO][  9].a[ 18] =         2.588125561600;     BAS[ATNO][  9].d[ 18] =        -0.009645737057;

-------------------------------------------
RADIAL EXPECTATION VALUES <R**-3> TO <R**3>
-------------------------------------------
   0 :     0.000000     1.833922     1.301986     0.827154     0.735344     0.701498
   1 :     2.024039     1.462720     1.159469     0.934657     0.947534     1.065088
   2 :     2.024039     1.462720     1.159469     0.934657     0.947534     1.065088
   3 :     2.024740     1.463050     1.159604     0.934537     0.947301     1.064840
   4 :     0.000000     0.650466     0.712414     1.649178     3.029784     6.069948
   5 :     0.390500     0.396133     0.563930     2.011655     4.411193    10.557271
   6 :     0.000000     0.182168     0.347023     3.457868    13.111236    53.000738
   7 :     0.000000     0.672873     0.653192     2.331329     7.411401    28.744664
   8 :     0.000000     6.454389     2.204977     0.591755     0.596478     1.249856
   9 :     0.000000    55.955246     5.961462     0.230432     0.093433     0.119246
  10 :     0.390500     0.396133     0.563930     2.011655     4.411193    10.557271
  11 :     0.392954     0.397921     0.565272     2.006206     4.384891    10.452584
  12 :     0.054556     0.086363     0.254476     4.471893    21.739259   113.414481
  13 :     0.058157     0.089594     0.257987     4.428613    21.348457   110.504983
  14 :     0.058157     0.089594     0.257987     4.428613    21.348457   110.504983
  15 :     0.087265     0.107303     0.259897     4.956479    28.473427   179.473216
  16 :     0.087265     0.107303     0.259897     4.956479    28.473427   179.473216
  17 :     0.088268     0.108608     0.261995     4.918704    28.108917   176.667586
  18 :    28.345170     7.613009     2.526970     0.511589     0.487670     1.310332
  19 :    28.345170     7.613009     2.526970     0.511589     0.487670     1.310332
  20 :    28.344614     7.612818     2.526907     0.511653     0.487914     1.311398
Making the total density                ... o.k.
o.k.
Initializing the integrals              ... done
Making exponents                        ... done
Making rho(0)                           ... done (         0.044841832)
Integral calculation                    ... Two index integrals                     ... done
Solving the equation system             ... done
atomic density will be written to file 83_Bi_atom83.adf

-------
TIMINGS
-------

Total SCF time: 0 days 0 hours 0 min 0 sec 

Total time                  ....       0.602 sec
Sum of individual times     ....       0.236 sec  ( 39.2%)

Fock matrix formation       ....       0.139 sec  ( 23.1%)
Diagonalization             ....       0.067 sec  ( 11.1%)
Density matrix formation    ....       0.000 sec  (  0.0%)
Population analysis         ....       0.000 sec  (  0.0%)
Initial guess               ....       0.000 sec  (  0.0%)
Orbital Transformation      ....       0.000 sec  (  0.0%)
Orbital Orthonormalization  ....       0.000 sec  (  0.0%)
DIIS solution               ....       0.029 sec  (  4.9%)

-------------------------   --------------------
FINAL SINGLE POINT ENERGY      -190.924339296848
-------------------------   --------------------


                            ***************************************
                            *     ORCA property calculations      *
                            ***************************************

                                    ---------------------
                                    Active property flags
                                    ---------------------
   (+) Dipole Moment


------------------------------------------------------------------------------
                       ORCA ELECTRIC PROPERTIES CALCULATION
------------------------------------------------------------------------------

Dipole Moment Calculation                       ... on
Quadrupole Moment Calculation                   ... off
Polarizability Calculation                      ... off
GBWName                                         ... 83_Bi_atom83.gbw
Electron density file                           ... 83_Bi_atom83.scfp
The origin for moment calculation is the CENTER OF MASS  = ( 0.000000,  0.000000  0.000000)

-------------
DIPOLE MOMENT
-------------
                                X             Y             Z
Electronic contribution:      0.00005       0.00000      -0.00003
Nuclear contribution   :      0.00000       0.00000       0.00000
                        -----------------------------------------
Total Dipole Moment    :      0.00005       0.00000      -0.00003
                        -----------------------------------------
Magnitude (a.u.)       :      0.00006
Magnitude (Debye)      :      0.00016



--------------------
Rotational spectrum 
--------------------
 
Rotational constants in cm-1:     0.000000     0.000000     0.000000 
Rotational constants in MHz :     0.000000     0.000000     0.000000 

 Dipole components along the rotational axes: 
x,y,z [a.u.] :     0.000053     0.000000    -0.000031 
x,y,z [Debye]:     0.000135     0.000001    -0.000079 

 

Timings for individual modules:

Sum of individual times         ...        0.825 sec (=   0.014 min)
GTO integral calculation        ...        0.203 sec (=   0.003 min)  24.6 %
SCF iterations                  ...        0.622 sec (=   0.010 min)  75.4 %
                             ****ORCA TERMINATED NORMALLY****
TOTAL RUN TIME: 0 days 0 hours 0 minutes 1 seconds 10 msec
