
                                 *****************
                                 * O   R   C   A *
                                 *****************

           --- An Ab Initio, DFT and Semiempirical electronic structure package ---

                  #######################################################
                  #                        -***-                        #
                  #          Department of theory and spectroscopy      #
                  #               Directorship: Frank Neese             #
                  #        Max Planck Institute fuer Kohlenforschung    #
                  #                Kaiser Wilhelm Platz 1               #
                  #                 D-45470 Muelheim/Ruhr               #
                  #                      Germany                        #
                  #                                                     #
                  #                  All rights reserved                #
                  #                        -***-                        #
                  #######################################################


                         Program Version 4.2.0 -  RELEASE  -


 With contributions from (in alphabetic order):
   Daniel Aravena         : Magnetic Suceptibility
   Michael Atanasov       : Ab Initio Ligand Field Theory (pilot matlab implementation)
   Alexander A. Auer      : GIAO ZORA, VPT2
   Ute Becker             : Parallelization
   Giovanni Bistoni       : ED, misc. LED, open-shell LED, HFLED
   Martin Brehm           : Molecular dynamics
   Dmytro Bykov           : SCF Hessian
   Vijay G. Chilkuri      : MRCI spin determinant printing, contributions to CSF-ICE
   Dipayan Datta          : RHF DLPNO-CCSD density
   Achintya Kumar Dutta   : EOM-CC, STEOM-CC
   Dmitry Ganyushin       : Spin-Orbit,Spin-Spin,Magnetic field MRCI
   Miquel Garcia          : C-PCM Hessian, Gaussian charge scheme
   Yang Guo               : DLPNO-NEVPT2, CIM, IAO-localization
   Andreas Hansen         : Spin unrestricted coupled pair/coupled cluster methods
   Benjamin Helmich-Paris : CASSCF linear response (MC-RPA)
   Lee Huntington         : MR-EOM, pCC
   Robert Izsak           : Overlap fitted RIJCOSX, COSX-SCS-MP3, EOM
   Christian Kollmar      : KDIIS, OOCD, Brueckner-CCSD(T), CCSD density
   Simone Kossmann        : Meta GGA functionals, TD-DFT gradient, OOMP2, MP2 Hessian
   Martin Krupicka        : AUTO-CI
   Lucas Lang             : DCDCAS
   Dagmar Lenk            : GEPOL surface, SMD
   Dimitrios Liakos       : Extrapolation schemes; Compound Job, initial MDCI parallelization
   Dimitrios Manganas     : Further ROCIS development; embedding schemes
   Dimitrios Pantazis     : SARC Basis sets
   Taras Petrenko         : DFT Hessian,TD-DFT gradient, ASA, ECA, R-Raman, ABS, FL, XAS/XES, NRVS
   Peter Pinski           : DLPNO-MP2, DLPNO-MP2 Gradient
   Christoph Reimann      : Effective Core Potentials
   Marius Retegan         : Local ZFS, SOC
   Christoph Riplinger    : Optimizer, TS searches, QM/MM, DLPNO-CCSD(T), (RO)-DLPNO pert. Triples
   Tobias Risthaus        : Range-separated hybrids, TD-DFT gradient, RPA, STAB
   Michael Roemelt        : Original ROCIS implementation
   Masaaki Saitow         : Open-shell DLPNO-CCSD energy and density
   Barbara Sandhoefer     : DKH picture change effects
   Avijit Sen             : IP-ROCIS
   Kantharuban Sivalingam : CASSCF convergence, NEVPT2, FIC-MRCI
   Bernardo de Souza      : ESD, SOC TD-DFT
   Georgi Stoychev        : AutoAux, RI-MP2 NMR
   Willem Van den Heuvel  : Paramagnetic NMR
   Boris Wezisla          : Elementary symmetry handling
   Frank Wennmohs         : Technical directorship


 We gratefully acknowledge several colleagues who have allowed us to
 interface, adapt or use parts of their codes:
   Stefan Grimme, W. Hujo, H. Kruse,             : VdW corrections, initial TS optimization,
                  C. Bannwarth                     DFT functionals, gCP, sTDA/sTD-DF
   Ed Valeev, F. Pavosevic, A. Kumar             : LibInt (2-el integral package), F12 methods
   Garnet Chan, S. Sharma, J. Yang, R. Olivares  : DMRG
   Ulf Ekstrom                                   : XCFun DFT Library
   Mihaly Kallay                                 : mrcc  (arbitrary order and MRCC methods)
   Andreas Klamt, Michael Diedenhofen            : otool_cosmo (COSMO solvation model)
   Jiri Pittner, Ondrej Demel                    : Mk-CCSD
   Frank Weinhold                                : gennbo (NPA and NBO analysis)
   Christopher J. Cramer and Donald G. Truhlar   : smd solvation model
   Lars Goerigk                                  : TD-DFT with DH, B97 family of functionals
   V. Asgeirsson, H. Jonsson                     : NEB implementation
   FAccTs GmbH                                   : IRC, NEB, NEB-TS, Multilevel, MM, QM/MM, CI optimization
   S Lehtola, MJT Oliveira, MAL Marques          : LibXC Library


 Your calculation uses the libint2 library for the computation of 2-el integrals
 For citations please refer to: http://libint.valeyev.net

 Your ORCA version has been built with support for libXC version: 4.2.3
 For citations please refer to: https://tddft.org/programs/libxc/

 This ORCA versions uses:
   CBLAS   interface :  Fast vector & matrix operations
   LAPACKE interface :  Fast linear algebra routines
   SCALAPACK package :  Parallel linear algebra routines


----- Orbital basis set information -----
Your calculation utilizes the basis: def2-SVP
   F. Weigend and R. Ahlrichs, Phys. Chem. Chem. Phys. 7, 3297 (2005).

----- AuxJ basis set information -----
Your calculation utilizes the auxiliary basis: def2/J
   F. Weigend, Phys. Chem. Chem. Phys. 8, 1057 (2006).

================================================================================
                                        WARNINGS
                       Please study these warnings very carefully!
================================================================================


INFO   : the flag for use of LIBINT has been found!

================================================================================
                                       INPUT FILE
================================================================================
NAME = 84_Po_atom84.inp
|  1> # input to generate an atomic fitting density for Po
|  2> # this file is use internally by ORCA
|  3> #
|  4> # atomic ground state (S=3): 1s2 2s2 2p6 3s2 3p6 4s2 3d10 4p6 5s2 4d10 5p6 6s2 4f14 5d10 6p4 
|  5> #
|  6> ! RHF AllowRHF def2-SVP def2/J  NoMulliken NoLoewdin NoMayer NoPrintMOs 
|  7> 
|  8> %output print[p_atomdensfit] 2 end
|  9> 
| 10> %scf
| 11>   guess hcore
| 12>   maxiter 1000
| 13>   maxdisk 500000
| 14>   SCFMode Conventional
| 15>   lshift 1.000000
| 16>   hftyp rohf
| 17>   rohf_case sahf
| 18>   rohf_numop   2
| 19>   rohf_norb[1] 3
| 20>   rohf_nel[1]  4
| 21> end
| 22> 
| 23> %basis
| 24>   NewECP 84
| 25>     N_core 60
| 26>     lmax f
| 27>     s 6
| 28>       1      13.2772270000    283.2447060000  2
| 29>       2       8.3995180000     62.3964610000  2
| 30>       3       5.0132700000    -17.4282950000  2
| 31>       4       4.9846400000    -23.3803530000  2
| 32>       5       1.3267600000     -0.1633920000  2
| 33>       6       1.5287580000     -0.3245660000  2
| 34>     p 8
| 35>       1      10.6656820000     71.9917160000  2
| 36>       2       9.2837530000    143.9718710000  2
| 37>       3       6.8727490000      4.9496150000  2
| 38>       4       6.3261500000      9.7404990000  2
| 39>       5       5.0132700000    -17.4282950000  2
| 40>       6       4.9846400000    -23.3803530000  2
| 41>       7       1.3267600000     -0.1633920000  2
| 42>       8       1.5287580000     -0.3245660000  2
| 43>     d 8
| 44>       1       8.2148660000     36.3783830000  2
| 45>       2       8.0086960000     54.5627150000  2
| 46>       3       5.0552270000      9.8894990000  2
| 47>       4       4.7825530000     14.6938770000  2
| 48>       5       5.0132700000    -17.4282950000  2
| 49>       6       4.9846400000    -23.3803530000  2
| 50>       7       1.3267600000     -0.1633920000  2
| 51>       8       1.5287580000     -0.3245660000  2
| 52>     f 4
| 53>       1       5.0132700000     17.4282950000  2
| 54>       2       4.9846400000     23.3803530000  2
| 55>       3       1.3267600000      0.1633920000  2
| 56>       4       1.5287580000      0.3245660000  2
| 57>   end
| 58>   NewGTO 84
| 59>     s 5 
| 60>      1    6744.8211765000      0.0002667131
| 61>      2     744.4189253200      0.0024726498
| 62>      3     131.0402930900      0.0076510921
| 63>      4      19.6620210300     -2.2326123855
| 64>      5      16.6230256090      3.1910959564
| 65>     s 2 
| 66>      1      23.0940029650     -0.0760848894
| 67>      2       6.9707398381      1.0578437560
| 68>     s 1 
| 69>      1       1.8497377593      1.0000000000
| 70>     s 1 
| 71>      1       0.9308299926      1.0000000000
| 72>     s 1 
| 73>      1       0.2867302646      1.0000000000
| 74>     s 1 
| 75>      1       0.1097921217      1.0000000000
| 76>     p 3 
| 77>      1     253.9902449700      0.0003988866
| 78>      2       9.8712718748      1.1685916546
| 79>      3       7.4489893496     -2.1066457855
| 80>     p 4 
| 81>      1       8.9027395407     -0.1226383198
| 82>      2       5.7414667465      0.2337889888
| 83>      3       1.9896329823      0.5886127763
| 84>      4       0.9470321082      0.3514926778
| 85>     p 1 
| 86>      1       0.3707113628      1.0000000000
| 87>     p 1 
| 88>      1       0.1555470609      1.0000000000
| 89>     p 1 
| 90>      1       0.0611737208      1.0000000000
| 91>   end
| 92>   NewAuxGTO 84
| 93>     S 1
| 94>      1 1310.72 1.0
| 95>     S 1
| 96>      1  655.36 1.0
| 97>     S 1
| 98>      1  327.68 1.0
| 99>     S 1
|100>      1  163.84 1.0
|101>     S 1
|102>      1   81.82 1.0
|103>     S 1
|104>      1   40.96 1.0
|105>     S 1
|106>      1   20.48 1.0
|107>     S 1
|108>      1   10.24 1.0
|109>     S 1
|110>      1    5.12 1.0
|111>     S 1
|112>      1    2.56 1.0
|113>     S 1
|114>      1    1.28 1.0
|115>     S 1
|116>      1    0.64 1.0
|117>     S 1
|118>      1    0.32 1.0
|119>     S 1
|120>      1    0.16 1.0
|121>     S 1
|122>      1    0.08 1.0
|123>     S 1
|124>      1    0.04 1.0
|125>     S 1
|126>      1    0.02 1.0
|127>     S 1
|128>      1    0.01 1.0
|129>   end
|130> end
|131> 
|132> * xyz 0 3
|133> 84  0.0 0.0 0.0
|134> *
|135> 
|136> 
|137>                          ****END OF INPUT****
================================================================================

                       ****************************
                       * Single Point Calculation *
                       ****************************

---------------------------------
CARTESIAN COORDINATES (ANGSTROEM)
---------------------------------
  Po     0.000000    0.000000    0.000000

----------------------------
CARTESIAN COORDINATES (A.U.)
----------------------------
  NO LB      ZA    FRAG     MASS         X           Y           Z
   0 Po   24.0000*   0   209.000    0.000000    0.000000    0.000000
* core charge reduced due to ECP

--------------------------------
INTERNAL COORDINATES (ANGSTROEM)
--------------------------------
 Po     0   0   0     0.000000000000     0.00000000     0.00000000

---------------------------
INTERNAL COORDINATES (A.U.)
---------------------------
 Po     0   0   0     0.000000000000     0.00000000     0.00000000

---------------------
BASIS SET INFORMATION
---------------------
There are 1 groups of distinct atoms

 Group   1 Type Po  : 11s10p contracted to 6s5p pattern {521111/34111}

Atom   0Po   basis set group =>   1
---------------------------------
AUXILIARY/J BASIS SET INFORMATION
---------------------------------
There are 1 groups of distinct atoms

 Group   1 Type Po  : 18s contracted to 18s pattern {111111111111111111}

Atom   0Po   basis set group =>   1
-------------------------
ECP PARAMETER INFORMATION
-------------------------

 Group 1, Type Po ECP (replacing 60 core electrons, lmax=3)

Atom   0Po   ECP group =>   1

------------------------------------------------------------------------------
                           ORCA GTO INTEGRAL CALCULATION
------------------------------------------------------------------------------

                         BASIS SET STATISTICS AND STARTUP INFO

 # of primitive gaussian shells          ...   21
 # of primitive gaussian functions       ...   41
 # of contracted shells                  ...   11
 # of contracted basis functions         ...   21
 Highest angular momentum                ...    1
 Maximum contraction depth               ...    5
 Integral package used                   ... LIBINT
 Integral threshhold            Thresh   ...  1.000e-10
 Primitive cut-off              TCut     ...  1.000e-11
 Storage cut-off                TCutStore... -1.000e+00
 Buffer length                           ... 1048576 integrals/buffer
 Generate file with integrals 4 distinct ...false


------------------------------ INTEGRAL EVALUATION ----------------------------


 * One electron integrals 

   ECP integrals                         ... done
 Pre-screening matrix                    ... done
 Shell pair data                         ... done (   0.000 sec)
 Statistics run                          ... done
 Maximum amount of storage needed        ...     0 MB
 Maximum amount of storage dedicated     ... 500000 MB
 Beginning two electron integral evaluation:
 Starting repulsion integrals
  <ss|ss>  ...          231 b.         0 skpd (  0.0%)     0.000 s. (  0.000 ms/b)
  <ss|sp>  ...          630 b.         0 skpd (  0.0%)     0.000 s. (  0.000 ms/b)
  <ss|pp>  ...          315 b.         0 skpd (  0.0%)     0.000 s. (  0.001 ms/b)
  <sp|sp>  ...          465 b.         0 skpd (  0.0%)     0.001 s. (  0.001 ms/b)
  <sp|pp>  ...          450 b.         0 skpd (  0.0%)     0.001 s. (  0.003 ms/b)
  <pp|pp>  ...          120 b.         0 skpd (  0.0%)     0.001 s. (  0.009 ms/b)


                                      INTEGRAL STATISTICS

Integral type statistics:
 Number of integrals retained            ...      26796 
 One   Center Integrals retained         ...      26796 (100.0%)
 Two   Center Integrals retained         ...          0 (  0.0%)
 Three Center Integrals retained         ...          0 (  0.0%)
 Four  Center Integrals retained         ...          0 (  0.0%)

Storage statistics:
 Number of char integrals                ...          0 (  0.0%)
 Number of short int integrals           ...          0 (  0.0%)
 Number of double/float integrals        ...      26796 (100.0%)
 Amount of memory used                   ...          0 MB
 Amount of memory estimated              ...          0 MB ( 95.2%)

Prescreening statistics:
 Total number of shell quadruples        ...       2211 
 Number of skipped shell quadruples      ...          0 (  0.0%)
 # of negligible batches done            ...          0 (  0.0%)

Timings:
 Total evaluation time               ...     0.175 sec (   0.003 min)
 One electron matrix time            ...     0.016 sec (   0.000 min) =  9.1%
 Schwartz matrix evaluation time     ...     0.076 sec (   0.001 min) = 43.5%
 Statistics run                      ...     0.000 sec (   0.000 min) =  0.2%
 Repulsion integral time             ...     0.004 sec (   0.000 min) =  2.2%

-------------------------------------------------------------------------------
                                 ORCA SCF
-------------------------------------------------------------------------------

------------
SCF SETTINGS
------------
Hamiltonian:
 Ab initio Hamiltonian  Method          .... Hartree-Fock(GTOs)


General Settings:
 Integral files         IntName         .... 84_Po_atom84
 Hartree-Fock type      HFTyp           .... ROHF
 Total Charge           Charge          ....    0
 Multiplicity           Mult            ....    3
 Number of Electrons    NEL             ....   24
 Basis Dimension        Dim             ....   21
 Nuclear Repulsion      ENuc            ....      0.0000000000 Eh

Convergence Acceleration:
 DIIS                   CNVDIIS         .... on
   Start iteration      DIISMaxIt       ....    12
   Startup error        DIISStart       ....  0.200000
   # of expansion vecs  DIISMaxEq       ....     5
   Bias factor          DIISBfac        ....   1.050
   Max. coefficient     DIISMaxC        ....  10.000
 Newton-Raphson         CNVNR           .... off
 SOSCF                  CNVSOSCF        .... off
 Level Shifting         CNVShift        .... on
   Level shift para.    LevelShift      ....    1.0000
   Turn off err/grad.   ShiftErr        ....    0.0010
 Zerner damping         CNVZerner       .... off
 Static damping         CNVDamp         .... on
   Fraction old density DampFac         ....    0.7000
   Max. Damping (<1)    DampMax         ....    0.9800
   Min. Damping (>=0)   DampMin         ....    0.0000
   Turn off err/grad.   DampErr         ....    0.1000
 Fernandez-Rico         CNVRico         .... off

SCF Procedure:
 Maximum # iterations   MaxIter         ....  1000
 SCF integral mode      SCFMode         .... Conventional
 Integral Threshold     Thresh          ....  1.000e-10 Eh
 Primitive CutOff       TCut            ....  1.000e-11 Eh
 Integral Buffer length BufferLength    .... 1048576
 Integral index format  IndFormat       ....     0
 Integral value format  ValFormat       ....     0
 Integral Storage       Thresh          ....  1.000e-10 Eh

Convergence Tolerance:
 Convergence Check Mode ConvCheckMode   .... Total+1el-Energy
 Convergence forced     ConvForced      .... 0
 Energy Change          TolE            ....  1.000e-06 Eh
 1-El. energy change                    ....  1.000e-03 Eh
 DIIS Error             TolErr          ....  1.000e-06


Diagonalization of the overlap matrix:
Smallest eigenvalue                        ... 7.265e-03
Time for diagonalization                   ...    0.000 sec
Threshold for overlap eigenvalues          ... 1.000e-08
Number of eigenvalues below threshold      ... 0
Time for construction of square roots      ...    0.002 sec
Total time needed                          ...    0.002 sec

--------------------
INITIAL GUESS: HCORE
--------------------
AVERAGE-CONFIGURATION (SAHF) CASE FOUND

-------------------
FINAL ROHF SETTINGS
-------------------
Number of operators             ... 2
  operator   0:  10 orbitals  20 electrons n(mue)= 2.000
  operator   1:   3 orbitals   4 electrons n(mue)= 1.333
Vector coupling coefficients a and b (Zerner convention):
   1.000    1.000           1.000    1.000 
   1.000    0.938           1.000    1.125 

                      -----------------
                      INTIAL GUESS DONE 
                      -----------------

 InCore treatment chosen:
   Memory dedicated               ...    1024 MB
   Memory needed                  ...      0 MB
   Number of tiny    integrals    ...       0
   Number of small   integrals    ...       0
   Number of regular integrals    ...   26796

--------------
SCF ITERATIONS
--------------
ITER       Energy         Delta-E        Max-DP      RMS-DP      [F,P]     Damp
  0   -207.2511769175   0.000000000000 5.47517443  0.42351819  1.3337547 0.7000
  1   -208.1268005411  -0.875623623617 5.36560655  0.41264588  0.2375168 0.7000
                            ****Activating DIIS****
  2   -208.4903267384  -0.363526197269 5.04010590  0.38618419  0.1975240 0.7000
  3   -208.8371459484  -0.346819210050 4.15335274  0.31865617  0.1562473 0.7000
  4   -209.0818346671  -0.244688718679 3.69995981  0.28767525  0.1293596 0.7000
  5   -209.3163126875  -0.234478020377 9.47980052  0.75069705  0.0553538 0.0000
  6   -209.6842863467  -0.367973659219 0.04445538  0.00387131  0.0298427 0.0000
  7   -209.6857098861  -0.001423539393 0.14869309  0.01388488  0.0218371 0.0000
  8   -209.6881428433  -0.002432957268 0.11433904  0.01130206  0.0117730 0.0000
  9   -209.6889479884  -0.000805145015 0.09181433  0.00922489  0.0104744 0.0000
 10   -209.6892843160  -0.000336327687 0.05901443  0.00593308  0.0090889 0.0000
 11   -209.6894889490  -0.000204632944 0.02732584  0.00300715  0.0067064 0.0000
 12   -209.6896139891  -0.000125040158 0.01320947  0.00106740  0.0041040 0.0000
 13   -209.6896701214  -0.000056132237 0.01306990  0.00150980  0.0020957 0.0000
 14   -209.6896915508  -0.000021429431 0.00984771  0.00102159  0.0006618 0.0000
 15   -209.6896942603  -0.000002709464 0.00209453  0.00021012  0.0001776 0.0000
                 **** Energy Check signals convergence ****

               *****************************************************
               *                     SUCCESS                       *
               *           SCF CONVERGED AFTER  16 CYCLES          *
               *****************************************************


----------------
TOTAL SCF ENERGY
----------------

Total Energy       :         -209.68969439 Eh           -5705.94667 eV

Components:
Nuclear Repulsion  :            0.00000000 Eh               0.00000 eV
Electronic Energy  :         -209.68969439 Eh           -5705.94667 eV
One Electron Energy:         -334.46215423 Eh           -9101.17791 eV
Two Electron Energy:          124.77245984 Eh            3395.23124 eV

Virial components:
Potential Energy   :         -269.12854124 Eh           -7323.35992 eV
Kinetic Energy     :           59.43884685 Eh            1617.41325 eV
Virial Ratio       :            4.52782238


---------------
SCF CONVERGENCE
---------------

  Last Energy change         ...   -1.2483e-07  Tolerance :   1.0000e-06
  Last MAX-Density change    ...    3.9972e-04  Tolerance :   1.0000e-05
  Last RMS-Density change    ...    4.3510e-05  Tolerance :   1.0000e-06
  Last DIIS Error            ...    9.8580e-05  Tolerance :   1.0000e-06

             **** THE GBW FILE WAS UPDATED (84_Po_atom84.gbw) ****
             **** DENSITY FILE WAS UPDATED (84_Po_atom84.scfp) ****
             **** ENERGY FILE WAS UPDATED (84_Po_atom84.en.tmp) ****
             **** THE GBW FILE WAS UPDATED (84_Po_atom84.gbw) ****
             **** DENSITY FILE WAS UPDATED (84_Po_atom84.scfp) ****
----------------
ORBITAL ENERGIES
----------------

  NO   OCC          E(Eh)            E(eV) 
   0   2.0000     -10.746774      -292.4346 
   1   2.0000      -7.823465      -212.8873 
   2   2.0000      -7.823465      -212.8873 
   3   2.0000      -7.819568      -212.7813 
   4   2.0000      -2.767153       -75.2981 
   5   2.0000      -1.696350       -46.1600 
   6   2.0000      -1.696350       -46.1600 
   7   2.0000      -1.687242       -45.9122 
   8   2.0000      -0.501646       -13.6505 
   9   2.0000      -0.214126        -5.8267 
  10   1.3333      -0.241200        -6.5634 
  11   1.3333      -0.241200        -6.5634 
  12   1.3333       0.958147        26.0725 
  13   0.0000       0.309453         8.4206 
  14   0.0000       0.309453         8.4206 
  15   0.0000       0.322550         8.7770 
  16   0.0000      27.264337       741.9003 
  17   0.0000      27.264337       741.9003 
  18   0.0000      27.266486       741.9588 
  19   0.0000      32.715757       890.2410 
  20   0.0000     110.570120      3008.7659 
CleanUpVectors: The p-vectors have cracked symmetry
CleanUpVectors: The p-vectors have cracked symmetry
CleanUpVectors: The p-vectors have cracked symmetry
CleanUpVectors: The p-vectors have cracked symmetry
CleanUpVectors: The p-vectors have cracked symmetry
CleanUpVectors: The p-vectors have cracked symmetry
CleanUpVectors: The p-vectors have cracked symmetry
CleanUpVectors: The p-vectors have cracked symmetry
CleanUpVectors: The p-vectors have cracked symmetry
CleanUpVectors: The p-vectors have cracked symmetry
CleanUpVectors: The p-vectors have cracked symmetry
CleanUpVectors: The p-vectors have cracked symmetry
CleanUpVectors: The p-vectors have cracked symmetry
CleanUpVectors: The p-vectors have cracked symmetry
CleanUpVectors: The p-vectors have cracked symmetry
--------------------------
ATOM BASIS FOR ELEMENT Po
--------------------------
 NewGTO Po
 S 11
    1       6744.821176500000         0.000081843775
    2        744.418925320000         0.000758759111
    3        131.040293090000         0.002347819670
    4         19.662021030000        -0.685101055682
    5         16.623025609000         0.979222019331
    6         23.094002965000         0.078660730179
    7          6.970739838100        -1.093656873513
    8          1.849737759300         1.268484516339
    9          0.930829992600         0.210589320029
   10          0.286730264600         0.002741697641
   11          0.109792121700        -0.000699446853
 P 21
    1        253.990244970000         0.000005458132
    2          9.871271874800         0.015990329099
    3          7.448989349600        -0.028826116696
    4        253.990244970000         0.000045576870
    5          9.871271874800         0.133523538654
    6          7.448989349600        -0.240705809307
    7        253.990244970000        -0.000149733214
    8          9.871271874800        -0.438663479674
    9          7.448989349600         0.790788268143
   10          8.902739540700        -0.005497702355
   11          5.741466746500         0.010480429578
   12          1.989632982300         0.026386677929
   13          0.947032108200         0.015756919416
   14          8.902739540700        -0.045907289857
   15          5.741466746500         0.087514399184
   16          1.989632982300         0.220335841027
   17          0.947032108200         0.131574505169
   18          8.902739540700         0.150818737387
   19          5.741466746500        -0.287510136825
   20          1.989632982300        -0.723867025216
   21          0.947032108200        -0.432260340429
 S 11
    1       6744.821176500000         0.000056355087
    2        744.418925320000         0.000522458010
    3        131.040293090000         0.001616635868
    4         19.662021030000        -0.471739356348
    5         16.623025609000         0.674261937403
    6         23.094002965000         0.063481572985
    7          6.970739838100        -0.882613960973
    8          1.849737759300         2.045867175666
    9          0.930829992600        -0.887776921752
   10          0.286730264600        -1.108337041591
   11          0.109792121700         0.152044829535
 P 21
    1        253.990244970000        -0.000016438740
    2          9.871271874800        -0.048159488880
    3          7.448989349600         0.086818166021
    4        253.990244970000         0.000034500139
    5          9.871271874800         0.101072771103
    6          7.448989349600        -0.182206099483
    7        253.990244970000        -0.000075955881
    8          9.871271874800        -0.222522914377
    9          7.448989349600         0.401146934349
   10          8.902739540700         0.021397032107
   11          5.741466746500        -0.040789783387
   12          1.989632982300        -0.102696828313
   13          0.947032108200        -0.061325857403
   14          8.902739540700        -0.044906152012
   15          5.741466746500         0.085605901050
   16          1.989632982300         0.215530796994
   17          0.947032108200         0.128705152240
   18          8.902739540700         0.098865873667
   19          5.741466746500        -0.188470884705
   20          1.989632982300        -0.474514951570
   21          0.947032108200        -0.283358665831
 S 11
    1       6744.821176500000         0.000763112034
    2        744.418925320000         0.007074676190
    3        131.040293090000         0.021891089917
    4         19.662021030000        -6.387887878230
    5         16.623025609000         9.130274162477
    6         23.094002965000         0.376090415470
    7          6.970739838100        -5.228960715245
    8          1.849737759300         3.946926382303
    9          0.930829992600        -2.878317791665
   10          0.286730264600         0.968811506371
   11          0.109792121700        -0.321746368478
 S 11
    1       6744.821176500000         0.000701771340
    2        744.418925320000         0.006505997511
    3        131.040293090000         0.020131433960
    4         19.662021030000        -5.874414816864
    5         16.623025609000         8.396361809178
    6         23.094002965000         0.178784193008
    7          6.970739838100        -2.485720144121
    8          1.849737759300         1.247161638520
    9          0.930829992600        -0.845242293751
   10          0.286730264600         0.272834235094
   11          0.109792121700        -0.090089030071
 P 21
    1         19.662021030000         0.000000002518
    2         16.623025609000        -0.000000003914
    3          6.970739838100         0.000000008687
    4          1.849737759300        -0.000000042600
    5        253.990244970000        -0.000072235963
    6          9.871271874800        -0.211624916403
    7          7.448989349600         0.381500874571
    8        253.990244970000         0.000032839836
    9          9.871271874800         0.096208692788
   10          7.448989349600        -0.173437518907
   11        253.990244970000         0.000030549934
   12          9.871271874800         0.089500117542
   13          7.448989349600        -0.161343823293
   14          8.902739540700         0.094023944943
   15          5.741466746500        -0.179240575434
   16          1.989632982300        -0.451275713511
   17          0.947032108200        -0.269481253813
   18          8.902739540700        -0.042745065125
   19          5.741466746500         0.081486158389
   20          1.989632982300         0.205158481438
   21          0.947032108200         0.122511278922
 P 21
    1        253.990244970000        -0.000012241753
    2          9.871271874800        -0.035863854174
    3          7.448989349600         0.064652555878
    4        253.990244970000         0.000016216409
    5          9.871271874800         0.047508140199
    6          7.448989349600        -0.085643965480
    7        253.990244970000        -0.000027496289
    8          9.871271874800        -0.080554056401
    9          7.448989349600         0.145216562821
   10          8.902739540700         0.016966201352
   11          5.741466746500        -0.032343162108
   12          1.989632982300        -0.081430689017
   13          0.947032108200        -0.048626689888
   14          8.902739540700        -0.022474792268
   15          5.741466746500         0.042844348866
   16          1.989632982300         0.107869627496
   17          0.947032108200         0.064414816920
   18          8.902739540700         0.038107904800
   19          5.741466746500        -0.072646205062
   20          1.989632982300        -0.182902046279
   21          0.947032108200        -0.109220751927
 P 21
    1       6744.821176500000         0.000000000003
    2        744.418925320000         0.000000000079
    3        131.040293090000         0.000000000581
    4         19.662021030000        -0.000000437368
    5         16.623025609000         0.000000679881
    6         23.094002965000         0.000000056824
    7          6.970739838100        -0.000001438032
    8          1.849737759300         0.000010256399
    9          0.930829992600        -0.000018192130
   10          0.286730264600         0.000020534528
   11          0.109792121700        -0.000014262026
   12        253.990244970000        -0.000037932135
   13          9.871271874800        -0.111127262974
   14          7.448989349600         0.200331552324
   15        253.990244970000         0.000015413735
   16          9.871271874800         0.045156597831
   17          7.448989349600        -0.081404788519
   18        253.990244970000         0.000021658826
   19          9.871271874800         0.063452428089
   20          7.448989349600        -0.114387082680
   21          8.902739540700         0.053641038122
 P 21
    1         19.662021030000        -0.000000003718
    2         16.623025609000         0.000000005779
    3        253.990244970000        -0.000347339685
    4          9.871271874800        -1.017578072635
    5          7.448989349600         1.834410291820
    6        253.990244970000         0.000312385918
    7          9.871271874800         0.915176336636
    8          7.448989349600        -1.649808438195
    9        253.990244970000        -0.000326987038
   10          9.871271874800        -0.957952269725
   11          7.448989349600         1.726921550211
   12          8.902739540700         0.071720879403
   13          5.741466746500        -0.136723594215
   14          1.989632982300        -0.344230302674
   15          0.947032108200        -0.205558621455
   16          8.902739540700        -0.064503406115
   17          5.741466746500         0.122964715387
   18          1.989632982300         0.309589441668
   19          0.947032108200         0.184872680737
   20          8.902739540700         0.067518336979
   21          5.741466746500        -0.128712165607
 end
  // -----------------------------------------------
  // The basis set
  // -----------------------------------------------
  BAS[ATNO] = new BFNGauss[NSH];
  // Basis function   1 L = s
  InitBFNGauss(BAS[ATNO][  0]);
  BAS[ATNO][  0].l  = 0;
  BAS[ATNO][  0].ng = 11;
  BAS[ATNO][  0].a[  0] =      6744.821176500000;     BAS[ATNO][  0].d[  0] =         0.000081843775;
  BAS[ATNO][  0].a[  1] =       744.418925320000;     BAS[ATNO][  0].d[  1] =         0.000758759111;
  BAS[ATNO][  0].a[  2] =       131.040293090000;     BAS[ATNO][  0].d[  2] =         0.002347819670;
  BAS[ATNO][  0].a[  3] =        19.662021030000;     BAS[ATNO][  0].d[  3] =        -0.685101055682;
  BAS[ATNO][  0].a[  4] =        16.623025609000;     BAS[ATNO][  0].d[  4] =         0.979222019331;
  BAS[ATNO][  0].a[  5] =        23.094002965000;     BAS[ATNO][  0].d[  5] =         0.078660730179;
  BAS[ATNO][  0].a[  6] =         6.970739838100;     BAS[ATNO][  0].d[  6] =        -1.093656873513;
  BAS[ATNO][  0].a[  7] =         1.849737759300;     BAS[ATNO][  0].d[  7] =         1.268484516339;
  BAS[ATNO][  0].a[  8] =         0.930829992600;     BAS[ATNO][  0].d[  8] =         0.210589320029;
  BAS[ATNO][  0].a[  9] =         0.286730264600;     BAS[ATNO][  0].d[  9] =         0.002741697641;
  BAS[ATNO][  0].a[ 10] =         0.109792121700;     BAS[ATNO][  0].d[ 10] =        -0.000699446853;

  // Basis function   2 L = p
  InitBFNGauss(BAS[ATNO][  1]);
  BAS[ATNO][  1].l  = 1;
  BAS[ATNO][  1].ng = 21;
  BAS[ATNO][  1].a[  0] =       253.990244970000;     BAS[ATNO][  1].d[  0] =         0.000005458132;
  BAS[ATNO][  1].a[  1] =         9.871271874800;     BAS[ATNO][  1].d[  1] =         0.015990329099;
  BAS[ATNO][  1].a[  2] =         7.448989349600;     BAS[ATNO][  1].d[  2] =        -0.028826116696;
  BAS[ATNO][  1].a[  3] =       253.990244970000;     BAS[ATNO][  1].d[  3] =         0.000045576870;
  BAS[ATNO][  1].a[  4] =         9.871271874800;     BAS[ATNO][  1].d[  4] =         0.133523538654;
  BAS[ATNO][  1].a[  5] =         7.448989349600;     BAS[ATNO][  1].d[  5] =        -0.240705809307;
  BAS[ATNO][  1].a[  6] =       253.990244970000;     BAS[ATNO][  1].d[  6] =        -0.000149733214;
  BAS[ATNO][  1].a[  7] =         9.871271874800;     BAS[ATNO][  1].d[  7] =        -0.438663479674;
  BAS[ATNO][  1].a[  8] =         7.448989349600;     BAS[ATNO][  1].d[  8] =         0.790788268143;
  BAS[ATNO][  1].a[  9] =         8.902739540700;     BAS[ATNO][  1].d[  9] =        -0.005497702355;
  BAS[ATNO][  1].a[ 10] =         5.741466746500;     BAS[ATNO][  1].d[ 10] =         0.010480429578;
  BAS[ATNO][  1].a[ 11] =         1.989632982300;     BAS[ATNO][  1].d[ 11] =         0.026386677929;
  BAS[ATNO][  1].a[ 12] =         0.947032108200;     BAS[ATNO][  1].d[ 12] =         0.015756919416;
  BAS[ATNO][  1].a[ 13] =         8.902739540700;     BAS[ATNO][  1].d[ 13] =        -0.045907289857;
  BAS[ATNO][  1].a[ 14] =         5.741466746500;     BAS[ATNO][  1].d[ 14] =         0.087514399184;
  BAS[ATNO][  1].a[ 15] =         1.989632982300;     BAS[ATNO][  1].d[ 15] =         0.220335841027;
  BAS[ATNO][  1].a[ 16] =         0.947032108200;     BAS[ATNO][  1].d[ 16] =         0.131574505169;
  BAS[ATNO][  1].a[ 17] =         8.902739540700;     BAS[ATNO][  1].d[ 17] =         0.150818737387;
  BAS[ATNO][  1].a[ 18] =         5.741466746500;     BAS[ATNO][  1].d[ 18] =        -0.287510136825;
  BAS[ATNO][  1].a[ 19] =         1.989632982300;     BAS[ATNO][  1].d[ 19] =        -0.723867025216;
  BAS[ATNO][  1].a[ 20] =         0.947032108200;     BAS[ATNO][  1].d[ 20] =        -0.432260340429;

  // Basis function   3 L = s
  InitBFNGauss(BAS[ATNO][  2]);
  BAS[ATNO][  2].l  = 0;
  BAS[ATNO][  2].ng = 11;
  BAS[ATNO][  2].a[  0] =      6744.821176500000;     BAS[ATNO][  2].d[  0] =         0.000056355087;
  BAS[ATNO][  2].a[  1] =       744.418925320000;     BAS[ATNO][  2].d[  1] =         0.000522458010;
  BAS[ATNO][  2].a[  2] =       131.040293090000;     BAS[ATNO][  2].d[  2] =         0.001616635868;
  BAS[ATNO][  2].a[  3] =        19.662021030000;     BAS[ATNO][  2].d[  3] =        -0.471739356348;
  BAS[ATNO][  2].a[  4] =        16.623025609000;     BAS[ATNO][  2].d[  4] =         0.674261937403;
  BAS[ATNO][  2].a[  5] =        23.094002965000;     BAS[ATNO][  2].d[  5] =         0.063481572985;
  BAS[ATNO][  2].a[  6] =         6.970739838100;     BAS[ATNO][  2].d[  6] =        -0.882613960973;
  BAS[ATNO][  2].a[  7] =         1.849737759300;     BAS[ATNO][  2].d[  7] =         2.045867175666;
  BAS[ATNO][  2].a[  8] =         0.930829992600;     BAS[ATNO][  2].d[  8] =        -0.887776921752;
  BAS[ATNO][  2].a[  9] =         0.286730264600;     BAS[ATNO][  2].d[  9] =        -1.108337041591;
  BAS[ATNO][  2].a[ 10] =         0.109792121700;     BAS[ATNO][  2].d[ 10] =         0.152044829535;

  // Basis function   4 L = p
  InitBFNGauss(BAS[ATNO][  3]);
  BAS[ATNO][  3].l  = 1;
  BAS[ATNO][  3].ng = 21;
  BAS[ATNO][  3].a[  0] =       253.990244970000;     BAS[ATNO][  3].d[  0] =         0.000016438740;
  BAS[ATNO][  3].a[  1] =         9.871271874800;     BAS[ATNO][  3].d[  1] =         0.048159488880;
  BAS[ATNO][  3].a[  2] =         7.448989349600;     BAS[ATNO][  3].d[  2] =        -0.086818166021;
  BAS[ATNO][  3].a[  3] =       253.990244970000;     BAS[ATNO][  3].d[  3] =        -0.000034500139;
  BAS[ATNO][  3].a[  4] =         9.871271874800;     BAS[ATNO][  3].d[  4] =        -0.101072771103;
  BAS[ATNO][  3].a[  5] =         7.448989349600;     BAS[ATNO][  3].d[  5] =         0.182206099483;
  BAS[ATNO][  3].a[  6] =       253.990244970000;     BAS[ATNO][  3].d[  6] =         0.000075955881;
  BAS[ATNO][  3].a[  7] =         9.871271874800;     BAS[ATNO][  3].d[  7] =         0.222522914377;
  BAS[ATNO][  3].a[  8] =         7.448989349600;     BAS[ATNO][  3].d[  8] =        -0.401146934349;
  BAS[ATNO][  3].a[  9] =         8.902739540700;     BAS[ATNO][  3].d[  9] =        -0.021397032107;
  BAS[ATNO][  3].a[ 10] =         5.741466746500;     BAS[ATNO][  3].d[ 10] =         0.040789783387;
  BAS[ATNO][  3].a[ 11] =         1.989632982300;     BAS[ATNO][  3].d[ 11] =         0.102696828313;
  BAS[ATNO][  3].a[ 12] =         0.947032108200;     BAS[ATNO][  3].d[ 12] =         0.061325857403;
  BAS[ATNO][  3].a[ 13] =         8.902739540700;     BAS[ATNO][  3].d[ 13] =         0.044906152012;
  BAS[ATNO][  3].a[ 14] =         5.741466746500;     BAS[ATNO][  3].d[ 14] =        -0.085605901050;
  BAS[ATNO][  3].a[ 15] =         1.989632982300;     BAS[ATNO][  3].d[ 15] =        -0.215530796994;
  BAS[ATNO][  3].a[ 16] =         0.947032108200;     BAS[ATNO][  3].d[ 16] =        -0.128705152240;
  BAS[ATNO][  3].a[ 17] =         8.902739540700;     BAS[ATNO][  3].d[ 17] =        -0.098865873667;
  BAS[ATNO][  3].a[ 18] =         5.741466746500;     BAS[ATNO][  3].d[ 18] =         0.188470884705;
  BAS[ATNO][  3].a[ 19] =         1.989632982300;     BAS[ATNO][  3].d[ 19] =         0.474514951570;
  BAS[ATNO][  3].a[ 20] =         0.947032108200;     BAS[ATNO][  3].d[ 20] =         0.283358665831;

  // Basis function   5 L = s
  InitBFNGauss(BAS[ATNO][  4]);
  BAS[ATNO][  4].l  = 0;
  BAS[ATNO][  4].ng = 11;
  BAS[ATNO][  4].a[  0] =      6744.821176500000;     BAS[ATNO][  4].d[  0] =         0.000763112034;
  BAS[ATNO][  4].a[  1] =       744.418925320000;     BAS[ATNO][  4].d[  1] =         0.007074676190;
  BAS[ATNO][  4].a[  2] =       131.040293090000;     BAS[ATNO][  4].d[  2] =         0.021891089917;
  BAS[ATNO][  4].a[  3] =        19.662021030000;     BAS[ATNO][  4].d[  3] =        -6.387887878230;
  BAS[ATNO][  4].a[  4] =        16.623025609000;     BAS[ATNO][  4].d[  4] =         9.130274162477;
  BAS[ATNO][  4].a[  5] =        23.094002965000;     BAS[ATNO][  4].d[  5] =         0.376090415470;
  BAS[ATNO][  4].a[  6] =         6.970739838100;     BAS[ATNO][  4].d[  6] =        -5.228960715245;
  BAS[ATNO][  4].a[  7] =         1.849737759300;     BAS[ATNO][  4].d[  7] =         3.946926382303;
  BAS[ATNO][  4].a[  8] =         0.930829992600;     BAS[ATNO][  4].d[  8] =        -2.878317791665;
  BAS[ATNO][  4].a[  9] =         0.286730264600;     BAS[ATNO][  4].d[  9] =         0.968811506371;
  BAS[ATNO][  4].a[ 10] =         0.109792121700;     BAS[ATNO][  4].d[ 10] =        -0.321746368478;

  // Basis function   6 L = s
  InitBFNGauss(BAS[ATNO][  5]);
  BAS[ATNO][  5].l  = 0;
  BAS[ATNO][  5].ng = 11;
  BAS[ATNO][  5].a[  0] =      6744.821176500000;     BAS[ATNO][  5].d[  0] =         0.000701771340;
  BAS[ATNO][  5].a[  1] =       744.418925320000;     BAS[ATNO][  5].d[  1] =         0.006505997511;
  BAS[ATNO][  5].a[  2] =       131.040293090000;     BAS[ATNO][  5].d[  2] =         0.020131433960;
  BAS[ATNO][  5].a[  3] =        19.662021030000;     BAS[ATNO][  5].d[  3] =        -5.874414816864;
  BAS[ATNO][  5].a[  4] =        16.623025609000;     BAS[ATNO][  5].d[  4] =         8.396361809178;
  BAS[ATNO][  5].a[  5] =        23.094002965000;     BAS[ATNO][  5].d[  5] =         0.178784193008;
  BAS[ATNO][  5].a[  6] =         6.970739838100;     BAS[ATNO][  5].d[  6] =        -2.485720144121;
  BAS[ATNO][  5].a[  7] =         1.849737759300;     BAS[ATNO][  5].d[  7] =         1.247161638520;
  BAS[ATNO][  5].a[  8] =         0.930829992600;     BAS[ATNO][  5].d[  8] =        -0.845242293751;
  BAS[ATNO][  5].a[  9] =         0.286730264600;     BAS[ATNO][  5].d[  9] =         0.272834235094;
  BAS[ATNO][  5].a[ 10] =         0.109792121700;     BAS[ATNO][  5].d[ 10] =        -0.090089030071;

  // Basis function   7 L = p
  InitBFNGauss(BAS[ATNO][  6]);
  BAS[ATNO][  6].l  = 1;
  BAS[ATNO][  6].ng = 21;
  BAS[ATNO][  6].a[  0] =        19.662021030000;     BAS[ATNO][  6].d[  0] =        -0.000000002518;
  BAS[ATNO][  6].a[  1] =        16.623025609000;     BAS[ATNO][  6].d[  1] =         0.000000003914;
  BAS[ATNO][  6].a[  2] =         6.970739838100;     BAS[ATNO][  6].d[  2] =        -0.000000008687;
  BAS[ATNO][  6].a[  3] =         1.849737759300;     BAS[ATNO][  6].d[  3] =         0.000000042600;
  BAS[ATNO][  6].a[  4] =       253.990244970000;     BAS[ATNO][  6].d[  4] =         0.000072235963;
  BAS[ATNO][  6].a[  5] =         9.871271874800;     BAS[ATNO][  6].d[  5] =         0.211624916403;
  BAS[ATNO][  6].a[  6] =         7.448989349600;     BAS[ATNO][  6].d[  6] =        -0.381500874571;
  BAS[ATNO][  6].a[  7] =       253.990244970000;     BAS[ATNO][  6].d[  7] =        -0.000032839836;
  BAS[ATNO][  6].a[  8] =         9.871271874800;     BAS[ATNO][  6].d[  8] =        -0.096208692788;
  BAS[ATNO][  6].a[  9] =         7.448989349600;     BAS[ATNO][  6].d[  9] =         0.173437518907;
  BAS[ATNO][  6].a[ 10] =       253.990244970000;     BAS[ATNO][  6].d[ 10] =        -0.000030549934;
  BAS[ATNO][  6].a[ 11] =         9.871271874800;     BAS[ATNO][  6].d[ 11] =        -0.089500117542;
  BAS[ATNO][  6].a[ 12] =         7.448989349600;     BAS[ATNO][  6].d[ 12] =         0.161343823293;
  BAS[ATNO][  6].a[ 13] =         8.902739540700;     BAS[ATNO][  6].d[ 13] =        -0.094023944943;
  BAS[ATNO][  6].a[ 14] =         5.741466746500;     BAS[ATNO][  6].d[ 14] =         0.179240575434;
  BAS[ATNO][  6].a[ 15] =         1.989632982300;     BAS[ATNO][  6].d[ 15] =         0.451275713511;
  BAS[ATNO][  6].a[ 16] =         0.947032108200;     BAS[ATNO][  6].d[ 16] =         0.269481253813;
  BAS[ATNO][  6].a[ 17] =         8.902739540700;     BAS[ATNO][  6].d[ 17] =         0.042745065125;
  BAS[ATNO][  6].a[ 18] =         5.741466746500;     BAS[ATNO][  6].d[ 18] =        -0.081486158389;
  BAS[ATNO][  6].a[ 19] =         1.989632982300;     BAS[ATNO][  6].d[ 19] =        -0.205158481438;
  BAS[ATNO][  6].a[ 20] =         0.947032108200;     BAS[ATNO][  6].d[ 20] =        -0.122511278922;

  // Basis function   8 L = p
  InitBFNGauss(BAS[ATNO][  7]);
  BAS[ATNO][  7].l  = 1;
  BAS[ATNO][  7].ng = 21;
  BAS[ATNO][  7].a[  0] =       253.990244970000;     BAS[ATNO][  7].d[  0] =         0.000012241753;
  BAS[ATNO][  7].a[  1] =         9.871271874800;     BAS[ATNO][  7].d[  1] =         0.035863854174;
  BAS[ATNO][  7].a[  2] =         7.448989349600;     BAS[ATNO][  7].d[  2] =        -0.064652555878;
  BAS[ATNO][  7].a[  3] =       253.990244970000;     BAS[ATNO][  7].d[  3] =        -0.000016216409;
  BAS[ATNO][  7].a[  4] =         9.871271874800;     BAS[ATNO][  7].d[  4] =        -0.047508140199;
  BAS[ATNO][  7].a[  5] =         7.448989349600;     BAS[ATNO][  7].d[  5] =         0.085643965480;
  BAS[ATNO][  7].a[  6] =       253.990244970000;     BAS[ATNO][  7].d[  6] =         0.000027496289;
  BAS[ATNO][  7].a[  7] =         9.871271874800;     BAS[ATNO][  7].d[  7] =         0.080554056401;
  BAS[ATNO][  7].a[  8] =         7.448989349600;     BAS[ATNO][  7].d[  8] =        -0.145216562821;
  BAS[ATNO][  7].a[  9] =         8.902739540700;     BAS[ATNO][  7].d[  9] =        -0.016966201352;
  BAS[ATNO][  7].a[ 10] =         5.741466746500;     BAS[ATNO][  7].d[ 10] =         0.032343162108;
  BAS[ATNO][  7].a[ 11] =         1.989632982300;     BAS[ATNO][  7].d[ 11] =         0.081430689017;
  BAS[ATNO][  7].a[ 12] =         0.947032108200;     BAS[ATNO][  7].d[ 12] =         0.048626689888;
  BAS[ATNO][  7].a[ 13] =         8.902739540700;     BAS[ATNO][  7].d[ 13] =         0.022474792268;
  BAS[ATNO][  7].a[ 14] =         5.741466746500;     BAS[ATNO][  7].d[ 14] =        -0.042844348866;
  BAS[ATNO][  7].a[ 15] =         1.989632982300;     BAS[ATNO][  7].d[ 15] =        -0.107869627496;
  BAS[ATNO][  7].a[ 16] =         0.947032108200;     BAS[ATNO][  7].d[ 16] =        -0.064414816920;
  BAS[ATNO][  7].a[ 17] =         8.902739540700;     BAS[ATNO][  7].d[ 17] =        -0.038107904800;
  BAS[ATNO][  7].a[ 18] =         5.741466746500;     BAS[ATNO][  7].d[ 18] =         0.072646205062;
  BAS[ATNO][  7].a[ 19] =         1.989632982300;     BAS[ATNO][  7].d[ 19] =         0.182902046279;
  BAS[ATNO][  7].a[ 20] =         0.947032108200;     BAS[ATNO][  7].d[ 20] =         0.109220751927;

  // Basis function   9 L = p
  InitBFNGauss(BAS[ATNO][  8]);
  BAS[ATNO][  8].l  = 1;
  BAS[ATNO][  8].ng = 21;
  BAS[ATNO][  8].a[  0] =      6744.821176500000;     BAS[ATNO][  8].d[  0] =         0.000000000003;
  BAS[ATNO][  8].a[  1] =       744.418925320000;     BAS[ATNO][  8].d[  1] =         0.000000000079;
  BAS[ATNO][  8].a[  2] =       131.040293090000;     BAS[ATNO][  8].d[  2] =         0.000000000581;
  BAS[ATNO][  8].a[  3] =        19.662021030000;     BAS[ATNO][  8].d[  3] =        -0.000000437368;
  BAS[ATNO][  8].a[  4] =        16.623025609000;     BAS[ATNO][  8].d[  4] =         0.000000679881;
  BAS[ATNO][  8].a[  5] =        23.094002965000;     BAS[ATNO][  8].d[  5] =         0.000000056824;
  BAS[ATNO][  8].a[  6] =         6.970739838100;     BAS[ATNO][  8].d[  6] =        -0.000001438032;
  BAS[ATNO][  8].a[  7] =         1.849737759300;     BAS[ATNO][  8].d[  7] =         0.000010256399;
  BAS[ATNO][  8].a[  8] =         0.930829992600;     BAS[ATNO][  8].d[  8] =        -0.000018192130;
  BAS[ATNO][  8].a[  9] =         0.286730264600;     BAS[ATNO][  8].d[  9] =         0.000020534528;
  BAS[ATNO][  8].a[ 10] =         0.109792121700;     BAS[ATNO][  8].d[ 10] =        -0.000014262026;
  BAS[ATNO][  8].a[ 11] =       253.990244970000;     BAS[ATNO][  8].d[ 11] =        -0.000037932135;
  BAS[ATNO][  8].a[ 12] =         9.871271874800;     BAS[ATNO][  8].d[ 12] =        -0.111127262974;
  BAS[ATNO][  8].a[ 13] =         7.448989349600;     BAS[ATNO][  8].d[ 13] =         0.200331552324;
  BAS[ATNO][  8].a[ 14] =       253.990244970000;     BAS[ATNO][  8].d[ 14] =         0.000015413735;
  BAS[ATNO][  8].a[ 15] =         9.871271874800;     BAS[ATNO][  8].d[ 15] =         0.045156597831;
  BAS[ATNO][  8].a[ 16] =         7.448989349600;     BAS[ATNO][  8].d[ 16] =        -0.081404788519;
  BAS[ATNO][  8].a[ 17] =       253.990244970000;     BAS[ATNO][  8].d[ 17] =         0.000021658826;
  BAS[ATNO][  8].a[ 18] =         9.871271874800;     BAS[ATNO][  8].d[ 18] =         0.063452428089;
  BAS[ATNO][  8].a[ 19] =         7.448989349600;     BAS[ATNO][  8].d[ 19] =        -0.114387082680;
  BAS[ATNO][  8].a[ 20] =         8.902739540700;     BAS[ATNO][  8].d[ 20] =         0.053641038122;

  // Basis function  10 L = p
  InitBFNGauss(BAS[ATNO][  9]);
  BAS[ATNO][  9].l  = 1;
  BAS[ATNO][  9].ng = 21;
  BAS[ATNO][  9].a[  0] =        19.662021030000;     BAS[ATNO][  9].d[  0] =        -0.000000003718;
  BAS[ATNO][  9].a[  1] =        16.623025609000;     BAS[ATNO][  9].d[  1] =         0.000000005779;
  BAS[ATNO][  9].a[  2] =       253.990244970000;     BAS[ATNO][  9].d[  2] =        -0.000347339685;
  BAS[ATNO][  9].a[  3] =         9.871271874800;     BAS[ATNO][  9].d[  3] =        -1.017578072635;
  BAS[ATNO][  9].a[  4] =         7.448989349600;     BAS[ATNO][  9].d[  4] =         1.834410291820;
  BAS[ATNO][  9].a[  5] =       253.990244970000;     BAS[ATNO][  9].d[  5] =         0.000312385918;
  BAS[ATNO][  9].a[  6] =         9.871271874800;     BAS[ATNO][  9].d[  6] =         0.915176336636;
  BAS[ATNO][  9].a[  7] =         7.448989349600;     BAS[ATNO][  9].d[  7] =        -1.649808438195;
  BAS[ATNO][  9].a[  8] =       253.990244970000;     BAS[ATNO][  9].d[  8] =        -0.000326987038;
  BAS[ATNO][  9].a[  9] =         9.871271874800;     BAS[ATNO][  9].d[  9] =        -0.957952269725;
  BAS[ATNO][  9].a[ 10] =         7.448989349600;     BAS[ATNO][  9].d[ 10] =         1.726921550211;
  BAS[ATNO][  9].a[ 11] =         8.902739540700;     BAS[ATNO][  9].d[ 11] =         0.071720879403;
  BAS[ATNO][  9].a[ 12] =         5.741466746500;     BAS[ATNO][  9].d[ 12] =        -0.136723594215;
  BAS[ATNO][  9].a[ 13] =         1.989632982300;     BAS[ATNO][  9].d[ 13] =        -0.344230302674;
  BAS[ATNO][  9].a[ 14] =         0.947032108200;     BAS[ATNO][  9].d[ 14] =        -0.205558621455;
  BAS[ATNO][  9].a[ 15] =         8.902739540700;     BAS[ATNO][  9].d[ 15] =        -0.064503406115;
  BAS[ATNO][  9].a[ 16] =         5.741466746500;     BAS[ATNO][  9].d[ 16] =         0.122964715387;
  BAS[ATNO][  9].a[ 17] =         1.989632982300;     BAS[ATNO][  9].d[ 17] =         0.309589441668;
  BAS[ATNO][  9].a[ 18] =         0.947032108200;     BAS[ATNO][  9].d[ 18] =         0.184872680737;
  BAS[ATNO][  9].a[ 19] =         8.902739540700;     BAS[ATNO][  9].d[ 19] =         0.067518336979;
  BAS[ATNO][  9].a[ 20] =         5.741466746500;     BAS[ATNO][  9].d[ 20] =        -0.128712165607;

-------------------------------------------
RADIAL EXPECTATION VALUES <R**-3> TO <R**3>
-------------------------------------------
   0 :     0.000000     1.940480     1.336338     0.805778     0.697488     0.647481
   1 :     2.221672     1.553837     1.194881     0.906440     0.889458     0.959917
   2 :     2.221672     1.553837     1.194881     0.906440     0.889458     0.959917
   3 :     2.222383     1.554162     1.195009     0.906334     0.889242     0.959506
   4 :     0.000000     0.710755     0.743038     1.578867     2.770566     5.280897
   5 :     0.470686     0.447094     0.596775     1.910043     3.979774     9.019555
   6 :     0.000000     0.204224     0.367334     3.264617    11.684418    44.566194
   7 :     0.000000     0.714423     0.666847     2.263393     6.901474    25.457605
   8 :     0.000000     7.979749     2.276454     0.582307     0.577443     1.167919
   9 :     0.000000    62.933604     6.207417     0.223108     0.086759     0.103705
  10 :     0.470686     0.447094     0.596775     1.910043     3.979774     9.019555
  11 :     0.473928     0.449334     0.598364     1.903902     3.949359     8.888789
  12 :     0.069870     0.100512     0.272298     4.202955    19.239834    94.622877
  13 :     0.074723     0.104427     0.276055     4.165157    18.923587    92.420936
  14 :     0.074723     0.104427     0.276055     4.165157    18.923587    92.420936
  15 :     0.107980     0.122753     0.275659     4.700525    25.615102   153.040492
  16 :     0.107980     0.122753     0.275659     4.700525    25.615102   153.040492
  17 :     0.109411     0.124289     0.277761     4.668911    25.329222   150.968370
  18 :    24.097448     6.914839     2.407349     0.550671     0.581799     1.606574
  19 :    24.097448     6.914839     2.407349     0.550671     0.581799     1.606574
  20 :    24.096915     6.914653     2.407289     0.550734     0.582063     1.607932
Making the total density                ... o.k.
o.k.
Initializing the integrals              ... done
Making exponents                        ... done
Making rho(0)                           ... done (         0.209633371)
Integral calculation                    ... Two index integrals                     ... done
Solving the equation system             ... done
atomic density will be written to file 84_Po_atom84.adf

-------
TIMINGS
-------

Total SCF time: 0 days 0 hours 0 min 0 sec 

Total time                  ....       0.542 sec
Sum of individual times     ....       0.175 sec  ( 32.4%)

Fock matrix formation       ....       0.125 sec  ( 23.0%)
Diagonalization             ....       0.022 sec  (  4.0%)
Density matrix formation    ....       0.000 sec  (  0.0%)
Population analysis         ....       0.000 sec  (  0.0%)
Initial guess               ....       0.000 sec  (  0.1%)
Orbital Transformation      ....       0.000 sec  (  0.0%)
Orbital Orthonormalization  ....       0.000 sec  (  0.0%)
DIIS solution               ....       0.028 sec  (  5.2%)

-------------------------   --------------------
FINAL SINGLE POINT ENERGY      -209.689694385101
-------------------------   --------------------


                            ***************************************
                            *     ORCA property calculations      *
                            ***************************************

                                    ---------------------
                                    Active property flags
                                    ---------------------
   (+) Dipole Moment


------------------------------------------------------------------------------
                       ORCA ELECTRIC PROPERTIES CALCULATION
------------------------------------------------------------------------------

Dipole Moment Calculation                       ... on
Quadrupole Moment Calculation                   ... off
Polarizability Calculation                      ... off
GBWName                                         ... 84_Po_atom84.gbw
Electron density file                           ... 84_Po_atom84.scfp
The origin for moment calculation is the CENTER OF MASS  = ( 0.000000,  0.000000  0.000000)

-------------
DIPOLE MOMENT
-------------
                                X             Y             Z
Electronic contribution:     -0.00000       0.00000      -0.00001
Nuclear contribution   :      0.00000       0.00000       0.00000
                        -----------------------------------------
Total Dipole Moment    :     -0.00000       0.00000      -0.00001
                        -----------------------------------------
Magnitude (a.u.)       :      0.00001
Magnitude (Debye)      :      0.00002



--------------------
Rotational spectrum 
--------------------
 
Rotational constants in cm-1:     0.000000     0.000000     0.000000 
Rotational constants in MHz :     0.000000     0.000000     0.000000 

 Dipole components along the rotational axes: 
x,y,z [a.u.] :    -0.000002     0.000002    -0.000007 
x,y,z [Debye]:    -0.000004     0.000004    -0.000018 

 

Timings for individual modules:

Sum of individual times         ...        0.789 sec (=   0.013 min)
GTO integral calculation        ...        0.227 sec (=   0.004 min)  28.8 %
SCF iterations                  ...        0.562 sec (=   0.009 min)  71.2 %
                             ****ORCA TERMINATED NORMALLY****
TOTAL RUN TIME: 0 days 0 hours 0 minutes 0 seconds 987 msec
