
                                 *****************
                                 * O   R   C   A *
                                 *****************

           --- An Ab Initio, DFT and Semiempirical electronic structure package ---

                  #######################################################
                  #                        -***-                        #
                  #          Department of theory and spectroscopy      #
                  #               Directorship: Frank Neese             #
                  #        Max Planck Institute fuer Kohlenforschung    #
                  #                Kaiser Wilhelm Platz 1               #
                  #                 D-45470 Muelheim/Ruhr               #
                  #                      Germany                        #
                  #                                                     #
                  #                  All rights reserved                #
                  #                        -***-                        #
                  #######################################################


                         Program Version 4.2.0 -  RELEASE  -


 With contributions from (in alphabetic order):
   Daniel Aravena         : Magnetic Suceptibility
   Michael Atanasov       : Ab Initio Ligand Field Theory (pilot matlab implementation)
   Alexander A. Auer      : GIAO ZORA, VPT2
   Ute Becker             : Parallelization
   Giovanni Bistoni       : ED, misc. LED, open-shell LED, HFLED
   Martin Brehm           : Molecular dynamics
   Dmytro Bykov           : SCF Hessian
   Vijay G. Chilkuri      : MRCI spin determinant printing, contributions to CSF-ICE
   Dipayan Datta          : RHF DLPNO-CCSD density
   Achintya Kumar Dutta   : EOM-CC, STEOM-CC
   Dmitry Ganyushin       : Spin-Orbit,Spin-Spin,Magnetic field MRCI
   Miquel Garcia          : C-PCM Hessian, Gaussian charge scheme
   Yang Guo               : DLPNO-NEVPT2, CIM, IAO-localization
   Andreas Hansen         : Spin unrestricted coupled pair/coupled cluster methods
   Benjamin Helmich-Paris : CASSCF linear response (MC-RPA)
   Lee Huntington         : MR-EOM, pCC
   Robert Izsak           : Overlap fitted RIJCOSX, COSX-SCS-MP3, EOM
   Christian Kollmar      : KDIIS, OOCD, Brueckner-CCSD(T), CCSD density
   Simone Kossmann        : Meta GGA functionals, TD-DFT gradient, OOMP2, MP2 Hessian
   Martin Krupicka        : AUTO-CI
   Lucas Lang             : DCDCAS
   Dagmar Lenk            : GEPOL surface, SMD
   Dimitrios Liakos       : Extrapolation schemes; Compound Job, initial MDCI parallelization
   Dimitrios Manganas     : Further ROCIS development; embedding schemes
   Dimitrios Pantazis     : SARC Basis sets
   Taras Petrenko         : DFT Hessian,TD-DFT gradient, ASA, ECA, R-Raman, ABS, FL, XAS/XES, NRVS
   Peter Pinski           : DLPNO-MP2, DLPNO-MP2 Gradient
   Christoph Reimann      : Effective Core Potentials
   Marius Retegan         : Local ZFS, SOC
   Christoph Riplinger    : Optimizer, TS searches, QM/MM, DLPNO-CCSD(T), (RO)-DLPNO pert. Triples
   Tobias Risthaus        : Range-separated hybrids, TD-DFT gradient, RPA, STAB
   Michael Roemelt        : Original ROCIS implementation
   Masaaki Saitow         : Open-shell DLPNO-CCSD energy and density
   Barbara Sandhoefer     : DKH picture change effects
   Avijit Sen             : IP-ROCIS
   Kantharuban Sivalingam : CASSCF convergence, NEVPT2, FIC-MRCI
   Bernardo de Souza      : ESD, SOC TD-DFT
   Georgi Stoychev        : AutoAux, RI-MP2 NMR
   Willem Van den Heuvel  : Paramagnetic NMR
   Boris Wezisla          : Elementary symmetry handling
   Frank Wennmohs         : Technical directorship


 We gratefully acknowledge several colleagues who have allowed us to
 interface, adapt or use parts of their codes:
   Stefan Grimme, W. Hujo, H. Kruse,             : VdW corrections, initial TS optimization,
                  C. Bannwarth                     DFT functionals, gCP, sTDA/sTD-DF
   Ed Valeev, F. Pavosevic, A. Kumar             : LibInt (2-el integral package), F12 methods
   Garnet Chan, S. Sharma, J. Yang, R. Olivares  : DMRG
   Ulf Ekstrom                                   : XCFun DFT Library
   Mihaly Kallay                                 : mrcc  (arbitrary order and MRCC methods)
   Andreas Klamt, Michael Diedenhofen            : otool_cosmo (COSMO solvation model)
   Jiri Pittner, Ondrej Demel                    : Mk-CCSD
   Frank Weinhold                                : gennbo (NPA and NBO analysis)
   Christopher J. Cramer and Donald G. Truhlar   : smd solvation model
   Lars Goerigk                                  : TD-DFT with DH, B97 family of functionals
   V. Asgeirsson, H. Jonsson                     : NEB implementation
   FAccTs GmbH                                   : IRC, NEB, NEB-TS, Multilevel, MM, QM/MM, CI optimization
   S Lehtola, MJT Oliveira, MAL Marques          : LibXC Library


 Your calculation uses the libint2 library for the computation of 2-el integrals
 For citations please refer to: http://libint.valeyev.net

 Your ORCA version has been built with support for libXC version: 4.2.3
 For citations please refer to: https://tddft.org/programs/libxc/

 This ORCA versions uses:
   CBLAS   interface :  Fast vector & matrix operations
   LAPACKE interface :  Fast linear algebra routines
   SCALAPACK package :  Parallel linear algebra routines


----- Orbital basis set information -----
Your calculation utilizes the basis: def2-SVP
   F. Weigend and R. Ahlrichs, Phys. Chem. Chem. Phys. 7, 3297 (2005).

----- AuxJ basis set information -----
Your calculation utilizes the auxiliary basis: def2/J
   F. Weigend, Phys. Chem. Chem. Phys. 8, 1057 (2006).

================================================================================
                                        WARNINGS
                       Please study these warnings very carefully!
================================================================================


INFO   : the flag for use of LIBINT has been found!

================================================================================
                                       INPUT FILE
================================================================================
NAME = 85_At_atom85.inp
|  1> # input to generate an atomic fitting density for At
|  2> # this file is use internally by ORCA
|  3> #
|  4> # atomic ground state (S=2): 1s2 2s2 2p6 3s2 3p6 4s2 3d10 4p6 5s2 4d10 5p6 6s2 4f14 5d10 6p5 
|  5> #
|  6> ! RHF AllowRHF def2-SVP def2/J  NoMulliken NoLoewdin NoMayer NoPrintMOs 
|  7> 
|  8> %output print[p_atomdensfit] 2 end
|  9> 
| 10> %scf
| 11>   guess hcore
| 12>   maxiter 1000
| 13>   maxdisk 500000
| 14>   SCFMode Conventional
| 15>   lshift 1.000000
| 16>   hftyp rohf
| 17>   rohf_case sahf
| 18>   rohf_numop   2
| 19>   rohf_norb[1] 3
| 20>   rohf_nel[1]  5
| 21> end
| 22> 
| 23> %basis
| 24>   NewECP 85
| 25>     N_core 60
| 26>     lmax f
| 27>     s 7
| 28>       1      30.2008320000     49.9571580000  2
| 29>       2      13.6123060000    283.2103710000  2
| 30>       3       8.5293400000     62.2810520000  2
| 31>       4       5.8121630000    -19.8701980000  2
| 32>       5       5.7537150000    -26.4164520000  2
| 33>       6       2.5134720000     -0.9949700000  2
| 34>       7       2.5362610000     -1.4907010000  2
| 35>     p 8
| 36>       1      10.8540650000     71.9823710000  2
| 37>       2       9.4682290000    143.9035320000  2
| 38>       3       7.0311140000      4.8717590000  2
| 39>       4       6.1438580000      8.9830590000  2
| 40>       5       5.8121630000    -19.8701980000  2
| 41>       6       5.7537150000    -26.4164520000  2
| 42>       7       2.5134720000     -0.9949700000  2
| 43>       8       2.5362610000     -1.4907010000  2
| 44>     d 8
| 45>       1       8.3135150000     36.3632370000  2
| 46>       2       7.9989650000     54.5489700000  2
| 47>       3       5.1799660000      9.7762850000  2
| 48>       4       4.9422260000     14.2647550000  2
| 49>       5       5.8121630000    -19.8701980000  2
| 50>       6       5.7537150000    -26.4164520000  2
| 51>       7       2.5134720000     -0.9949700000  2
| 52>       8       2.5362610000     -1.4907010000  2
| 53>     f 4
| 54>       1       5.8121630000     19.8701980000  2
| 55>       2       5.7537150000     26.4164520000  2
| 56>       3       2.5134720000      0.9949700000  2
| 57>       4       2.5362610000      1.4907010000  2
| 58>   end
| 59>   NewGTO 85
| 60>     s 5 
| 61>      1    3635.9809356000      0.0005061663
| 62>      2     537.6412982300      0.0030580201
| 63>      3      91.6000307560      0.0103842563
| 64>      4      20.2000058040     -2.2052996426
| 65>      5      16.8938738240      3.1573342085
| 66>     s 2 
| 67>      1      18.1772169380     -0.1521964109
| 68>      2       7.2317852082      1.1274071816
| 69>     s 1 
| 70>      1       1.9496199739      1.0000000000
| 71>     s 1 
| 72>      1       0.9922669524      1.0000000000
| 73>     s 1 
| 74>      1       0.3195717888      1.0000000000
| 75>     s 1 
| 76>      1       0.1234253981      1.0000000000
| 77>     p 3 
| 78>      1     216.8151892800      0.0006470485
| 79>      2      10.5922981150      0.8646381039
| 80>      3       7.4596585430     -1.8043415387
| 81>     p 4 
| 82>      1       8.9484156471     -0.1382094842
| 83>      2       5.9694592464      0.2490056159
| 84>      3       2.1099088209      0.5861582250
| 85>      4       1.0236370373      0.3503576874
| 86>     p 1 
| 87>      1       0.4218635656      1.0000000000
| 88>     p 1 
| 89>      1       0.1775713227      1.0000000000
| 90>     p 1 
| 91>      1       0.0696708869      1.0000000000
| 92>   end
| 93>   NewAuxGTO 85
| 94>     S 1
| 95>      1 1310.72 1.0
| 96>     S 1
| 97>      1  655.36 1.0
| 98>     S 1
| 99>      1  327.68 1.0
|100>     S 1
|101>      1  163.84 1.0
|102>     S 1
|103>      1   81.82 1.0
|104>     S 1
|105>      1   40.96 1.0
|106>     S 1
|107>      1   20.48 1.0
|108>     S 1
|109>      1   10.24 1.0
|110>     S 1
|111>      1    5.12 1.0
|112>     S 1
|113>      1    2.56 1.0
|114>     S 1
|115>      1    1.28 1.0
|116>     S 1
|117>      1    0.64 1.0
|118>     S 1
|119>      1    0.32 1.0
|120>     S 1
|121>      1    0.16 1.0
|122>     S 1
|123>      1    0.08 1.0
|124>     S 1
|125>      1    0.04 1.0
|126>     S 1
|127>      1    0.02 1.0
|128>     S 1
|129>      1    0.01 1.0
|130>   end
|131> end
|132> 
|133> * xyz 0 2
|134> 85  0.0 0.0 0.0
|135> *
|136> 
|137> 
|138>                          ****END OF INPUT****
================================================================================

                       ****************************
                       * Single Point Calculation *
                       ****************************

---------------------------------
CARTESIAN COORDINATES (ANGSTROEM)
---------------------------------
  At     0.000000    0.000000    0.000000

----------------------------
CARTESIAN COORDINATES (A.U.)
----------------------------
  NO LB      ZA    FRAG     MASS         X           Y           Z
   0 At   25.0000*   0   210.000    0.000000    0.000000    0.000000
* core charge reduced due to ECP

--------------------------------
INTERNAL COORDINATES (ANGSTROEM)
--------------------------------
 At     0   0   0     0.000000000000     0.00000000     0.00000000

---------------------------
INTERNAL COORDINATES (A.U.)
---------------------------
 At     0   0   0     0.000000000000     0.00000000     0.00000000

---------------------
BASIS SET INFORMATION
---------------------
There are 1 groups of distinct atoms

 Group   1 Type At  : 11s10p contracted to 6s5p pattern {521111/34111}

Atom   0At   basis set group =>   1
---------------------------------
AUXILIARY/J BASIS SET INFORMATION
---------------------------------
There are 1 groups of distinct atoms

 Group   1 Type At  : 18s contracted to 18s pattern {111111111111111111}

Atom   0At   basis set group =>   1
-------------------------
ECP PARAMETER INFORMATION
-------------------------

 Group 1, Type At ECP (replacing 60 core electrons, lmax=3)

Atom   0At   ECP group =>   1

------------------------------------------------------------------------------
                           ORCA GTO INTEGRAL CALCULATION
------------------------------------------------------------------------------

                         BASIS SET STATISTICS AND STARTUP INFO

 # of primitive gaussian shells          ...   21
 # of primitive gaussian functions       ...   41
 # of contracted shells                  ...   11
 # of contracted basis functions         ...   21
 Highest angular momentum                ...    1
 Maximum contraction depth               ...    5
 Integral package used                   ... LIBINT
 Integral threshhold            Thresh   ...  1.000e-10
 Primitive cut-off              TCut     ...  1.000e-11
 Storage cut-off                TCutStore... -1.000e+00
 Buffer length                           ... 1048576 integrals/buffer
 Generate file with integrals 4 distinct ...false


------------------------------ INTEGRAL EVALUATION ----------------------------


 * One electron integrals 

   ECP integrals                         ... done
 Pre-screening matrix                    ... done
 Shell pair data                         ... done (   0.000 sec)
 Statistics run                          ... done
 Maximum amount of storage needed        ...     0 MB
 Maximum amount of storage dedicated     ... 500000 MB
 Beginning two electron integral evaluation:
 Starting repulsion integrals
  <ss|ss>  ...          231 b.         0 skpd (  0.0%)     0.000 s. (  0.000 ms/b)
  <ss|sp>  ...          630 b.         0 skpd (  0.0%)     0.000 s. (  0.000 ms/b)
  <ss|pp>  ...          315 b.         0 skpd (  0.0%)     0.000 s. (  0.001 ms/b)
  <sp|sp>  ...          465 b.         0 skpd (  0.0%)     0.001 s. (  0.001 ms/b)
  <sp|pp>  ...          450 b.         0 skpd (  0.0%)     0.001 s. (  0.002 ms/b)
  <pp|pp>  ...          120 b.         0 skpd (  0.0%)     0.001 s. (  0.006 ms/b)


                                      INTEGRAL STATISTICS

Integral type statistics:
 Number of integrals retained            ...      26796 
 One   Center Integrals retained         ...      26796 (100.0%)
 Two   Center Integrals retained         ...          0 (  0.0%)
 Three Center Integrals retained         ...          0 (  0.0%)
 Four  Center Integrals retained         ...          0 (  0.0%)

Storage statistics:
 Number of char integrals                ...          0 (  0.0%)
 Number of short int integrals           ...          0 (  0.0%)
 Number of double/float integrals        ...      26796 (100.0%)
 Amount of memory used                   ...          0 MB
 Amount of memory estimated              ...          0 MB ( 95.2%)

Prescreening statistics:
 Total number of shell quadruples        ...       2211 
 Number of skipped shell quadruples      ...          0 (  0.0%)
 # of negligible batches done            ...          0 (  0.0%)

Timings:
 Total evaluation time               ...     0.180 sec (   0.003 min)
 One electron matrix time            ...     0.022 sec (   0.000 min) = 12.3%
 Schwartz matrix evaluation time     ...     0.068 sec (   0.001 min) = 38.1%
 Statistics run                      ...     0.000 sec (   0.000 min) =  0.2%
 Repulsion integral time             ...     0.003 sec (   0.000 min) =  1.7%

-------------------------------------------------------------------------------
                                 ORCA SCF
-------------------------------------------------------------------------------

------------
SCF SETTINGS
------------
Hamiltonian:
 Ab initio Hamiltonian  Method          .... Hartree-Fock(GTOs)


General Settings:
 Integral files         IntName         .... 85_At_atom85
 Hartree-Fock type      HFTyp           .... ROHF
 Total Charge           Charge          ....    0
 Multiplicity           Mult            ....    2
 Number of Electrons    NEL             ....   25
 Basis Dimension        Dim             ....   21
 Nuclear Repulsion      ENuc            ....      0.0000000000 Eh

Convergence Acceleration:
 DIIS                   CNVDIIS         .... on
   Start iteration      DIISMaxIt       ....    12
   Startup error        DIISStart       ....  0.200000
   # of expansion vecs  DIISMaxEq       ....     5
   Bias factor          DIISBfac        ....   1.050
   Max. coefficient     DIISMaxC        ....  10.000
 Newton-Raphson         CNVNR           .... off
 SOSCF                  CNVSOSCF        .... off
 Level Shifting         CNVShift        .... on
   Level shift para.    LevelShift      ....    1.0000
   Turn off err/grad.   ShiftErr        ....    0.0010
 Zerner damping         CNVZerner       .... off
 Static damping         CNVDamp         .... on
   Fraction old density DampFac         ....    0.7000
   Max. Damping (<1)    DampMax         ....    0.9800
   Min. Damping (>=0)   DampMin         ....    0.0000
   Turn off err/grad.   DampErr         ....    0.1000
 Fernandez-Rico         CNVRico         .... off

SCF Procedure:
 Maximum # iterations   MaxIter         ....  1000
 SCF integral mode      SCFMode         .... Conventional
 Integral Threshold     Thresh          ....  1.000e-10 Eh
 Primitive CutOff       TCut            ....  1.000e-11 Eh
 Integral Buffer length BufferLength    .... 1048576
 Integral index format  IndFormat       ....     0
 Integral value format  ValFormat       ....     0
 Integral Storage       Thresh          ....  1.000e-10 Eh

Convergence Tolerance:
 Convergence Check Mode ConvCheckMode   .... Total+1el-Energy
 Convergence forced     ConvForced      .... 0
 Energy Change          TolE            ....  1.000e-06 Eh
 1-El. energy change                    ....  1.000e-03 Eh
 DIIS Error             TolErr          ....  1.000e-06


Diagonalization of the overlap matrix:
Smallest eigenvalue                        ... 6.574e-03
Time for diagonalization                   ...    0.000 sec
Threshold for overlap eigenvalues          ... 1.000e-08
Number of eigenvalues below threshold      ... 0
Time for construction of square roots      ...    0.002 sec
Total time needed                          ...    0.002 sec

--------------------
INITIAL GUESS: HCORE
--------------------
AVERAGE-CONFIGURATION (SAHF) CASE FOUND

-------------------
FINAL ROHF SETTINGS
-------------------
Number of operators             ... 2
  operator   0:  10 orbitals  20 electrons n(mue)= 2.000
  operator   1:   3 orbitals   5 electrons n(mue)= 1.667
Vector coupling coefficients a and b (Zerner convention):
   1.000    1.000           1.000    1.000 
   1.000    0.960           1.000    0.960 

                      -----------------
                      INTIAL GUESS DONE 
                      -----------------

 InCore treatment chosen:
   Memory dedicated               ...    1024 MB
   Memory needed                  ...      0 MB
   Number of tiny    integrals    ...       0
   Number of small   integrals    ...       0
   Number of regular integrals    ...   26796

--------------
SCF ITERATIONS
--------------
ITER       Energy         Delta-E        Max-DP      RMS-DP      [F,P]     Damp
  0   -226.9856711274   0.000000000000 4.19834880  0.31707926  1.4555307 0.7000
  1   -227.8694975298  -0.883826402446 4.49588247  0.34156165  0.2253151 0.7000
  2   -228.2497854502  -0.380287920329 4.23032590  0.32272201  0.2082189 0.7000
                            ****Activating DIIS****
  3   -228.5610959257  -0.311310475506 4.06932577  0.31144136  0.1857795 0.7000
  4   -228.8526104606  -0.291514534900 4.31002273  0.33056622  0.1446588 0.7000
  5   -229.1150706360  -0.26246017541412.57440766  0.96412775  0.0747991 0.0000
  6   -229.5122576122  -0.397186976183 0.54888598  0.04508992  0.0396288 0.0000
  7   -229.5223705764  -0.010112964221 1.16109984  0.10204297  0.0334448 0.0000
  8   -229.5355429152  -0.013172338813 0.34880446  0.03255349  0.0192943 0.0000
  9   -229.5383458939  -0.002802978724 0.45879115  0.04460501  0.0143137 0.0000
 10   -229.5411343990  -0.002788505038 0.47989429  0.05046821  0.0140953 0.0000
 11   -229.5428840521  -0.001749653132 0.19723160  0.02202423  0.0133951 0.0000
 12   -229.5431990881  -0.000315036020 0.02786953  0.00309909  0.0092486 0.0000
 13   -229.5433886603  -0.000189572244 0.08923560  0.01051170  0.0053722 0.0000
 14   -229.5436655627  -0.000276902307 0.07567062  0.00858283  0.0034041 0.0000
 15   -229.5437430355  -0.000077472796 0.01964456  0.00216040  0.0018114 0.0000
 16   -229.5437522137  -0.000009178274 0.01838852  0.00201662  0.0014121 0.0000
 17   -229.5437604856  -0.000008271906 0.02946401  0.00323692  0.0010434 0.0000
 18   -229.5437679872  -0.000007501525 0.02796126  0.00244498  0.0004592 0.0000
 19   -229.5437740868  -0.000006099610 0.01617548  0.00112031  0.0013485 0.0000
 20   -229.5437795719  -0.000005485129 0.02709379  0.00188483  0.0019608 0.0000
 21   -229.5437715860   0.000007985902 0.01800759  0.00134122  0.0009363 0.0000
 22   -229.5437695652   0.000002020821 0.01041217  0.00077724  0.0002633 0.0000
                 **** Energy Check signals convergence ****

               *****************************************************
               *                     SUCCESS                       *
               *           SCF CONVERGED AFTER  23 CYCLES          *
               *****************************************************


----------------
TOTAL SCF ENERGY
----------------

Total Energy       :         -229.54376951 Eh           -6246.20352 eV

Components:
Nuclear Repulsion  :            0.00000000 Eh               0.00000 eV
Electronic Energy  :         -229.54376951 Eh           -6246.20352 eV
One Electron Energy:         -367.79323437 Eh          -10008.16271 eV
Two Electron Energy:          138.24946486 Eh            3761.95919 eV

Virial components:
Potential Energy   :         -296.33224247 Eh           -8063.61026 eV
Kinetic Energy     :           66.78847297 Eh            1817.40674 eV
Virial Ratio       :            4.43687704


---------------
SCF CONVERGENCE
---------------

  Last Energy change         ...    5.6579e-08  Tolerance :   1.0000e-06
  Last MAX-Density change    ...    9.4778e-03  Tolerance :   1.0000e-05
  Last RMS-Density change    ...    6.6767e-04  Tolerance :   1.0000e-06
  Last DIIS Error            ...    1.8209e-04  Tolerance :   1.0000e-06

             **** THE GBW FILE WAS UPDATED (85_At_atom85.gbw) ****
             **** DENSITY FILE WAS UPDATED (85_At_atom85.scfp) ****
             **** ENERGY FILE WAS UPDATED (85_At_atom85.en.tmp) ****
             **** THE GBW FILE WAS UPDATED (85_At_atom85.gbw) ****
             **** DENSITY FILE WAS UPDATED (85_At_atom85.scfp) ****
----------------
ORBITAL ENERGIES
----------------

  NO   OCC          E(Eh)            E(eV) 
   0   2.0000     -11.477190      -312.3102 
   1   2.0000      -8.397470      -228.5068 
   2   2.0000      -8.397470      -228.5068 
   3   2.0000      -8.395315      -228.4481 
   4   2.0000      -3.012749       -81.9811 
   5   2.0000      -1.876556       -51.0637 
   6   2.0000      -1.876556       -51.0637 
   7   2.0000      -1.871898       -50.9369 
   8   2.0000      -0.561240       -15.2721 
   9   2.0000      -0.243504        -6.6261 
  10   1.6667      -0.255380        -6.9493 
  11   1.6667      -0.255380        -6.9493 
  12   1.6667       1.066042        29.0085 
  13   0.0000       0.374579        10.1928 
  14   0.0000       0.374579        10.1928 
  15   0.0000       0.380504        10.3540 
  16   0.0000      26.657762       725.3946 
  17   0.0000      26.657762       725.3946 
  18   0.0000      26.658819       725.4234 
  19   0.0000      33.073845       899.9851 
  20   0.0000     122.686201      3338.4613 
CleanUpVectors: The p-vectors have cracked symmetry
CleanUpVectors: The p-vectors have cracked symmetry
CleanUpVectors: The p-vectors have cracked symmetry
CleanUpVectors: The p-vectors have cracked symmetry
CleanUpVectors: The p-vectors have cracked symmetry
CleanUpVectors: The p-vectors have cracked symmetry
CleanUpVectors: The p-vectors have cracked symmetry
CleanUpVectors: The p-vectors have cracked symmetry
CleanUpVectors: The p-vectors have cracked symmetry
CleanUpVectors: The p-vectors have cracked symmetry
CleanUpVectors: The p-vectors have cracked symmetry
CleanUpVectors: The p-vectors have cracked symmetry
CleanUpVectors: The p-vectors have cracked symmetry
CleanUpVectors: The p-vectors have cracked symmetry
CleanUpVectors: The p-vectors have cracked symmetry
--------------------------
ATOM BASIS FOR ELEMENT At
--------------------------
 NewGTO At
 S 11
    1       3635.980935600000         0.000116072087
    2        537.641298230000         0.000701253276
    3         91.600030756000         0.002381277266
    4         20.200005804000        -0.505710736787
    5         16.893873824000         0.724027600613
    6         18.177216938000         0.148705499644
    7          7.231785208200        -1.101547975087
    8          1.949619973900         1.286874402368
    9          0.992266952400         0.200614516202
   10          0.319571788800         0.006752883946
   11          0.123425398100        -0.002019248624
 P 21
    1        216.815189280000         0.000002164813
    2         10.592298115000         0.002892796710
    3          7.459658543000        -0.006036737502
    4        216.815189280000        -0.000001177252
    5         10.592298115000        -0.001573138726
    6          7.459658543000         0.003282852717
    7        216.815189280000        -0.000256781482
    8         10.592298115000        -0.343132012001
    9          7.459658543000         0.716053733600
   10          8.948415647100        -0.001510448911
   11          5.969459246400         0.002721305730
   12          2.109908820900         0.006405942817
   13          1.023637037300         0.003828951323
   14          8.948415647100         0.000821400849
   15          5.969459246400        -0.001479879804
   16          2.109908820900        -0.003483631146
   17          1.023637037300        -0.002082231213
   18          8.948415647100         0.179163427544
   19          5.969459246400        -0.322790435697
   20          2.109908820900        -0.759847396017
   21          1.023637037300        -0.454174939617
 S 11
    1       3635.980935600000        -0.000073968696
    2        537.641298230000        -0.000446884275
    3         91.600030756000        -0.001517505018
    4         20.200005804000         0.322271829258
    5         16.893873824000        -0.461397558544
    6         18.177216938000        -0.121676235612
    7          7.231785208200         0.901326523063
    8          1.949619973900        -2.127487475056
    9          0.992266952400         0.929016877783
   10          0.319571788800         1.101968302571
   11          0.123425398100        -0.135358775103
 P 21
    1        216.815189280000         0.000001230417
    2         10.592298115000         0.001644181295
    3          7.459658543000        -0.003431105563
    4        216.815189280000        -0.000000669195
    5         10.592298115000        -0.000894232225
    6          7.459658543000         0.001866099055
    7        216.815189280000        -0.000145977930
    8         10.592298115000        -0.195067418955
    9          7.459658543000         0.407070016091
   10          8.948415647100        -0.001123749382
   11          5.969459246400         0.002024607129
   12          2.109908820900         0.004765917093
   13          1.023637037300         0.002848677405
   14          8.948415647100         0.000611181330
   15          5.969459246400        -0.001101137048
   16          2.109908820900        -0.002592072211
   17          1.023637037300        -0.001549329834
   18          8.948415647100         0.133322822820
   19          5.969459246400        -0.240201544793
   20          2.109908820900        -0.565433476789
   21          1.023637037300        -0.337970119427
 S 11
    1       3635.980935600000         0.001341091913
    2        537.641298230000         0.008102250241
    3         91.600030756000         0.027513175309
    4         20.200005804000        -5.842960142976
    5         16.893873824000         8.365383815404
    6         18.177216938000         0.742355068521
    7          7.231785208200        -5.499055007924
    8          1.949619973900         4.276539992775
    9          0.992266952400        -3.188559064183
   10          0.319571788800         1.093682151156
   11          0.123425398100        -0.352720921320
 S 11
    1       3635.980935600000         0.001320550045
    2        537.641298230000         0.007978145877
    3         91.600030756000         0.027091748542
    4         20.200005804000        -5.753461938054
    5         16.893873824000         8.237248963095
    6         18.177216938000         0.366978939838
    7          7.231785208200        -2.718426077349
    8          1.949619973900         1.411006553424
    9          0.992266952400        -0.979618345140
   10          0.319571788800         0.322990072988
   11          0.123425398100        -0.103650401859
 P 21
    1         20.200005804000        -0.000000081508
    2         16.893873824000         0.000000127603
    3         18.177216938000         0.000000037546
    4          7.231785208200        -0.000000440947
    5          1.949619973900         0.000002162394
    6          0.992266952400        -0.000001541058
    7          0.319571788800        -0.000002358976
    8        216.815189280000        -0.000141999028
    9         10.592298115000        -0.189750490666
   10          7.459658543000         0.395974559476
   11        216.815189280000         0.000033852120
   12         10.592298115000         0.045235918003
   13          7.459658543000        -0.094399085035
   14        216.815189280000        -0.000001352065
   15         10.592298115000        -0.001806737512
   16          7.459658543000         0.003770330647
   17          8.948415647100         0.129688859350
   18          5.969459246400        -0.233654401395
   19          2.109908820900        -0.550021527386
   20          1.023637037300        -0.328758110245
   21          8.948415647100        -0.030917414702
 P 21
    1        216.815189280000         0.000000509911
    2         10.592298115000         0.000681384493
    3          7.459658543000        -0.001421924778
    4        216.815189280000        -0.000000277314
    5         10.592298115000        -0.000370568781
    6          7.459658543000         0.000773309251
    7        216.815189280000        -0.000060490470
    8         10.592298115000        -0.080832217631
    9          7.459658543000         0.168682050072
   10          8.948415647100        -0.000498614386
   11          5.969459246400         0.000898330408
   12          2.109908820900         0.002114666191
   13          1.023637037300         0.001263975365
   14          8.948415647100         0.000271169842
   15          5.969459246400        -0.000488554124
   16          2.109908820900        -0.001150054457
   17          1.023637037300        -0.000687408967
   18          8.948415647100         0.059150313791
   19          5.969459246400        -0.106568376269
   20          2.109908820900        -0.250861531975
   21          1.023637037300        -0.149944609581
 P 21
    1        216.815189280000         0.000000702722
    2         10.592298115000         0.000939033109
    3          7.459658543000        -0.001959590305
    4        216.815189280000        -0.000000382172
    5         10.592298115000        -0.000510688748
    6          7.459658543000         0.001065713988
    7        216.815189280000        -0.000083363028
    8         10.592298115000        -0.111396364398
    9          7.459658543000         0.232463832715
   10          8.948415647100        -0.000703142106
   11          5.969459246400         0.001266818512
   12          2.109908820900         0.002982085717
   13          1.023637037300         0.001782448170
   14          8.948415647100         0.000382400533
   15          5.969459246400        -0.000688953301
   16          2.109908820900        -0.001621793317
   17          1.023637037300        -0.000969376069
   18          8.948415647100         0.083412899371
   19          5.969459246400        -0.150281151125
   20          2.109908820900        -0.353761229343
   21          1.023637037300        -0.211449675050
 P 21
    1       3635.980935600000        -0.000000000006
    2        537.641298230000        -0.000000000091
    3         91.600030756000        -0.000000000750
    4         20.200005804000         0.000000339268
    5         16.893873824000        -0.000000531137
    6         18.177216938000        -0.000000045238
    7          7.231785208200         0.000000531276
    8          1.949619973900        -0.000000775993
    9          0.992266952400         0.000000815515
   10          0.319571788800        -0.000000529648
   11        216.815189280000        -0.000928377329
   12         10.592298115000        -1.240572249523
   13          7.459658543000         2.588847324073
   14        216.815189280000         0.000221322081
   15         10.592298115000         0.295748316153
   16          7.459658543000        -0.617172629137
   17        216.815189280000        -0.000008854729
   18         10.592298115000        -0.011832398545
   19          7.459658543000         0.024692051046
   20          8.948415647100         0.142573774905
   21          5.969459246400        -0.256868555995
 end
  // -----------------------------------------------
  // The basis set
  // -----------------------------------------------
  BAS[ATNO] = new BFNGauss[NSH];
  // Basis function   1 L = s
  InitBFNGauss(BAS[ATNO][  0]);
  BAS[ATNO][  0].l  = 0;
  BAS[ATNO][  0].ng = 11;
  BAS[ATNO][  0].a[  0] =      3635.980935600000;     BAS[ATNO][  0].d[  0] =         0.000116072087;
  BAS[ATNO][  0].a[  1] =       537.641298230000;     BAS[ATNO][  0].d[  1] =         0.000701253276;
  BAS[ATNO][  0].a[  2] =        91.600030756000;     BAS[ATNO][  0].d[  2] =         0.002381277266;
  BAS[ATNO][  0].a[  3] =        20.200005804000;     BAS[ATNO][  0].d[  3] =        -0.505710736787;
  BAS[ATNO][  0].a[  4] =        16.893873824000;     BAS[ATNO][  0].d[  4] =         0.724027600613;
  BAS[ATNO][  0].a[  5] =        18.177216938000;     BAS[ATNO][  0].d[  5] =         0.148705499644;
  BAS[ATNO][  0].a[  6] =         7.231785208200;     BAS[ATNO][  0].d[  6] =        -1.101547975087;
  BAS[ATNO][  0].a[  7] =         1.949619973900;     BAS[ATNO][  0].d[  7] =         1.286874402368;
  BAS[ATNO][  0].a[  8] =         0.992266952400;     BAS[ATNO][  0].d[  8] =         0.200614516202;
  BAS[ATNO][  0].a[  9] =         0.319571788800;     BAS[ATNO][  0].d[  9] =         0.006752883946;
  BAS[ATNO][  0].a[ 10] =         0.123425398100;     BAS[ATNO][  0].d[ 10] =        -0.002019248624;

  // Basis function   2 L = p
  InitBFNGauss(BAS[ATNO][  1]);
  BAS[ATNO][  1].l  = 1;
  BAS[ATNO][  1].ng = 21;
  BAS[ATNO][  1].a[  0] =       216.815189280000;     BAS[ATNO][  1].d[  0] =        -0.000002164813;
  BAS[ATNO][  1].a[  1] =        10.592298115000;     BAS[ATNO][  1].d[  1] =        -0.002892796710;
  BAS[ATNO][  1].a[  2] =         7.459658543000;     BAS[ATNO][  1].d[  2] =         0.006036737502;
  BAS[ATNO][  1].a[  3] =       216.815189280000;     BAS[ATNO][  1].d[  3] =         0.000001177252;
  BAS[ATNO][  1].a[  4] =        10.592298115000;     BAS[ATNO][  1].d[  4] =         0.001573138726;
  BAS[ATNO][  1].a[  5] =         7.459658543000;     BAS[ATNO][  1].d[  5] =        -0.003282852717;
  BAS[ATNO][  1].a[  6] =       216.815189280000;     BAS[ATNO][  1].d[  6] =         0.000256781482;
  BAS[ATNO][  1].a[  7] =        10.592298115000;     BAS[ATNO][  1].d[  7] =         0.343132012001;
  BAS[ATNO][  1].a[  8] =         7.459658543000;     BAS[ATNO][  1].d[  8] =        -0.716053733600;
  BAS[ATNO][  1].a[  9] =         8.948415647100;     BAS[ATNO][  1].d[  9] =         0.001510448911;
  BAS[ATNO][  1].a[ 10] =         5.969459246400;     BAS[ATNO][  1].d[ 10] =        -0.002721305730;
  BAS[ATNO][  1].a[ 11] =         2.109908820900;     BAS[ATNO][  1].d[ 11] =        -0.006405942817;
  BAS[ATNO][  1].a[ 12] =         1.023637037300;     BAS[ATNO][  1].d[ 12] =        -0.003828951323;
  BAS[ATNO][  1].a[ 13] =         8.948415647100;     BAS[ATNO][  1].d[ 13] =        -0.000821400849;
  BAS[ATNO][  1].a[ 14] =         5.969459246400;     BAS[ATNO][  1].d[ 14] =         0.001479879804;
  BAS[ATNO][  1].a[ 15] =         2.109908820900;     BAS[ATNO][  1].d[ 15] =         0.003483631146;
  BAS[ATNO][  1].a[ 16] =         1.023637037300;     BAS[ATNO][  1].d[ 16] =         0.002082231213;
  BAS[ATNO][  1].a[ 17] =         8.948415647100;     BAS[ATNO][  1].d[ 17] =        -0.179163427544;
  BAS[ATNO][  1].a[ 18] =         5.969459246400;     BAS[ATNO][  1].d[ 18] =         0.322790435697;
  BAS[ATNO][  1].a[ 19] =         2.109908820900;     BAS[ATNO][  1].d[ 19] =         0.759847396017;
  BAS[ATNO][  1].a[ 20] =         1.023637037300;     BAS[ATNO][  1].d[ 20] =         0.454174939617;

  // Basis function   3 L = s
  InitBFNGauss(BAS[ATNO][  2]);
  BAS[ATNO][  2].l  = 0;
  BAS[ATNO][  2].ng = 11;
  BAS[ATNO][  2].a[  0] =      3635.980935600000;     BAS[ATNO][  2].d[  0] =         0.000073968696;
  BAS[ATNO][  2].a[  1] =       537.641298230000;     BAS[ATNO][  2].d[  1] =         0.000446884275;
  BAS[ATNO][  2].a[  2] =        91.600030756000;     BAS[ATNO][  2].d[  2] =         0.001517505018;
  BAS[ATNO][  2].a[  3] =        20.200005804000;     BAS[ATNO][  2].d[  3] =        -0.322271829258;
  BAS[ATNO][  2].a[  4] =        16.893873824000;     BAS[ATNO][  2].d[  4] =         0.461397558544;
  BAS[ATNO][  2].a[  5] =        18.177216938000;     BAS[ATNO][  2].d[  5] =         0.121676235612;
  BAS[ATNO][  2].a[  6] =         7.231785208200;     BAS[ATNO][  2].d[  6] =        -0.901326523063;
  BAS[ATNO][  2].a[  7] =         1.949619973900;     BAS[ATNO][  2].d[  7] =         2.127487475056;
  BAS[ATNO][  2].a[  8] =         0.992266952400;     BAS[ATNO][  2].d[  8] =        -0.929016877783;
  BAS[ATNO][  2].a[  9] =         0.319571788800;     BAS[ATNO][  2].d[  9] =        -1.101968302571;
  BAS[ATNO][  2].a[ 10] =         0.123425398100;     BAS[ATNO][  2].d[ 10] =         0.135358775103;

  // Basis function   4 L = p
  InitBFNGauss(BAS[ATNO][  3]);
  BAS[ATNO][  3].l  = 1;
  BAS[ATNO][  3].ng = 21;
  BAS[ATNO][  3].a[  0] =       216.815189280000;     BAS[ATNO][  3].d[  0] =        -0.000001230417;
  BAS[ATNO][  3].a[  1] =        10.592298115000;     BAS[ATNO][  3].d[  1] =        -0.001644181295;
  BAS[ATNO][  3].a[  2] =         7.459658543000;     BAS[ATNO][  3].d[  2] =         0.003431105563;
  BAS[ATNO][  3].a[  3] =       216.815189280000;     BAS[ATNO][  3].d[  3] =         0.000000669195;
  BAS[ATNO][  3].a[  4] =        10.592298115000;     BAS[ATNO][  3].d[  4] =         0.000894232225;
  BAS[ATNO][  3].a[  5] =         7.459658543000;     BAS[ATNO][  3].d[  5] =        -0.001866099055;
  BAS[ATNO][  3].a[  6] =       216.815189280000;     BAS[ATNO][  3].d[  6] =         0.000145977930;
  BAS[ATNO][  3].a[  7] =        10.592298115000;     BAS[ATNO][  3].d[  7] =         0.195067418955;
  BAS[ATNO][  3].a[  8] =         7.459658543000;     BAS[ATNO][  3].d[  8] =        -0.407070016091;
  BAS[ATNO][  3].a[  9] =         8.948415647100;     BAS[ATNO][  3].d[  9] =         0.001123749382;
  BAS[ATNO][  3].a[ 10] =         5.969459246400;     BAS[ATNO][  3].d[ 10] =        -0.002024607129;
  BAS[ATNO][  3].a[ 11] =         2.109908820900;     BAS[ATNO][  3].d[ 11] =        -0.004765917093;
  BAS[ATNO][  3].a[ 12] =         1.023637037300;     BAS[ATNO][  3].d[ 12] =        -0.002848677405;
  BAS[ATNO][  3].a[ 13] =         8.948415647100;     BAS[ATNO][  3].d[ 13] =        -0.000611181330;
  BAS[ATNO][  3].a[ 14] =         5.969459246400;     BAS[ATNO][  3].d[ 14] =         0.001101137048;
  BAS[ATNO][  3].a[ 15] =         2.109908820900;     BAS[ATNO][  3].d[ 15] =         0.002592072211;
  BAS[ATNO][  3].a[ 16] =         1.023637037300;     BAS[ATNO][  3].d[ 16] =         0.001549329834;
  BAS[ATNO][  3].a[ 17] =         8.948415647100;     BAS[ATNO][  3].d[ 17] =        -0.133322822820;
  BAS[ATNO][  3].a[ 18] =         5.969459246400;     BAS[ATNO][  3].d[ 18] =         0.240201544793;
  BAS[ATNO][  3].a[ 19] =         2.109908820900;     BAS[ATNO][  3].d[ 19] =         0.565433476789;
  BAS[ATNO][  3].a[ 20] =         1.023637037300;     BAS[ATNO][  3].d[ 20] =         0.337970119427;

  // Basis function   5 L = s
  InitBFNGauss(BAS[ATNO][  4]);
  BAS[ATNO][  4].l  = 0;
  BAS[ATNO][  4].ng = 11;
  BAS[ATNO][  4].a[  0] =      3635.980935600000;     BAS[ATNO][  4].d[  0] =         0.001341091913;
  BAS[ATNO][  4].a[  1] =       537.641298230000;     BAS[ATNO][  4].d[  1] =         0.008102250241;
  BAS[ATNO][  4].a[  2] =        91.600030756000;     BAS[ATNO][  4].d[  2] =         0.027513175309;
  BAS[ATNO][  4].a[  3] =        20.200005804000;     BAS[ATNO][  4].d[  3] =        -5.842960142976;
  BAS[ATNO][  4].a[  4] =        16.893873824000;     BAS[ATNO][  4].d[  4] =         8.365383815404;
  BAS[ATNO][  4].a[  5] =        18.177216938000;     BAS[ATNO][  4].d[  5] =         0.742355068521;
  BAS[ATNO][  4].a[  6] =         7.231785208200;     BAS[ATNO][  4].d[  6] =        -5.499055007924;
  BAS[ATNO][  4].a[  7] =         1.949619973900;     BAS[ATNO][  4].d[  7] =         4.276539992775;
  BAS[ATNO][  4].a[  8] =         0.992266952400;     BAS[ATNO][  4].d[  8] =        -3.188559064183;
  BAS[ATNO][  4].a[  9] =         0.319571788800;     BAS[ATNO][  4].d[  9] =         1.093682151156;
  BAS[ATNO][  4].a[ 10] =         0.123425398100;     BAS[ATNO][  4].d[ 10] =        -0.352720921320;

  // Basis function   6 L = s
  InitBFNGauss(BAS[ATNO][  5]);
  BAS[ATNO][  5].l  = 0;
  BAS[ATNO][  5].ng = 11;
  BAS[ATNO][  5].a[  0] =      3635.980935600000;     BAS[ATNO][  5].d[  0] =         0.001320550045;
  BAS[ATNO][  5].a[  1] =       537.641298230000;     BAS[ATNO][  5].d[  1] =         0.007978145877;
  BAS[ATNO][  5].a[  2] =        91.600030756000;     BAS[ATNO][  5].d[  2] =         0.027091748542;
  BAS[ATNO][  5].a[  3] =        20.200005804000;     BAS[ATNO][  5].d[  3] =        -5.753461938054;
  BAS[ATNO][  5].a[  4] =        16.893873824000;     BAS[ATNO][  5].d[  4] =         8.237248963095;
  BAS[ATNO][  5].a[  5] =        18.177216938000;     BAS[ATNO][  5].d[  5] =         0.366978939838;
  BAS[ATNO][  5].a[  6] =         7.231785208200;     BAS[ATNO][  5].d[  6] =        -2.718426077349;
  BAS[ATNO][  5].a[  7] =         1.949619973900;     BAS[ATNO][  5].d[  7] =         1.411006553424;
  BAS[ATNO][  5].a[  8] =         0.992266952400;     BAS[ATNO][  5].d[  8] =        -0.979618345140;
  BAS[ATNO][  5].a[  9] =         0.319571788800;     BAS[ATNO][  5].d[  9] =         0.322990072988;
  BAS[ATNO][  5].a[ 10] =         0.123425398100;     BAS[ATNO][  5].d[ 10] =        -0.103650401859;

  // Basis function   7 L = p
  InitBFNGauss(BAS[ATNO][  6]);
  BAS[ATNO][  6].l  = 1;
  BAS[ATNO][  6].ng = 21;
  BAS[ATNO][  6].a[  0] =        20.200005804000;     BAS[ATNO][  6].d[  0] =         0.000000081508;
  BAS[ATNO][  6].a[  1] =        16.893873824000;     BAS[ATNO][  6].d[  1] =        -0.000000127603;
  BAS[ATNO][  6].a[  2] =        18.177216938000;     BAS[ATNO][  6].d[  2] =        -0.000000037546;
  BAS[ATNO][  6].a[  3] =         7.231785208200;     BAS[ATNO][  6].d[  3] =         0.000000440947;
  BAS[ATNO][  6].a[  4] =         1.949619973900;     BAS[ATNO][  6].d[  4] =        -0.000002162394;
  BAS[ATNO][  6].a[  5] =         0.992266952400;     BAS[ATNO][  6].d[  5] =         0.000001541058;
  BAS[ATNO][  6].a[  6] =         0.319571788800;     BAS[ATNO][  6].d[  6] =         0.000002358976;
  BAS[ATNO][  6].a[  7] =       216.815189280000;     BAS[ATNO][  6].d[  7] =         0.000141999028;
  BAS[ATNO][  6].a[  8] =        10.592298115000;     BAS[ATNO][  6].d[  8] =         0.189750490666;
  BAS[ATNO][  6].a[  9] =         7.459658543000;     BAS[ATNO][  6].d[  9] =        -0.395974559476;
  BAS[ATNO][  6].a[ 10] =       216.815189280000;     BAS[ATNO][  6].d[ 10] =        -0.000033852120;
  BAS[ATNO][  6].a[ 11] =        10.592298115000;     BAS[ATNO][  6].d[ 11] =        -0.045235918003;
  BAS[ATNO][  6].a[ 12] =         7.459658543000;     BAS[ATNO][  6].d[ 12] =         0.094399085035;
  BAS[ATNO][  6].a[ 13] =       216.815189280000;     BAS[ATNO][  6].d[ 13] =         0.000001352065;
  BAS[ATNO][  6].a[ 14] =        10.592298115000;     BAS[ATNO][  6].d[ 14] =         0.001806737512;
  BAS[ATNO][  6].a[ 15] =         7.459658543000;     BAS[ATNO][  6].d[ 15] =        -0.003770330647;
  BAS[ATNO][  6].a[ 16] =         8.948415647100;     BAS[ATNO][  6].d[ 16] =        -0.129688859350;
  BAS[ATNO][  6].a[ 17] =         5.969459246400;     BAS[ATNO][  6].d[ 17] =         0.233654401395;
  BAS[ATNO][  6].a[ 18] =         2.109908820900;     BAS[ATNO][  6].d[ 18] =         0.550021527386;
  BAS[ATNO][  6].a[ 19] =         1.023637037300;     BAS[ATNO][  6].d[ 19] =         0.328758110245;
  BAS[ATNO][  6].a[ 20] =         8.948415647100;     BAS[ATNO][  6].d[ 20] =         0.030917414702;

  // Basis function   8 L = p
  InitBFNGauss(BAS[ATNO][  7]);
  BAS[ATNO][  7].l  = 1;
  BAS[ATNO][  7].ng = 21;
  BAS[ATNO][  7].a[  0] =       216.815189280000;     BAS[ATNO][  7].d[  0] =        -0.000000509911;
  BAS[ATNO][  7].a[  1] =        10.592298115000;     BAS[ATNO][  7].d[  1] =        -0.000681384493;
  BAS[ATNO][  7].a[  2] =         7.459658543000;     BAS[ATNO][  7].d[  2] =         0.001421924778;
  BAS[ATNO][  7].a[  3] =       216.815189280000;     BAS[ATNO][  7].d[  3] =         0.000000277314;
  BAS[ATNO][  7].a[  4] =        10.592298115000;     BAS[ATNO][  7].d[  4] =         0.000370568781;
  BAS[ATNO][  7].a[  5] =         7.459658543000;     BAS[ATNO][  7].d[  5] =        -0.000773309251;
  BAS[ATNO][  7].a[  6] =       216.815189280000;     BAS[ATNO][  7].d[  6] =         0.000060490470;
  BAS[ATNO][  7].a[  7] =        10.592298115000;     BAS[ATNO][  7].d[  7] =         0.080832217631;
  BAS[ATNO][  7].a[  8] =         7.459658543000;     BAS[ATNO][  7].d[  8] =        -0.168682050072;
  BAS[ATNO][  7].a[  9] =         8.948415647100;     BAS[ATNO][  7].d[  9] =         0.000498614386;
  BAS[ATNO][  7].a[ 10] =         5.969459246400;     BAS[ATNO][  7].d[ 10] =        -0.000898330408;
  BAS[ATNO][  7].a[ 11] =         2.109908820900;     BAS[ATNO][  7].d[ 11] =        -0.002114666191;
  BAS[ATNO][  7].a[ 12] =         1.023637037300;     BAS[ATNO][  7].d[ 12] =        -0.001263975365;
  BAS[ATNO][  7].a[ 13] =         8.948415647100;     BAS[ATNO][  7].d[ 13] =        -0.000271169842;
  BAS[ATNO][  7].a[ 14] =         5.969459246400;     BAS[ATNO][  7].d[ 14] =         0.000488554124;
  BAS[ATNO][  7].a[ 15] =         2.109908820900;     BAS[ATNO][  7].d[ 15] =         0.001150054457;
  BAS[ATNO][  7].a[ 16] =         1.023637037300;     BAS[ATNO][  7].d[ 16] =         0.000687408967;
  BAS[ATNO][  7].a[ 17] =         8.948415647100;     BAS[ATNO][  7].d[ 17] =        -0.059150313791;
  BAS[ATNO][  7].a[ 18] =         5.969459246400;     BAS[ATNO][  7].d[ 18] =         0.106568376269;
  BAS[ATNO][  7].a[ 19] =         2.109908820900;     BAS[ATNO][  7].d[ 19] =         0.250861531975;
  BAS[ATNO][  7].a[ 20] =         1.023637037300;     BAS[ATNO][  7].d[ 20] =         0.149944609581;

  // Basis function   9 L = p
  InitBFNGauss(BAS[ATNO][  8]);
  BAS[ATNO][  8].l  = 1;
  BAS[ATNO][  8].ng = 21;
  BAS[ATNO][  8].a[  0] =       216.815189280000;     BAS[ATNO][  8].d[  0] =        -0.000000702722;
  BAS[ATNO][  8].a[  1] =        10.592298115000;     BAS[ATNO][  8].d[  1] =        -0.000939033109;
  BAS[ATNO][  8].a[  2] =         7.459658543000;     BAS[ATNO][  8].d[  2] =         0.001959590305;
  BAS[ATNO][  8].a[  3] =       216.815189280000;     BAS[ATNO][  8].d[  3] =         0.000000382172;
  BAS[ATNO][  8].a[  4] =        10.592298115000;     BAS[ATNO][  8].d[  4] =         0.000510688748;
  BAS[ATNO][  8].a[  5] =         7.459658543000;     BAS[ATNO][  8].d[  5] =        -0.001065713988;
  BAS[ATNO][  8].a[  6] =       216.815189280000;     BAS[ATNO][  8].d[  6] =         0.000083363028;
  BAS[ATNO][  8].a[  7] =        10.592298115000;     BAS[ATNO][  8].d[  7] =         0.111396364398;
  BAS[ATNO][  8].a[  8] =         7.459658543000;     BAS[ATNO][  8].d[  8] =        -0.232463832715;
  BAS[ATNO][  8].a[  9] =         8.948415647100;     BAS[ATNO][  8].d[  9] =         0.000703142106;
  BAS[ATNO][  8].a[ 10] =         5.969459246400;     BAS[ATNO][  8].d[ 10] =        -0.001266818512;
  BAS[ATNO][  8].a[ 11] =         2.109908820900;     BAS[ATNO][  8].d[ 11] =        -0.002982085717;
  BAS[ATNO][  8].a[ 12] =         1.023637037300;     BAS[ATNO][  8].d[ 12] =        -0.001782448170;
  BAS[ATNO][  8].a[ 13] =         8.948415647100;     BAS[ATNO][  8].d[ 13] =        -0.000382400533;
  BAS[ATNO][  8].a[ 14] =         5.969459246400;     BAS[ATNO][  8].d[ 14] =         0.000688953301;
  BAS[ATNO][  8].a[ 15] =         2.109908820900;     BAS[ATNO][  8].d[ 15] =         0.001621793317;
  BAS[ATNO][  8].a[ 16] =         1.023637037300;     BAS[ATNO][  8].d[ 16] =         0.000969376069;
  BAS[ATNO][  8].a[ 17] =         8.948415647100;     BAS[ATNO][  8].d[ 17] =        -0.083412899371;
  BAS[ATNO][  8].a[ 18] =         5.969459246400;     BAS[ATNO][  8].d[ 18] =         0.150281151125;
  BAS[ATNO][  8].a[ 19] =         2.109908820900;     BAS[ATNO][  8].d[ 19] =         0.353761229343;
  BAS[ATNO][  8].a[ 20] =         1.023637037300;     BAS[ATNO][  8].d[ 20] =         0.211449675050;

  // Basis function  10 L = p
  InitBFNGauss(BAS[ATNO][  9]);
  BAS[ATNO][  9].l  = 1;
  BAS[ATNO][  9].ng = 21;
  BAS[ATNO][  9].a[  0] =      3635.980935600000;     BAS[ATNO][  9].d[  0] =        -0.000000000006;
  BAS[ATNO][  9].a[  1] =       537.641298230000;     BAS[ATNO][  9].d[  1] =        -0.000000000091;
  BAS[ATNO][  9].a[  2] =        91.600030756000;     BAS[ATNO][  9].d[  2] =        -0.000000000750;
  BAS[ATNO][  9].a[  3] =        20.200005804000;     BAS[ATNO][  9].d[  3] =         0.000000339268;
  BAS[ATNO][  9].a[  4] =        16.893873824000;     BAS[ATNO][  9].d[  4] =        -0.000000531137;
  BAS[ATNO][  9].a[  5] =        18.177216938000;     BAS[ATNO][  9].d[  5] =        -0.000000045238;
  BAS[ATNO][  9].a[  6] =         7.231785208200;     BAS[ATNO][  9].d[  6] =         0.000000531276;
  BAS[ATNO][  9].a[  7] =         1.949619973900;     BAS[ATNO][  9].d[  7] =        -0.000000775993;
  BAS[ATNO][  9].a[  8] =         0.992266952400;     BAS[ATNO][  9].d[  8] =         0.000000815515;
  BAS[ATNO][  9].a[  9] =         0.319571788800;     BAS[ATNO][  9].d[  9] =        -0.000000529648;
  BAS[ATNO][  9].a[ 10] =       216.815189280000;     BAS[ATNO][  9].d[ 10] =        -0.000928377329;
  BAS[ATNO][  9].a[ 11] =        10.592298115000;     BAS[ATNO][  9].d[ 11] =        -1.240572249523;
  BAS[ATNO][  9].a[ 12] =         7.459658543000;     BAS[ATNO][  9].d[ 12] =         2.588847324073;
  BAS[ATNO][  9].a[ 13] =       216.815189280000;     BAS[ATNO][  9].d[ 13] =         0.000221322081;
  BAS[ATNO][  9].a[ 14] =        10.592298115000;     BAS[ATNO][  9].d[ 14] =         0.295748316153;
  BAS[ATNO][  9].a[ 15] =         7.459658543000;     BAS[ATNO][  9].d[ 15] =        -0.617172629137;
  BAS[ATNO][  9].a[ 16] =       216.815189280000;     BAS[ATNO][  9].d[ 16] =        -0.000008854729;
  BAS[ATNO][  9].a[ 17] =        10.592298115000;     BAS[ATNO][  9].d[ 17] =        -0.011832398545;
  BAS[ATNO][  9].a[ 18] =         7.459658543000;     BAS[ATNO][  9].d[ 18] =         0.024692051046;
  BAS[ATNO][  9].a[ 19] =         8.948415647100;     BAS[ATNO][  9].d[ 19] =         0.142573774905;
  BAS[ATNO][  9].a[ 20] =         5.969459246400;     BAS[ATNO][  9].d[ 20] =        -0.256868555995;

-------------------------------------------
RADIAL EXPECTATION VALUES <R**-3> TO <R**3>
-------------------------------------------
   0 :     0.000000     2.032431     1.370025     0.785515     0.662506     0.598915
   1 :     2.434281     1.648643     1.230565     0.879764     0.836588     0.869543
   2 :     2.434281     1.648643     1.230565     0.879764     0.836588     0.869543
   3 :     2.434870     1.648908     1.230667     0.879684     0.836412     0.869076
   4 :     0.000000     0.761889     0.772242     1.516847     2.552662     4.652296
   5 :     0.558192     0.499581     0.629484     1.816554     3.601354     7.738325
   6 :     0.000000     0.223225     0.386389     3.097659    10.511416    37.982460
   7 :     0.000000     0.740875     0.684537     2.185201     6.374270    22.362179
   8 :     0.000000     7.622604     2.281205     0.581159     0.573514     1.127516
   9 :     0.000000    62.641702     6.203949     0.224489     0.089661     0.108715
  10 :     0.558192     0.499581     0.629484     1.816554     3.601354     7.738325
  11 :     0.562354     0.502340     0.631360     1.809695     3.567570     7.592065
  12 :     0.087805     0.115989     0.290725     3.955015    17.054070    78.991370
  13 :     0.093321     0.119954     0.293963     3.931434    16.879149    77.886387
  14 :     0.093321     0.119954     0.293963     3.931434    16.879149    77.886392
  15 :     0.139007     0.145486     0.298619     4.373607    22.257082   124.412537
  16 :     0.139007     0.145486     0.298619     4.373607    22.257084   124.412547
  17 :     0.140101     0.146538     0.299914     4.356931    22.115966   123.453451
  18 :    25.464949     7.161186     2.444168     0.549024     0.582261     1.555417
  19 :    25.464949     7.161186     2.444168     0.549024     0.582261     1.555417
  20 :    25.464620     7.161075     2.444133     0.549058     0.582409     1.556203
Making the total density                ... o.k.
o.k.
Initializing the integrals              ... done
Making exponents                        ... done
Making rho(0)                           ... done (         0.119511247)
Integral calculation                    ... Two index integrals                     ... done
Solving the equation system             ... done
atomic density will be written to file 85_At_atom85.adf

-------
TIMINGS
-------

Total SCF time: 0 days 0 hours 0 min 0 sec 

Total time                  ....       0.618 sec
Sum of individual times     ....       0.232 sec  ( 37.5%)

Fock matrix formation       ....       0.162 sec  ( 26.2%)
Diagonalization             ....       0.030 sec  (  4.9%)
Density matrix formation    ....       0.000 sec  (  0.0%)
Population analysis         ....       0.000 sec  (  0.0%)
Initial guess               ....       0.000 sec  (  0.0%)
Orbital Transformation      ....       0.000 sec  (  0.0%)
Orbital Orthonormalization  ....       0.000 sec  (  0.0%)
DIIS solution               ....       0.039 sec  (  6.3%)

-------------------------   --------------------
FINAL SINGLE POINT ENERGY      -229.543769508594
-------------------------   --------------------


                            ***************************************
                            *     ORCA property calculations      *
                            ***************************************

                                    ---------------------
                                    Active property flags
                                    ---------------------
   (+) Dipole Moment


------------------------------------------------------------------------------
                       ORCA ELECTRIC PROPERTIES CALCULATION
------------------------------------------------------------------------------

Dipole Moment Calculation                       ... on
Quadrupole Moment Calculation                   ... off
Polarizability Calculation                      ... off
GBWName                                         ... 85_At_atom85.gbw
Electron density file                           ... 85_At_atom85.scfp
The origin for moment calculation is the CENTER OF MASS  = ( 0.000000,  0.000000  0.000000)

-------------
DIPOLE MOMENT
-------------
                                X             Y             Z
Electronic contribution:      0.00100       0.00000       0.00059
Nuclear contribution   :      0.00000       0.00000       0.00000
                        -----------------------------------------
Total Dipole Moment    :      0.00100       0.00000       0.00059
                        -----------------------------------------
Magnitude (a.u.)       :      0.00116
Magnitude (Debye)      :      0.00295



--------------------
Rotational spectrum 
--------------------
 
Rotational constants in cm-1:     0.000000     0.000000     0.000000 
Rotational constants in MHz :     0.000000     0.000000     0.000000 

 Dipole components along the rotational axes: 
x,y,z [a.u.] :     0.001002     0.000000     0.000588 
x,y,z [Debye]:     0.002546     0.000001     0.001495 

 

Timings for individual modules:

Sum of individual times         ...        0.866 sec (=   0.014 min)
GTO integral calculation        ...        0.227 sec (=   0.004 min)  26.2 %
SCF iterations                  ...        0.639 sec (=   0.011 min)  73.8 %
                             ****ORCA TERMINATED NORMALLY****
TOTAL RUN TIME: 0 days 0 hours 0 minutes 1 seconds 46 msec
