
                                 *****************
                                 * O   R   C   A *
                                 *****************

           --- An Ab Initio, DFT and Semiempirical electronic structure package ---

                  #######################################################
                  #                        -***-                        #
                  #          Department of theory and spectroscopy      #
                  #               Directorship: Frank Neese             #
                  #        Max Planck Institute fuer Kohlenforschung    #
                  #                Kaiser Wilhelm Platz 1               #
                  #                 D-45470 Muelheim/Ruhr               #
                  #                      Germany                        #
                  #                                                     #
                  #                  All rights reserved                #
                  #                        -***-                        #
                  #######################################################


                         Program Version 4.2.0 -  RELEASE  -


 With contributions from (in alphabetic order):
   Daniel Aravena         : Magnetic Suceptibility
   Michael Atanasov       : Ab Initio Ligand Field Theory (pilot matlab implementation)
   Alexander A. Auer      : GIAO ZORA, VPT2
   Ute Becker             : Parallelization
   Giovanni Bistoni       : ED, misc. LED, open-shell LED, HFLED
   Martin Brehm           : Molecular dynamics
   Dmytro Bykov           : SCF Hessian
   Vijay G. Chilkuri      : MRCI spin determinant printing, contributions to CSF-ICE
   Dipayan Datta          : RHF DLPNO-CCSD density
   Achintya Kumar Dutta   : EOM-CC, STEOM-CC
   Dmitry Ganyushin       : Spin-Orbit,Spin-Spin,Magnetic field MRCI
   Miquel Garcia          : C-PCM Hessian, Gaussian charge scheme
   Yang Guo               : DLPNO-NEVPT2, CIM, IAO-localization
   Andreas Hansen         : Spin unrestricted coupled pair/coupled cluster methods
   Benjamin Helmich-Paris : CASSCF linear response (MC-RPA)
   Lee Huntington         : MR-EOM, pCC
   Robert Izsak           : Overlap fitted RIJCOSX, COSX-SCS-MP3, EOM
   Christian Kollmar      : KDIIS, OOCD, Brueckner-CCSD(T), CCSD density
   Simone Kossmann        : Meta GGA functionals, TD-DFT gradient, OOMP2, MP2 Hessian
   Martin Krupicka        : AUTO-CI
   Lucas Lang             : DCDCAS
   Dagmar Lenk            : GEPOL surface, SMD
   Dimitrios Liakos       : Extrapolation schemes; Compound Job, initial MDCI parallelization
   Dimitrios Manganas     : Further ROCIS development; embedding schemes
   Dimitrios Pantazis     : SARC Basis sets
   Taras Petrenko         : DFT Hessian,TD-DFT gradient, ASA, ECA, R-Raman, ABS, FL, XAS/XES, NRVS
   Peter Pinski           : DLPNO-MP2, DLPNO-MP2 Gradient
   Christoph Reimann      : Effective Core Potentials
   Marius Retegan         : Local ZFS, SOC
   Christoph Riplinger    : Optimizer, TS searches, QM/MM, DLPNO-CCSD(T), (RO)-DLPNO pert. Triples
   Tobias Risthaus        : Range-separated hybrids, TD-DFT gradient, RPA, STAB
   Michael Roemelt        : Original ROCIS implementation
   Masaaki Saitow         : Open-shell DLPNO-CCSD energy and density
   Barbara Sandhoefer     : DKH picture change effects
   Avijit Sen             : IP-ROCIS
   Kantharuban Sivalingam : CASSCF convergence, NEVPT2, FIC-MRCI
   Bernardo de Souza      : ESD, SOC TD-DFT
   Georgi Stoychev        : AutoAux, RI-MP2 NMR
   Willem Van den Heuvel  : Paramagnetic NMR
   Boris Wezisla          : Elementary symmetry handling
   Frank Wennmohs         : Technical directorship


 We gratefully acknowledge several colleagues who have allowed us to
 interface, adapt or use parts of their codes:
   Stefan Grimme, W. Hujo, H. Kruse,             : VdW corrections, initial TS optimization,
                  C. Bannwarth                     DFT functionals, gCP, sTDA/sTD-DF
   Ed Valeev, F. Pavosevic, A. Kumar             : LibInt (2-el integral package), F12 methods
   Garnet Chan, S. Sharma, J. Yang, R. Olivares  : DMRG
   Ulf Ekstrom                                   : XCFun DFT Library
   Mihaly Kallay                                 : mrcc  (arbitrary order and MRCC methods)
   Andreas Klamt, Michael Diedenhofen            : otool_cosmo (COSMO solvation model)
   Jiri Pittner, Ondrej Demel                    : Mk-CCSD
   Frank Weinhold                                : gennbo (NPA and NBO analysis)
   Christopher J. Cramer and Donald G. Truhlar   : smd solvation model
   Lars Goerigk                                  : TD-DFT with DH, B97 family of functionals
   V. Asgeirsson, H. Jonsson                     : NEB implementation
   FAccTs GmbH                                   : IRC, NEB, NEB-TS, Multilevel, MM, QM/MM, CI optimization
   S Lehtola, MJT Oliveira, MAL Marques          : LibXC Library


 Your calculation uses the libint2 library for the computation of 2-el integrals
 For citations please refer to: http://libint.valeyev.net

 Your ORCA version has been built with support for libXC version: 4.2.3
 For citations please refer to: https://tddft.org/programs/libxc/

 This ORCA versions uses:
   CBLAS   interface :  Fast vector & matrix operations
   LAPACKE interface :  Fast linear algebra routines
   SCALAPACK package :  Parallel linear algebra routines


----- Orbital basis set information -----
Your calculation utilizes the basis: aug-cc-pVTZ 
    H, B-Ne : Obtained from the ccRepo (grant-hill.group.shef.ac.uk/ccrepo) Feb. 2017
              R. A. Kendall, T. H. Dunning, Jr., R. J. Harrison, J. Chem. Phys. 96, 6796 (1992)
         He : Obtained from the ccRepo (grant-hill.group.shef.ac.uk/ccrepo) Feb. 2017
              D. E. Woon, T. H. Dunning, Jr., J. Chem. Phys. 100, 2975 (1994)
  Li-Be, Na : Obtained from the ccRepo (grant-hill.group.shef.ac.uk/ccrepo) Feb. 2017
              B. P. Prascher, D. E. Woon, K. A. Peterson, T. H. Dunning, Jr., A. K. Wilson, Theor. Chem. Acc. 128, 69 (2011)
         Mg : Obtained from the Peterson Research Group Website (tyr0.chem.wsu.edu/~kipeters) Feb. 2017
              B. P. Prascher, D. E. Woon, K. A. Peterson, T. H. Dunning, Jr., A. K. Wilson, Theor. Chem. Acc. 128, 69 (2011)
      Al-Ar : Obtained from the ccRepo (grant-hill.group.shef.ac.uk/ccrepo) Feb. 2017
              D. E. Woon, T. H. Dunning, Jr., J. Chem. Phys. 98, 1358 (1993)
      Sc-Zn : Obtained from the ccRepo (grant-hill.group.shef.ac.uk/ccrepo) Feb. 2017
              N. B. Balabanov, K. A. Peterson, J. Chem. Phys. 123, 064107 (2005)
              N. B. Balabanov, K. A. Peterson, J. Chem. Phys. 125, 074110 (2006)
      Ga-Kr : Obtained from the ccRepo (grant-hill.group.shef.ac.uk/ccrepo) Feb. 2017
              A. K. Wilson, D. E. Woon, K. A. Peterson, T. H. Dunning, Jr., J. Chem. Phys. 110, 7667 (1999)
     Ag, Au : Obtained from the Peterson Research Group Website (tyr0.chem.wsu.edu/~kipeters) Feb. 2017
              K. A. Peterson, C. Puzzarini, Theor. Chem. Acc. 114, 283 (2005)

================================================================================
                                        WARNINGS
                       Please study these warnings very carefully!
================================================================================


WARNING: your system is open-shell and RHF/RKS was chosen
  ===> : WILL SWITCH to UHF/UKS


WARNING: MDCI localization with Augmented Hessian Foster-Boys
  ===> : Switching off randomization!

WARNING: Post HF methods need fully converged wavefunctions
  ===> : Setting SCFConvForced true
         You can overwrite this default with %scf ConvForced false 


INFO   : the flag for use of LIBINT has been found!

================================================================================
                                       INPUT FILE
================================================================================
NAME = 08_O.in
|  1> #
|  2> # 08_O CCSD(T)/aug-cc-pVTZ
|  3> #
|  4> ! CCSD(T) aug-cc-pVTZ tightscf
|  5> 
|  6> *xyz 0 3
|  7>  O 0.0 0.0 0.0
|  8> *
|  9> 
| 10> %maxcore 5000 
| 11> 
| 12> %pal
| 13> nprocs 15
| 14> end
| 15> 
| 16> 
| 17>                          ****END OF INPUT****
================================================================================

                       ****************************
                       * Single Point Calculation *
                       ****************************

---------------------------------
CARTESIAN COORDINATES (ANGSTROEM)
---------------------------------
  O      0.000000    0.000000    0.000000

----------------------------
CARTESIAN COORDINATES (A.U.)
----------------------------
  NO LB      ZA    FRAG     MASS         X           Y           Z
   0 O     8.0000    0    15.999    0.000000    0.000000    0.000000

--------------------------------
INTERNAL COORDINATES (ANGSTROEM)
--------------------------------
 O      0   0   0     0.000000000000     0.00000000     0.00000000

---------------------------
INTERNAL COORDINATES (A.U.)
---------------------------
 O      0   0   0     0.000000000000     0.00000000     0.00000000

---------------------
BASIS SET INFORMATION
---------------------
There are 1 groups of distinct atoms

 Group   1 Type O   : 19s6p3d2f contracted to 5s4p3d2f pattern {88111/3111/111/11}

Atom   0O    basis set group =>   1


           ************************************************************
           *        Program running with 15 parallel MPI-processes    *
           *              working on a common directory               *
           ************************************************************
------------------------------------------------------------------------------
                           ORCA GTO INTEGRAL CALCULATION
------------------------------------------------------------------------------

                         BASIS SET STATISTICS AND STARTUP INFO

 # of primitive gaussian shells          ...   30
 # of primitive gaussian functions       ...   66
 # of contracted shells                  ...   14
 # of contracted basis functions         ...   46
 Highest angular momentum                ...    3
 Maximum contraction depth               ...    8
 Integral package used                   ... LIBINT
 Integral threshhold            Thresh   ...  2.500e-11
 Primitive cut-off              TCut     ...  2.500e-12


------------------------------ INTEGRAL EVALUATION ----------------------------


 * One electron integrals 
 Pre-screening matrix                    ... done
 Shell pair data                         ... done (   0.000 sec)



           ************************************************************
           *        Program running with 15 parallel MPI-processes    *
           *              working on a common directory               *
           ************************************************************
-------------------------------------------------------------------------------
                                 ORCA SCF
-------------------------------------------------------------------------------

------------
SCF SETTINGS
------------
Hamiltonian:
 Ab initio Hamiltonian  Method          .... Hartree-Fock(GTOs)


General Settings:
 Integral files         IntName         .... 08_O
 Hartree-Fock type      HFTyp           .... UHF
 Total Charge           Charge          ....    0
 Multiplicity           Mult            ....    3
 Number of Electrons    NEL             ....    8
 Basis Dimension        Dim             ....   46
 Nuclear Repulsion      ENuc            ....      0.0000000000 Eh

Convergence Acceleration:
 DIIS                   CNVDIIS         .... on
   Start iteration      DIISMaxIt       ....    12
   Startup error        DIISStart       ....  0.200000
   # of expansion vecs  DIISMaxEq       ....     5
   Bias factor          DIISBfac        ....   1.050
   Max. coefficient     DIISMaxC        ....  10.000
 Newton-Raphson         CNVNR           .... off
 SOSCF                  CNVSOSCF        .... off
 Level Shifting         CNVShift        .... on
   Level shift para.    LevelShift      ....    0.2500
   Turn off err/grad.   ShiftErr        ....    0.0010
 Zerner damping         CNVZerner       .... off
 Static damping         CNVDamp         .... on
   Fraction old density DampFac         ....    0.7000
   Max. Damping (<1)    DampMax         ....    0.9800
   Min. Damping (>=0)   DampMin         ....    0.0000
   Turn off err/grad.   DampErr         ....    0.1000
 Fernandez-Rico         CNVRico         .... off

SCF Procedure:
 Maximum # iterations   MaxIter         ....   125
 SCF integral mode      SCFMode         .... Direct
   Integral package                     .... LIBINT
 Reset frequency        DirectResetFreq ....    20
 Integral Threshold     Thresh          ....  2.500e-11 Eh
 Primitive CutOff       TCut            ....  2.500e-12 Eh

Convergence Tolerance:
 Convergence Check Mode ConvCheckMode   .... Total+1el-Energy
 Convergence forced     ConvForced      .... 1
 Energy Change          TolE            ....  1.000e-08 Eh
 1-El. energy change                    ....  1.000e-05 Eh
 DIIS Error             TolErr          ....  5.000e-07


Diagonalization of the overlap matrix:
Smallest eigenvalue                        ... 2.789e-02
Time for diagonalization                   ...    0.001 sec
Threshold for overlap eigenvalues          ... 1.000e-08
Number of eigenvalues below threshold      ... 0
Time for construction of square roots      ...    0.008 sec
Total time needed                          ...    0.009 sec

-------------------
DFT GRID GENERATION
-------------------

General Integration Accuracy     IntAcc      ...  4.340
Radial Grid Type                 RadialGrid  ... Gauss-Chebyshev
Angular Grid (max. acc.)         AngularGrid ... Lebedev-110
Angular grid pruning method      GridPruning ... 3 (G Style)
Weight generation scheme         WeightScheme... Becke
Basis function cutoff            BFCut       ...    1.0000e-11
Integration weight cutoff        WCut        ...    1.0000e-14
Grids for H and He will be reduced by one unit

# of grid points (after initial pruning)     ...   1716 (   0.0 sec)
# of grid points (after weights+screening)   ...   1716 (   0.0 sec)
Grid point division into batches done        ...    0.0 sec
Reduced shell lists constructed in    0.0 sec

Total number of grid points                  ...     1716
Total number of batches                      ...       27
Average number of points per batch           ...       63
Average number of grid points per atom       ...     1716
Average number of shells per batch           ...     7.33 (52.38%)
Average number of basis functions per batch  ...    24.67 (53.62%)
Average number of large shells per batch     ...     6.00 (81.82%)
Average number of large basis fcns per batch ...    19.33 (78.38%)
Maximum spatial batch extension              ...  13.89, 25.65, 25.65 au
Average spatial batch extension              ...   1.03,  1.90,  1.90 au

Time for grid setup =    0.026 sec

------------------------------
INITIAL GUESS: MODEL POTENTIAL
------------------------------
Loading Hartree-Fock densities                     ... done
Calculating cut-offs                               ... done
Setting up the integral package                    ... done
Initializing the effective Hamiltonian             ... done
Starting the Coulomb interaction                   ... done (   0.0 sec)
Reading the grid                                   ... done
Mapping shells                                     ... done
Starting the XC term evaluation                    ... done (   0.0 sec)
Transforming the Hamiltonian                       ... done (   0.0 sec)
Diagonalizing the Hamiltonian                      ... done (   0.0 sec)
Back transforming the eigenvectors                 ... done (   0.0 sec)
Now organizing SCF variables                       ... done
                      ------------------
                      INITIAL GUESS DONE (   0.2 sec)
                      ------------------
--------------
SCF ITERATIONS
--------------
ITER       Energy         Delta-E        Max-DP      RMS-DP      [F,P]     Damp
               ***  Starting incremental Fock matrix formation  ***
  0    -74.7914477157   0.000000000000 0.01085530  0.00048168  0.2073880 0.7000
  1    -74.7966507363  -0.005203020576 0.00897938  0.00039184  0.1477870 0.7000
                               ***Turning on DIIS***
  2    -74.8007280229  -0.004077286667 0.00682609  0.00029729  0.1049015 0.7000
  3    -74.7629611942   0.037766828765 0.01940181  0.00083835  0.0745438 0.0000
  4    -74.8088952355  -0.045934041319 0.00409385  0.00017238  0.0088118 0.0000
  5    -74.8138591799  -0.004963944361 0.00316052  0.00012346  0.0034934 0.0000
  6    -74.8127013096   0.001157870222 0.00156169  0.00005769  0.0016124 0.0000
  7    -74.8130411098  -0.000339800152 0.00059773  0.00002374  0.0004665 0.0000
  8    -74.8130422626  -0.000001152820 0.00019898  0.00000749  0.0001041 0.0000
  9    -74.8129887385   0.000053524151 0.00004957  0.00000219  0.0000114 0.0000
 10    -74.8129845666   0.000004171909 0.00002453  0.00000097  0.0000041 0.0000
 11    -74.8129837547   0.000000811872 0.00001234  0.00000047  0.0000019 0.0000
                            ***DIIS convergence achieved***

               *****************************************************
               *                     SUCCESS                       *
               *           SCF CONVERGED AFTER  12 CYCLES          *
               *****************************************************


----------------
TOTAL SCF ENERGY
----------------

Total Energy       :          -74.81298274 Eh           -2035.76476 eV

Components:
Nuclear Repulsion  :            0.00000000 Eh               0.00000 eV
Electronic Energy  :          -74.81298274 Eh           -2035.76476 eV
One Electron Energy:         -103.23039460 Eh           -2809.04185 eV
Two Electron Energy:           28.41741186 Eh             773.27709 eV

Virial components:
Potential Energy   :         -149.60475263 Eh           -4070.95228 eV
Kinetic Energy     :           74.79176989 Eh            2035.18753 eV
Virial Ratio       :            2.00028363


---------------
SCF CONVERGENCE
---------------

  Last Energy change         ...    1.0161e-06  Tolerance :   1.0000e-08
  Last MAX-Density change    ...    3.3430e-06  Tolerance :   1.0000e-07
  Last RMS-Density change    ...    1.2980e-07  Tolerance :   5.0000e-09
  Last DIIS Error            ...    4.4638e-07  Tolerance :   5.0000e-07

             **** THE GBW FILE WAS UPDATED (08_O.gbw) ****
             **** DENSITY FILE WAS UPDATED (08_O.scfp) ****
             **** ENERGY FILE WAS UPDATED (08_O.en.tmp) ****
----------------------
UHF SPIN CONTAMINATION
----------------------

Expectation value of <S**2>     :     2.009199
Ideal value S*(S+1) for S=1.0   :     2.000000
Deviation                       :     0.009199

             **** THE GBW FILE WAS UPDATED (08_O.gbw) ****
             **** DENSITY FILE WAS UPDATED (08_O.scfp) ****
----------------
ORBITAL ENERGIES
----------------
                 SPIN UP ORBITALS
  NO   OCC          E(Eh)            E(eV) 
   0   1.0000     -20.710799      -563.5695 
   1   1.0000      -1.419560       -38.6282 
   2   1.0000      -0.710995       -19.3472 
   3   1.0000      -0.710995       -19.3472 
   4   1.0000      -0.611817       -16.6484 
   5   0.0000       0.153155         4.1676 
   6   0.0000       0.153155         4.1676 
   7   0.0000       0.155500         4.2314 
   8   0.0000       0.162737         4.4283 
   9   0.0000       0.622787        16.9469 
  10   0.0000       0.622787        16.9469 
  11   0.0000       0.640524        17.4295 
  12   0.0000       0.640524        17.4295 
  13   0.0000       0.646666        17.5967 
  14   0.0000       0.866835        23.5878 
  15   0.0000       0.866835        23.5878 
  16   0.0000       0.910719        24.7819 
  17   0.0000       1.261008        34.3138 
  18   0.0000       1.994990        54.2864 
  19   0.0000       1.994990        54.2864 
  20   0.0000       2.018401        54.9235 
  21   0.0000       2.018401        54.9235 
  22   0.0000       2.032757        55.3141 
  23   0.0000       2.032757        55.3141 
  24   0.0000       2.037604        55.4460 
  25   0.0000       2.040336        55.5204 
  26   0.0000       2.040336        55.5204 
  27   0.0000       2.088868        56.8410 
  28   0.0000       2.088868        56.8410 
  29   0.0000       2.106187        57.3123 
  30   0.0000       4.060745       110.4985 
  31   0.0000       4.060745       110.4985 
  32   0.0000       4.134690       112.5106 
  33   0.0000       6.332556       172.3176 
  34   0.0000       6.332556       172.3176 
  35   0.0000       6.378992       173.5812 
  36   0.0000       6.378992       173.5812 
  37   0.0000       6.407348       174.3528 
  38   0.0000       6.407348       174.3528 
  39   0.0000       6.416894       174.6125 
  40   0.0000       6.830167       185.8583 
  41   0.0000       6.830167       185.8583 
  42   0.0000       6.896470       187.6625 
  43   0.0000       6.896470       187.6625 
  44   0.0000       6.919018       188.2761 
  45   0.0000       8.263217       224.8536 

                 SPIN DOWN ORBITALS
  NO   OCC          E(Eh)            E(eV) 
   0   1.0000     -20.632305      -561.4336 
   1   1.0000      -1.077293       -29.3146 
   2   1.0000      -0.521805       -14.1990 
   3   0.0000       0.064869         1.7652 
   4   0.0000       0.064869         1.7652 
   5   0.0000       0.166981         4.5438 
   6   0.0000       0.169317         4.6073 
   7   0.0000       0.227045         6.1782 
   8   0.0000       0.227045         6.1782 
   9   0.0000       0.655919        17.8485 
  10   0.0000       0.655941        17.8491 
  11   0.0000       0.655941        17.8491 
  12   0.0000       0.657479        17.8909 
  13   0.0000       0.657479        17.8909 
  14   0.0000       0.939694        25.5704 
  15   0.0000       1.019770        27.7493 
  16   0.0000       1.019770        27.7493 
  17   0.0000       1.340198        36.4686 
  18   0.0000       2.033286        55.3285 
  19   0.0000       2.033286        55.3285 
  20   0.0000       2.042983        55.5924 
  21   0.0000       2.042983        55.5924 
  22   0.0000       2.048749        55.7493 
  23   0.0000       2.048749        55.7493 
  24   0.0000       2.050654        55.8011 
  25   0.0000       2.167089        58.9695 
  26   0.0000       2.172678        59.1216 
  27   0.0000       2.172678        59.1216 
  28   0.0000       2.192789        59.6688 
  29   0.0000       2.192789        59.6688 
  30   0.0000       4.182059       113.7996 
  31   0.0000       4.233231       115.1921 
  32   0.0000       4.233231       115.1921 
  33   0.0000       6.441418       175.2799 
  34   0.0000       6.441418       175.2799 
  35   0.0000       6.455738       175.6696 
  36   0.0000       6.455738       175.6696 
  37   0.0000       6.464251       175.9012 
  38   0.0000       6.464251       175.9012 
  39   0.0000       6.467075       175.9781 
  40   0.0000       7.007107       190.6731 
  41   0.0000       7.010017       190.7523 
  42   0.0000       7.010017       190.7523 
  43   0.0000       7.019551       191.0117 
  44   0.0000       7.019551       191.0117 
  45   0.0000       8.348993       227.1877 

                    ********************************
                    * MULLIKEN POPULATION ANALYSIS *
                    ********************************

--------------------------------------------
MULLIKEN ATOMIC CHARGES AND SPIN POPULATIONS
--------------------------------------------
   0 O :   -0.000000    2.000000
Sum of atomic charges         :   -0.0000000
Sum of atomic spin populations:    2.0000000

-----------------------------------------------------
MULLIKEN REDUCED ORBITAL CHARGES AND SPIN POPULATIONS
-----------------------------------------------------
CHARGE
  0 O s       :     3.998403  s :     3.998403
      pz      :     1.001085  p :     3.999625
      px      :     1.998642
      py      :     0.999897
      dz2     :     0.000396  d :     0.001597
      dxz     :     0.000006
      dyz     :     0.000000
      dx2y2   :     0.001195
      dxy     :     0.000000
      f0      :     0.000038  f :     0.000375
      f+1     :     0.000064
      f-1     :     0.000006
      f+2     :     0.000064
      f-2     :     0.000000
      f+3     :     0.000106
      f-3     :     0.000096

SPIN
  0 O s       :     0.000614  s :     0.000614
      pz      :     0.998709  p :     1.999633
      px      :     0.001026
      py      :     0.999897
      dz2     :    -0.000152  d :    -0.000614
      dxz     :    -0.000002
      dyz     :    -0.000000
      dx2y2   :    -0.000459
      dxy     :    -0.000000
      f0      :     0.000038  f :     0.000367
      f+1     :     0.000061
      f-1     :     0.000006
      f+2     :     0.000064
      f-2     :     0.000000
      f+3     :     0.000101
      f-3     :     0.000096


                     *******************************
                     * LOEWDIN POPULATION ANALYSIS *
                     *******************************

-------------------------------------------
LOEWDIN ATOMIC CHARGES AND SPIN POPULATIONS
-------------------------------------------
   0 O :   -0.000000    2.000000

----------------------------------------------------
LOEWDIN REDUCED ORBITAL CHARGES AND SPIN POPULATIONS
----------------------------------------------------
CHARGE
  0 O s       :     3.998403  s :     3.998403
      pz      :     1.001085  p :     3.999625
      px      :     1.998642
      py      :     0.999897
      dz2     :     0.000396  d :     0.001597
      dxz     :     0.000006
      dyz     :     0.000000
      dx2y2   :     0.001195
      dxy     :     0.000000
      f0      :     0.000038  f :     0.000375
      f+1     :     0.000064
      f-1     :     0.000006
      f+2     :     0.000064
      f-2     :     0.000000
      f+3     :     0.000106
      f-3     :     0.000096

SPIN
  0 O s       :     0.000614  s :     0.000614
      pz      :     0.998709  p :     1.999633
      px      :     0.001026
      py      :     0.999897
      dz2     :    -0.000152  d :    -0.000614
      dxz     :    -0.000002
      dyz     :    -0.000000
      dx2y2   :    -0.000459
      dxy     :    -0.000000
      f0      :     0.000038  f :     0.000367
      f+1     :     0.000061
      f-1     :     0.000006
      f+2     :     0.000064
      f-2     :     0.000000
      f+3     :     0.000101
      f-3     :     0.000096


                      *****************************
                      * MAYER POPULATION ANALYSIS *
                      *****************************

  NA   - Mulliken gross atomic population
  ZA   - Total nuclear charge
  QA   - Mulliken gross atomic charge
  VA   - Mayer's total valence
  BVA  - Mayer's bonded valence
  FA   - Mayer's free valence

  ATOM       NA         ZA         QA         VA         BVA        FA
  0 O      8.0000     8.0000    -0.0000     2.0184     0.0000     2.0184

  Mayer bond orders larger than 0.100000


-------
TIMINGS
-------

Total SCF time: 0 days 0 hours 0 min 2 sec 

Total time                  ....       2.456 sec
Sum of individual times     ....       1.990 sec  ( 81.0%)

Fock matrix formation       ....       1.556 sec  ( 63.4%)
Diagonalization             ....       0.031 sec  (  1.3%)
Density matrix formation    ....       0.002 sec  (  0.1%)
Population analysis         ....       0.141 sec  (  5.8%)
Initial guess               ....       0.142 sec  (  5.8%)
Orbital Transformation      ....       0.000 sec  (  0.0%)
Orbital Orthonormalization  ....       0.000 sec  (  0.0%)
DIIS solution               ....       0.091 sec  (  3.7%)


           ************************************************************
           *        Program running with 15 parallel MPI-processes    *
           *              working on a common directory               *
           ************************************************************


------------------------------------------------------------------------------- 
                              ORCA-MATRIX DRIVEN CI                            
------------------------------------------------------------------------------- 

--------------------------------
AUTOMATIC CHOICE OF INCORE LEVEL
--------------------------------

Memory available                           ...   2500.00 MB
Memory needed for S+T                      ...      0.38 MB
Memory needed for J+K                      ...      0.78 MB
Memory needed for DIIS                     ...      5.39 MB
Memory needed for 3-ext                    ...      2.10 MB
Memory needed for 4-ext                    ...     11.04 MB
Memory needed for triples                  ...      2.63 MB
 -> Final InCoreLevel    ... 5
 -> check shows that triples correction can be computed


Wavefunction type
-----------------
Correlation treatment                      ...      CCSD     
Single excitations                         ... ON
Orbital optimization                       ... OFF
Calculation of Z vector                    ... OFF
Calculation of Brueckner orbitals          ... OFF
Perturbative triple excitations            ... ON
Calculation of F12 correction              ... OFF
Frozen core treatment                      ... chemical core (2 el)
Reference Wavefunction                     ... UHF
  Alpha-MOs occ    :     1 ...    4 (  4 MO's/  4 electrons)
  Beta-MOs occ     :     1 ...    2 (  2 MO's/  2 electrons)
  Alpha-MOs virt   :     5 ...   45 ( 41 MO's              )
  Beta-MOs virt    :     3 ...   45 ( 43 MO's              )
Number of AO's                             ...     46
Number of electrons                        ...      8
Number of correlated electrons             ...      6

Algorithmic settings
--------------------
Integral transformation                    ... AO direct full transformation
K(C) Formation                             ... FULL-MO TRAFO
Maximum number of iterations               ...        50
Convergence tolerance (max. residuum)      ... 1.000e-05
Level shift for amplitude update           ... 2.000e-01
Maximum number of DIIS vectors             ...         7
DIIS turned on at iteration                ...         0
Damping before turning on DIIS             ...     0.500
Damping after turning on DIIS              ...     0.000
Pair specific amplitude update             ... OFF
Natural orbital iterations                 ... OFF
Perturbative natural orbital generation    ... OFF
Printlevel                                 ... 2

Memory handling:
----------------
Maximum memory for working arrays          ...   2500 MB
Data storage in matrix containers          ... UNCOMPRESSED
Data type for integral storage             ... DOUBLE
In-Core Storage of quantities:
   Amplitudes+Sigma Vector      ... YES
   J+K operators                ... YES
   DIIS vectors                 ... YES
   3-external integrals         ... YES
   4-external integrals         ... YES


Initializing the integral package          ... done
Warning: reference  - re-canonicalizations have been set to INT 1 VIRT 1

--------------------------
UNRESTRICTED FOCK OPERATOR
--------------------------

<ss|ss>:          120 b            0 skpd (  0.0%)    0.001 s ( 0.005 ms/b)
<ss|sp>:          300 b            0 skpd (  0.0%)    0.001 s ( 0.002 ms/b)
<ss|sd>:          225 b            0 skpd (  0.0%)    0.000 s ( 0.001 ms/b)
<ss|sf>:          150 b            0 skpd (  0.0%)    0.000 s ( 0.002 ms/b)
<ss|pp>:          150 b            0 skpd (  0.0%)    0.000 s ( 0.002 ms/b)
<ss|pd>:          180 b            0 skpd (  0.0%)    0.000 s ( 0.001 ms/b)
<ss|pf>:          120 b            0 skpd (  0.0%)    0.000 s ( 0.001 ms/b)
<ss|dd>:           90 b            0 skpd (  0.0%)    0.000 s ( 0.001 ms/b)
<ss|df>:           90 b            0 skpd (  0.0%)    0.000 s ( 0.002 ms/b)
<ss|ff>:           45 b            0 skpd (  0.0%)    0.000 s ( 0.005 ms/b)
<sp|sp>:          210 b            0 skpd (  0.0%)    0.000 s ( 0.001 ms/b)
<sp|sd>:          300 b            0 skpd (  0.0%)    0.000 s ( 0.000 ms/b)
<sp|sf>:          200 b            0 skpd (  0.0%)    0.000 s ( 0.002 ms/b)
<sp|pp>:          200 b            0 skpd (  0.0%)    0.000 s ( 0.001 ms/b)
<sp|pd>:          240 b            0 skpd (  0.0%)    0.000 s ( 0.001 ms/b)
<sp|pf>:          160 b            0 skpd (  0.0%)    0.000 s ( 0.001 ms/b)
<sp|dd>:          120 b            0 skpd (  0.0%)    0.000 s ( 0.002 ms/b)
<sp|df>:          120 b            0 skpd (  0.0%)    0.000 s ( 0.002 ms/b)
<sp|ff>:           60 b            0 skpd (  0.0%)    0.000 s ( 0.007 ms/b)
<sd|sd>:          120 b            0 skpd (  0.0%)    0.000 s ( 0.001 ms/b)
<sd|sf>:          150 b            0 skpd (  0.0%)    0.000 s ( 0.002 ms/b)
<sd|pp>:          150 b            0 skpd (  0.0%)    0.000 s ( 0.002 ms/b)
<sd|pd>:          180 b            0 skpd (  0.0%)    0.000 s ( 0.001 ms/b)
<sd|pf>:          120 b            0 skpd (  0.0%)    0.000 s ( 0.002 ms/b)
<sd|dd>:           90 b            0 skpd (  0.0%)    0.000 s ( 0.002 ms/b)
<sd|df>:           90 b            0 skpd (  0.0%)    0.000 s ( 0.004 ms/b)
<sd|ff>:           45 b            0 skpd (  0.0%)    0.001 s ( 0.013 ms/b)
<sf|sf>:           55 b            0 skpd (  0.0%)    0.000 s ( 0.009 ms/b)
<sf|pp>:          100 b            0 skpd (  0.0%)    0.000 s ( 0.004 ms/b)
<sf|pd>:          120 b            0 skpd (  0.0%)    0.000 s ( 0.002 ms/b)
<sf|pf>:           80 b            0 skpd (  0.0%)    0.000 s ( 0.004 ms/b)
<sf|dd>:           60 b            0 skpd (  0.0%)    0.000 s ( 0.004 ms/b)
<sf|df>:           60 b            0 skpd (  0.0%)    0.000 s ( 0.008 ms/b)
<sf|ff>:           30 b            0 skpd (  0.0%)    0.001 s ( 0.024 ms/b)
<pp|pp>:           55 b            0 skpd (  0.0%)    0.000 s ( 0.003 ms/b)
<pp|pd>:          120 b            0 skpd (  0.0%)    0.000 s ( 0.001 ms/b)
<pp|pf>:           80 b            0 skpd (  0.0%)    0.000 s ( 0.002 ms/b)
<pp|dd>:           60 b            0 skpd (  0.0%)    0.000 s ( 0.003 ms/b)
<pp|df>:           60 b            0 skpd (  0.0%)    0.000 s ( 0.005 ms/b)
<pp|ff>:           30 b            0 skpd (  0.0%)    0.000 s ( 0.013 ms/b)
<pd|pd>:           78 b            0 skpd (  0.0%)    0.000 s ( 0.004 ms/b)
<pd|pf>:           96 b            0 skpd (  0.0%)    0.000 s ( 0.004 ms/b)
<pd|dd>:           72 b            0 skpd (  0.0%)    0.000 s ( 0.005 ms/b)
<pd|df>:           72 b            0 skpd (  0.0%)    0.001 s ( 0.009 ms/b)
<pd|ff>:           36 b            0 skpd (  0.0%)    0.001 s ( 0.024 ms/b)
<pf|pf>:           36 b            0 skpd (  0.0%)    0.000 s ( 0.010 ms/b)
<pf|dd>:           48 b            0 skpd (  0.0%)    0.000 s ( 0.007 ms/b)
<pf|df>:           48 b            0 skpd (  0.0%)    0.001 s ( 0.014 ms/b)
<pf|ff>:           24 b            0 skpd (  0.0%)    0.001 s ( 0.039 ms/b)
<dd|dd>:           21 b            0 skpd (  0.0%)    0.000 s ( 0.012 ms/b)
<dd|df>:           36 b            0 skpd (  0.0%)    0.001 s ( 0.014 ms/b)
<dd|ff>:           18 b            0 skpd (  0.0%)    0.001 s ( 0.039 ms/b)
<df|df>:           21 b            0 skpd (  0.0%)    0.001 s ( 0.038 ms/b)
<df|ff>:           18 b            0 skpd (  0.0%)    0.001 s ( 0.068 ms/b)
<ff|ff>:            6 b            0 skpd (  0.0%)    0.001 s ( 0.160 ms/b)
Recanonicalizing the internal orbitals
Recanonicalizing the virtual orbitals
Time needed for Fock operator              ...            0.051 sec
Reference energy                           ...    -74.812982206
Warning: for UHF the TrafoType has to be JK
Warning: for UHF the K(C)-option cannot be MO but must be AOX

-------------------------------
PARTIAL EXCHANGE TRANSFORMATION
-------------------------------

Transformation type                        ... two-operators
Generation of integrals (i,mue|j,nue)      ... ON
Generation of integrals (mue,kappa|nue,tau)... ON
Generation of integrals (i,mue|a,nue)      ... ON
Dimension of the basis                     ...   46
Number of internal alpha-MOs               ...    4 (   1-   4)
Number of internal beta-MOs                ...    2 (   1-   2)
Number of external alpha-MOs               ...   41 (   5-  45)
Number of external beta-MOs                ...   43 (   3-  45)
Pair cutoff                                ... 0.000e+00 Eh
Number of AO pairs in the trafo            ... 1081
Total Number of distinct AO pairs          ... 1081
Memory devoted for trafo                   ... 2500.0 MB 
Max. Number of MO pairs treated together   ... 154858      
Number Format for Storage                  ... Double (8 Byte)
Integral package used                      ... LIBINT

Starting integral evaluation:
    ... done with AO integral generation
Closing buffer AOK[aa] ( 0.00 GB; CompressionRatio= 0.00)
Closing buffer AOK[bb] ( 0.00 GB; CompressionRatio= 0.00)
Closing buffer AOK[ab] ( 0.00 GB; CompressionRatio= 0.00)
Closing buffer AOK[ba] ( 0.00 GB; CompressionRatio= 0.00)
Collecting buffer AOK 
Closing buffer IAAO1[aa] ( 0.00 GB; CompressionRatio= 0.00)
Closing buffer IAAO1[bb] ( 0.00 GB; CompressionRatio= 0.00)
Closing buffer IAAO1[ab] ( 0.00 GB; CompressionRatio= 0.00)
Closing buffer IAAO1[ba] ( 0.00 GB; CompressionRatio= 0.00)
Closing buffer IAAO2[aa] ( 0.00 GB; CompressionRatio= 0.00)
Closing buffer IAAO2[bb] ( 0.00 GB; CompressionRatio= 0.00)
Closing buffer IAAO2[ab] ( 0.00 GB; CompressionRatio= 0.00)
Closing buffer IAAO2[ba] ( 0.00 GB; CompressionRatio= 0.00)
Collecting buffer IAAO 
Closing buffer PRQS    ( 0.00 GB; CompressionRatio= 0.00)
Collecting buffer PRQS 
Number of alpha/alpha MO pairs in trafo    ...   10
Number of beta /beta  MO pairs in trafo    ...    3
Number of alpha/ beta MO pairs in trafo    ...    8
------------------------
SORTING OF (i,mue|j,nue)
------------------------

SORTING OF ALPHA/ALPHA PAIRS
IBATCH = 1 of  1
Closing buffer KAO[aa] ( 0.00 GB; CompressionRatio= 1.00)
Collecting buffer KAO 
SORTING OF BETA /BETA  PAIRS
IBATCH = 1 of  1
Closing buffer KAO[bb] ( 0.00 GB; CompressionRatio= 1.00)
Collecting buffer KAO 
SORTING OF ALPHA/BETA  PAIRS
IBATCH = 1 of  1
Closing buffer KAO[ab] ( 0.00 GB; CompressionRatio= 0.999291617473)
Collecting buffer KAO[ab] 
------------------------
SORTING OF (i,mue|a,nue)
------------------------

Number of alpha/alpha (i,a) pairs in trafo  ...  164
Number of beta /beta  (i,a) pairs in trafo  ...   86
Number of alpha/ beta (i,a) pairs in trafo  ...  172
Number of beta /alpha (i,a) pairs in trafo  ...   82
Setting up the alpha/alpha list             ... done
Setting up the beta /beta  list             ... done
Setting up the alpha/beta  list             ... done
Setting up the beta /alpha list             ... done
    ... Now sorting (i,mue|a,nue)integrals
    ... Integrals (i,b|a,c) will be made on the fly
SORTING OF ALPHA/ALPHA PAIRS
IBATCH = 1 of  1
Closing buffer IPAQ[aa]  0.00 GB; CompressionRatio= 1.00)
SORTING OF BETA /BETA  PAIRS
IBATCH = 1 of  1
Closing buffer IPAQ[bb]( 0.00 GB; CompressionRatio= 1.00)
SORTING OF ALPHA/BETA  PAIRS (NMatSort_ab=12)
IBATCH = 1 of  1
Closing buffer IPAQ[ab]( 0.00 GB; CompressionRatio= 1.00)
SORTING OF BETA/ALPHA  PAIRS
IBATCH = 1 of  1
Closing buffer IPAQ[ba]( 0.00 GB; CompressionRatio= 1.00)
N(AO-Batches) Done                         ...         0 
N(AO-Batches) Skipped                      ...         0 
N(IJ)-pairs Skipped                        ...         0 
TOTAL TIME for half transformation         ...     1.682 sec
AO-integral generation                     ...     0.000 sec
Half transformation                        ...     0.000 sec
K-integral sorting                         ...     0.322 sec
<ss|**>: 
------------------------------
PARTIAL COULOMB TRANSFORMATION
------------------------------

Transformation type                        ... two-operators
Dimension of the basis                     ...   46
Number of internal alpha-MOs               ...    4 (1-4)
Number of internal beta-MOs                ...    2 (1-2)
Pair cutoff                                ... 0.000e+00 Eh
Number of AO pairs included in the trafo   ... 1081
Total Number of distinct AO pairs          ... 1081
Memory devoted for trafo                   ... 2500.0 MB 
Max. Number of MO pairs treated together   ... 303126      
Max. Number of MOs treated per batch       ... 6589      
Number Format for Storage                  ... Double (8 Byte)
AO-integral source                         ... DIRECT
Integral package used                      ... LIBINT

Starting integral evaluation:
        1575 b        0 skpd     0.001 s (  0.001 ms/b)
<sp|**>: <sd|**>:         2100 b        0 skpd     0.009 s (  0.004 ms/b)
<sf|**>:         1575 b        0 skpd     0.011 s (  0.007 ms/b)
<pp|**>:         1050 b        0 skpd     0.011 s (  0.010 ms/b)
        1050 b        0 skpd     0.012 s (  0.011 ms/b)
<pd|**>:         1260 b        0 skpd     0.025 s (  0.020 ms/b)
<pf|**>: <dd|**>:          840 b        0 skpd     0.024 s (  0.029 ms/b)
         630 b        0 skpd     0.021 s (  0.033 ms/b)
<df|**>:          630 b        0 skpd     0.034 s (  0.054 ms/b)
<ff|**>:          315 b        0 skpd     0.033 s (  0.104 ms/b)
Closing buffer AOJ[aa] ( 0.00 GB; CompressionRatio= 0.87)
Closing buffer AOJ[bb] ( 0.00 GB; CompressionRatio= 0.00)
Collecting buffer AOJ 
    ... done with AO integral generation
Number of Alpha-MO pairs included          ...   10
Number of Beta-MO pairs included           ...    3
    ... Now sorting integrals
SORTING ALPHA/ALPHA PAIRS
IBATCH = 1 of  1
Closing buffer JAO[aa] ( 0.00 GB; CompressionRatio= 1.00)
SORTING BETA/BETA PAIRS
IBATCH = 1 of  1
Closing buffer JAO[bb] ( 0.00 GB; CompressionRatio= 1.00)
Collecting buffer JAO 
TOTAL TIME for half transformation         ...     0.338 sec
AO-integral generation                     ...     0.108 sec
Half transformation                        ...     0.073 sec
J-integral sorting                         ...     0.034 sec

-------------------------- SECOND HALF TRANSFORMATION -------------------------
Formation of (ij|kl),(ij|ka), (ij|ab)      ... ok (     0.070 sec)
Formation of (ik|jl),(ik|ja), (ia|jb)      ... ok (     0.094 sec)


-----------------------
SPIN UNRESTRICTED GUESS
-----------------------

Entering MDCI_UHF_Guess, Tailored=0
Spin-components of the MP2 energy:
EMP2(aa)=     -0.031698279
EMP2(bb)=     -0.004367320
EMP2(ab)=     -0.110246325

Initial guess performed in     0.001 sec
E(0)                                       ...    -74.812982206
E(MP2)                                     ...     -0.146311924
Initial E(tot)                             ...    -74.959294131
<T|T>                                      ...      0.029397208
Number of pairs included                   ... 15

------------------------------------------------
                  UHF COUPLED CLUSTER ITERATIONS
------------------------------------------------

Number of amplitudes to be optimized       ...        20193

Iter       E(tot)           E(Corr)          Delta-E          Residual     Time      <S|S>**1/2
  0    -74.959294131     -0.146311924     -0.000000000      0.018039598    0.07      0.000000178
                           *** Turning on DIIS ***
  1    -74.971121483     -0.158139277     -0.011827353      0.005863145    0.04      0.010914280
  2    -74.974791993     -0.161809787     -0.003670510      0.001612043    0.05      0.016174449
  3    -74.975373463     -0.162391257     -0.000581470      0.000800091    0.05      0.018805287
  4    -74.975494521     -0.162512315     -0.000121058      0.000405055    0.05      0.019681022
  5    -74.975518638     -0.162536431     -0.000024117      0.000163095    0.04      0.019918083
  6    -74.975521152     -0.162538945     -0.000002514      0.000050993    0.04      0.019893336
  7    -74.975522061     -0.162539855     -0.000000910      0.000011128    0.04      0.019872692
  8    -74.975522316     -0.162540109     -0.000000254      0.000002757    0.04      0.019871794
               --- The Coupled-Cluster iterations have converged ---

----------------------
COUPLED CLUSTER ENERGY
----------------------

E(0)                                       ...    -74.812982206
E(CORR)                                    ...     -0.162540109
E(TOT)                                     ...    -74.975522316
Singles norm <S|S>**1/2                    ...      0.019871794 ( 0.014998878, 0.004872917)  
T1 diagnostic                              ...      0.008112626                              

------------------
LARGEST AMPLITUDES
------------------
   4a-> 16a   2b-> 14b       0.038779
   3a-> 14a   2b-> 14b       0.027165
   2a-> 15a   2b-> 14b       0.027165
   1a-> 17a   2b-> 14b       0.022161
   4a-> 16a   1b-> 17b       0.021500
   4a-> 16a   2b->  5b       0.021139
   3a-> 14a   1b-> 17b       0.020773
   2a-> 15a   1b-> 17b       0.020773
   4a-> 14a   3a-> 16a       0.020578
   4a-> 16a   3a-> 14a       0.020578
   4a-> 16a   2a-> 15a       0.020578
   4a-> 15a   2a-> 16a       0.020578
   3a-> 15a   2a-> 14a       0.020366
   3a-> 14a   2a-> 15a       0.020366
   4a->  8a   2b-> 14b       0.019939
   4a-> 29a   2b-> 25b       0.019000

----------------------
UHF TRIPLES CORRECTION (Algorithm 1)
----------------------

Multiplier for the singles contribution    ...      1.000000000

SPIN-CASE Alpha-Alpha-Alpha:
10% done
20% done
30% done
40% done
50% done
60% done
70% done
80% done
90% done


SPIN-CASE Beta-Beta-Beta:

SPIN-CASE Alpha-Alpha-Beta:
10% done
20% done
30% done
40% done
50% done
60% done
70% done
80% done
90% done


SPIN-CASE Beta-Beta-Alpha:
10% done
20% done
30% done
40% done
50% done
60% done
70% done
80% done
90% done


Triples Correction (T)                     ...     -0.003429978
    alpha-alpha-alpha ... -0.000190744 (  5.6%)
    alpha-alpha-beta  ... -0.002481442 ( 72.3%)
    alpha-beta -beta  ... -0.000757792 ( 22.1%)
    beta -beta -beta  ...  0.000000000 ( -0.0%)
Scaling of triples based on CCSD energies (Peterson et al. Molecular Physics 113, 1551 (2015))
E(T*) = f*E(T) where f = E(F12-CCSD)/E(CCSD) 
f = CCSD (with F12)/ CCSD (without F12)    ...      1.000000000
Scaled triples correction (T)              ...     -0.003429978

Final correlation energy                   ...     -0.165970087
E(CCSD)                                    ...    -74.975522316
E(CCSD(T))                                 ...    -74.978952294



        !!!!!!!!!!!!!!!!!!!!!!!!!!!!!!!!!!!!!!!!!!!!!!!!!!!!!!!!!!!!!!!!!!!!!!!!!! 
        !  Warning: Densities are linearized densities                           !
        !!!!!!!!!!!!!!!!!!!!!!!!!!!!!!!!!!!!!!!!!!!!!!!!!!!!!!!!!!!!!!!!!!!!!!!!!! 

NORM  =      1.039943278 sqrt=     1.019776092
W(HF) =      0.961590907
------------------------------------------------------------------------------
                           ORCA POPULATION ANALYSIS
------------------------------------------------------------------------------
Input electron density              ... 08_O.mdcip
Input spin density                  ... 08_O.mdcir
BaseName (.gbw .S,...)              ... 08_O

                    ********************************
                    * MULLIKEN POPULATION ANALYSIS *
                    ********************************

------------------------------------------
MULLIKEN ATOMIC CHARGES AND SPIN DENSITIES
------------------------------------------
   0 O :   -0.000000    2.000000
Sum of atomic charges       :   -0.0000000
Sum of atomic spin densities:    2.0000000

---------------------------------------------------
MULLIKEN REDUCED ORBITAL CHARGES AND SPIN DENSITIES
---------------------------------------------------
CHARGE
  0 O s       :     3.983992  s :     3.983992
      pz      :     1.001463  p :     3.986379
      px      :     1.984625
      py      :     1.000292
      dz2     :     0.004989  d :     0.026415
      dxz     :     0.005569
      dyz     :     0.004673
      dx2y2   :     0.005617
      dxy     :     0.005567
      f0      :     0.000360  f :     0.003214
      f+1     :     0.000534
      f-1     :     0.000233
      f+2     :     0.000460
      f-2     :     0.000457
      f+3     :     0.000584
      f-3     :     0.000586

SPIN
  0 O s       :     0.011841  s :     0.011841
      pz      :     0.985428  p :     1.974166
      px      :     0.002138
      py      :     0.986599
      dz2     :     0.003243  d :     0.012606
      dxz     :     0.001796
      dyz     :     0.003965
      dx2y2   :     0.001804
      dxy     :     0.001799
      f0      :     0.000161  f :     0.001387
      f+1     :     0.000226
      f-1     :     0.000113
      f+2     :     0.000199
      f-2     :     0.000198
      f+3     :     0.000245
      f-3     :     0.000246


                     *******************************
                     * LOEWDIN POPULATION ANALYSIS *
                     *******************************

-----------------------------------------
LOEWDIN ATOMIC CHARGES AND SPIN DENSITIES
-----------------------------------------
   0 O :   -0.000000    2.000000

--------------------------------------------------
LOEWDIN REDUCED ORBITAL CHARGES AND SPIN DENSITIES
--------------------------------------------------
CHARGE
  0 O s       :     3.983992  s :     3.983992
      pz      :     1.001463  p :     3.986379
      px      :     1.984625
      py      :     1.000292
      dz2     :     0.004989  d :     0.026415
      dxz     :     0.005569
      dyz     :     0.004673
      dx2y2   :     0.005617
      dxy     :     0.005567
      f0      :     0.000360  f :     0.003214
      f+1     :     0.000534
      f-1     :     0.000233
      f+2     :     0.000460
      f-2     :     0.000457
      f+3     :     0.000584
      f-3     :     0.000586

SPIN
  0 O s       :     0.011841  s :     0.011841
      pz      :     0.985428  p :     1.974166
      px      :     0.002138
      py      :     0.986599
      dz2     :     0.003243  d :     0.012606
      dxz     :     0.001796
      dyz     :     0.003965
      dx2y2   :     0.001804
      dxy     :     0.001799
      f0      :     0.000161  f :     0.001387
      f+1     :     0.000226
      f-1     :     0.000113
      f+2     :     0.000199
      f-2     :     0.000198
      f+3     :     0.000245
      f-3     :     0.000246


                      *****************************
                      * MAYER POPULATION ANALYSIS *
                      *****************************

  NA   - Mulliken gross atomic population
  ZA   - Total nuclear charge
  QA   - Mulliken gross atomic charge
  VA   - Mayer's total valence
  BVA  - Mayer's bonded valence
  FA   - Mayer's free valence

  ATOM       NA         ZA         QA         VA         BVA        FA
  0 O      8.0000     8.0000    -0.0000     2.2499     0.0000     2.2499





------------------------------------------------------------------------------- 
                                     TIMINGS                                   
------------------------------------------------------------------------------- 


Total execution time                   ...        3.217 sec

Fock Matrix Formation                  ...        0.051 sec (  1.6%)
Initial Guess                          ...        0.001 sec (  0.0%)
DIIS Solver                            ...        0.014 sec (  0.4%)
State Vector Update                    ...        0.001 sec (  0.0%)
Sigma-vector construction              ...        0.417 sec ( 13.0%)
  <D|H|D>(2-ext)                       ...        0.002 sec (  0.4% of sigma)
  <D|H|D>(4-ext)                       ...        0.225 sec ( 53.8% of sigma)
  <S|H|0>                              ...        0.004 sec (  1.0% of sigma)
  <D|H|S>(1-ext)                       ...        0.002 sec (  0.6% of sigma)
  Fock-dressing                        ...        0.095 sec ( 22.8% of sigma)
  (ij|ab),(ia|jb)-dressing             ...        0.060 sec ( 14.4% of sigma)
Total Time for computing (T)           ...        0.020 sec (  0.6% of ALL)
  I/O of integral and amplitudes       ...        0.005 sec ( 25.1% of (T))
  External N**7 contributions          ...        0.004 sec ( 20.4% of (T))
  Internal N**7 contributions          ...        0.001 sec (  5.2% of (T))
  N**6 triples energy contributions    ...        0.008 sec ( 38.1% of (T))


-------------------------   --------------------
FINAL SINGLE POINT ENERGY       -74.978952293625
-------------------------   --------------------


                            ***************************************
                            *     ORCA property calculations      *
                            ***************************************

                                    ---------------------
                                    Active property flags
                                    ---------------------
   (+) Dipole Moment


------------------------------------------------------------------------------
                       ORCA ELECTRIC PROPERTIES CALCULATION
------------------------------------------------------------------------------

Dipole Moment Calculation                       ... on
Quadrupole Moment Calculation                   ... off
Polarizability Calculation                      ... off
GBWName                                         ... 08_O.gbw
Electron density file                           ... 08_O.scfp
The origin for moment calculation is the CENTER OF MASS  = ( 0.000000,  0.000000  0.000000)

-------------
DIPOLE MOMENT
-------------
                                X             Y             Z
Electronic contribution:     -0.00000      -0.00000       0.00000
Nuclear contribution   :      0.00000       0.00000       0.00000
                        -----------------------------------------
Total Dipole Moment    :     -0.00000      -0.00000       0.00000
                        -----------------------------------------
Magnitude (a.u.)       :      0.00000
Magnitude (Debye)      :      0.00000



--------------------
Rotational spectrum 
--------------------
 
Rotational constants in cm-1:     0.000000     0.000000     0.000000 
Rotational constants in MHz :     0.000000     0.000000     0.000000 

 Dipole components along the rotational axes: 
x,y,z [a.u.] :    -0.000000    -0.000000     0.000000 
x,y,z [Debye]:    -0.000000    -0.000000     0.000000 

 

                           *** MDCI DENSITY ***

------------------------------------------------------------------------------
                       ORCA ELECTRIC PROPERTIES CALCULATION
------------------------------------------------------------------------------

Dipole Moment Calculation                       ... on
Quadrupole Moment Calculation                   ... off
Polarizability Calculation                      ... off
GBWName                                         ... 08_O.gbw
Electron density file                           ... 08_O.mdcip
The origin for moment calculation is the CENTER OF MASS  = ( 0.000000,  0.000000  0.000000)

-------------
DIPOLE MOMENT
-------------
                                X             Y             Z
Electronic contribution:     -0.00000      -0.00000       0.00000
Nuclear contribution   :      0.00000       0.00000       0.00000
                        -----------------------------------------
Total Dipole Moment    :     -0.00000      -0.00000       0.00000
                        -----------------------------------------
Magnitude (a.u.)       :      0.00000
Magnitude (Debye)      :      0.00000



--------------------
Rotational spectrum 
--------------------
 
Rotational constants in cm-1:     0.000000     0.000000     0.000000 
Rotational constants in MHz :     0.000000     0.000000     0.000000 

 Dipole components along the rotational axes: 
x,y,z [a.u.] :    -0.000000    -0.000000     0.000000 
x,y,z [Debye]:    -0.000000    -0.000000     0.000000 

 

Timings for individual modules:

Sum of individual times         ...        7.287 sec (=   0.121 min)
GTO integral calculation        ...        0.738 sec (=   0.012 min)  10.1 %
SCF iterations                  ...        2.871 sec (=   0.048 min)  39.4 %
MDCI module                     ...        3.678 sec (=   0.061 min)  50.5 %
                             ****ORCA TERMINATED NORMALLY****
TOTAL RUN TIME: 0 days 0 hours 0 minutes 8 seconds 82 msec
