
                                 *****************
                                 * O   R   C   A *
                                 *****************

           --- An Ab Initio, DFT and Semiempirical electronic structure package ---

                  #######################################################
                  #                        -***-                        #
                  #          Department of theory and spectroscopy      #
                  #               Directorship: Frank Neese             #
                  #        Max Planck Institute fuer Kohlenforschung    #
                  #                Kaiser Wilhelm Platz 1               #
                  #                 D-45470 Muelheim/Ruhr               #
                  #                      Germany                        #
                  #                                                     #
                  #                  All rights reserved                #
                  #                        -***-                        #
                  #######################################################


                         Program Version 4.2.0 -  RELEASE  -


 With contributions from (in alphabetic order):
   Daniel Aravena         : Magnetic Suceptibility
   Michael Atanasov       : Ab Initio Ligand Field Theory (pilot matlab implementation)
   Alexander A. Auer      : GIAO ZORA, VPT2
   Ute Becker             : Parallelization
   Giovanni Bistoni       : ED, misc. LED, open-shell LED, HFLED
   Martin Brehm           : Molecular dynamics
   Dmytro Bykov           : SCF Hessian
   Vijay G. Chilkuri      : MRCI spin determinant printing, contributions to CSF-ICE
   Dipayan Datta          : RHF DLPNO-CCSD density
   Achintya Kumar Dutta   : EOM-CC, STEOM-CC
   Dmitry Ganyushin       : Spin-Orbit,Spin-Spin,Magnetic field MRCI
   Miquel Garcia          : C-PCM Hessian, Gaussian charge scheme
   Yang Guo               : DLPNO-NEVPT2, CIM, IAO-localization
   Andreas Hansen         : Spin unrestricted coupled pair/coupled cluster methods
   Benjamin Helmich-Paris : CASSCF linear response (MC-RPA)
   Lee Huntington         : MR-EOM, pCC
   Robert Izsak           : Overlap fitted RIJCOSX, COSX-SCS-MP3, EOM
   Christian Kollmar      : KDIIS, OOCD, Brueckner-CCSD(T), CCSD density
   Simone Kossmann        : Meta GGA functionals, TD-DFT gradient, OOMP2, MP2 Hessian
   Martin Krupicka        : AUTO-CI
   Lucas Lang             : DCDCAS
   Dagmar Lenk            : GEPOL surface, SMD
   Dimitrios Liakos       : Extrapolation schemes; Compound Job, initial MDCI parallelization
   Dimitrios Manganas     : Further ROCIS development; embedding schemes
   Dimitrios Pantazis     : SARC Basis sets
   Taras Petrenko         : DFT Hessian,TD-DFT gradient, ASA, ECA, R-Raman, ABS, FL, XAS/XES, NRVS
   Peter Pinski           : DLPNO-MP2, DLPNO-MP2 Gradient
   Christoph Reimann      : Effective Core Potentials
   Marius Retegan         : Local ZFS, SOC
   Christoph Riplinger    : Optimizer, TS searches, QM/MM, DLPNO-CCSD(T), (RO)-DLPNO pert. Triples
   Tobias Risthaus        : Range-separated hybrids, TD-DFT gradient, RPA, STAB
   Michael Roemelt        : Original ROCIS implementation
   Masaaki Saitow         : Open-shell DLPNO-CCSD energy and density
   Barbara Sandhoefer     : DKH picture change effects
   Avijit Sen             : IP-ROCIS
   Kantharuban Sivalingam : CASSCF convergence, NEVPT2, FIC-MRCI
   Bernardo de Souza      : ESD, SOC TD-DFT
   Georgi Stoychev        : AutoAux, RI-MP2 NMR
   Willem Van den Heuvel  : Paramagnetic NMR
   Boris Wezisla          : Elementary symmetry handling
   Frank Wennmohs         : Technical directorship


 We gratefully acknowledge several colleagues who have allowed us to
 interface, adapt or use parts of their codes:
   Stefan Grimme, W. Hujo, H. Kruse,             : VdW corrections, initial TS optimization,
                  C. Bannwarth                     DFT functionals, gCP, sTDA/sTD-DF
   Ed Valeev, F. Pavosevic, A. Kumar             : LibInt (2-el integral package), F12 methods
   Garnet Chan, S. Sharma, J. Yang, R. Olivares  : DMRG
   Ulf Ekstrom                                   : XCFun DFT Library
   Mihaly Kallay                                 : mrcc  (arbitrary order and MRCC methods)
   Andreas Klamt, Michael Diedenhofen            : otool_cosmo (COSMO solvation model)
   Jiri Pittner, Ondrej Demel                    : Mk-CCSD
   Frank Weinhold                                : gennbo (NPA and NBO analysis)
   Christopher J. Cramer and Donald G. Truhlar   : smd solvation model
   Lars Goerigk                                  : TD-DFT with DH, B97 family of functionals
   V. Asgeirsson, H. Jonsson                     : NEB implementation
   FAccTs GmbH                                   : IRC, NEB, NEB-TS, Multilevel, MM, QM/MM, CI optimization
   S Lehtola, MJT Oliveira, MAL Marques          : LibXC Library


 Your calculation uses the libint2 library for the computation of 2-el integrals
 For citations please refer to: http://libint.valeyev.net

 Your ORCA version has been built with support for libXC version: 4.2.3
 For citations please refer to: https://tddft.org/programs/libxc/

 This ORCA versions uses:
   CBLAS   interface :  Fast vector & matrix operations
   LAPACKE interface :  Fast linear algebra routines
   SCALAPACK package :  Parallel linear algebra routines


----- Orbital basis set information -----
Your calculation utilizes the basis: aug-cc-pVTZ 
    H, B-Ne : Obtained from the ccRepo (grant-hill.group.shef.ac.uk/ccrepo) Feb. 2017
              R. A. Kendall, T. H. Dunning, Jr., R. J. Harrison, J. Chem. Phys. 96, 6796 (1992)
         He : Obtained from the ccRepo (grant-hill.group.shef.ac.uk/ccrepo) Feb. 2017
              D. E. Woon, T. H. Dunning, Jr., J. Chem. Phys. 100, 2975 (1994)
  Li-Be, Na : Obtained from the ccRepo (grant-hill.group.shef.ac.uk/ccrepo) Feb. 2017
              B. P. Prascher, D. E. Woon, K. A. Peterson, T. H. Dunning, Jr., A. K. Wilson, Theor. Chem. Acc. 128, 69 (2011)
         Mg : Obtained from the Peterson Research Group Website (tyr0.chem.wsu.edu/~kipeters) Feb. 2017
              B. P. Prascher, D. E. Woon, K. A. Peterson, T. H. Dunning, Jr., A. K. Wilson, Theor. Chem. Acc. 128, 69 (2011)
      Al-Ar : Obtained from the ccRepo (grant-hill.group.shef.ac.uk/ccrepo) Feb. 2017
              D. E. Woon, T. H. Dunning, Jr., J. Chem. Phys. 98, 1358 (1993)
      Sc-Zn : Obtained from the ccRepo (grant-hill.group.shef.ac.uk/ccrepo) Feb. 2017
              N. B. Balabanov, K. A. Peterson, J. Chem. Phys. 123, 064107 (2005)
              N. B. Balabanov, K. A. Peterson, J. Chem. Phys. 125, 074110 (2006)
      Ga-Kr : Obtained from the ccRepo (grant-hill.group.shef.ac.uk/ccrepo) Feb. 2017
              A. K. Wilson, D. E. Woon, K. A. Peterson, T. H. Dunning, Jr., J. Chem. Phys. 110, 7667 (1999)
     Ag, Au : Obtained from the Peterson Research Group Website (tyr0.chem.wsu.edu/~kipeters) Feb. 2017
              K. A. Peterson, C. Puzzarini, Theor. Chem. Acc. 114, 283 (2005)

================================================================================
                                        WARNINGS
                       Please study these warnings very carefully!
================================================================================


WARNING: your system is open-shell and RHF/RKS was chosen
  ===> : WILL SWITCH to UHF/UKS


WARNING: MDCI localization with Augmented Hessian Foster-Boys
  ===> : Switching off randomization!

WARNING: Post HF methods need fully converged wavefunctions
  ===> : Setting SCFConvForced true
         You can overwrite this default with %scf ConvForced false 


INFO   : the flag for use of LIBINT has been found!

================================================================================
                                       INPUT FILE
================================================================================
NAME = 14_Si.in
|  1> #
|  2> # 14_Si CCSD(T)/aug-cc-pVTZ
|  3> #
|  4> ! CCSD(T) aug-cc-pVTZ tightscf
|  5> 
|  6> *xyz 0 3
|  7>  Si 0.0 0.0 0.0
|  8> *
|  9> 
| 10> %maxcore 5000 
| 11> 
| 12> %pal
| 13> nprocs 6
| 14> end
| 15> 
| 16> 
| 17>                          ****END OF INPUT****
================================================================================

                       ****************************
                       * Single Point Calculation *
                       ****************************

---------------------------------
CARTESIAN COORDINATES (ANGSTROEM)
---------------------------------
  Si     0.000000    0.000000    0.000000

----------------------------
CARTESIAN COORDINATES (A.U.)
----------------------------
  NO LB      ZA    FRAG     MASS         X           Y           Z
   0 Si   14.0000    0    28.086    0.000000    0.000000    0.000000

--------------------------------
INTERNAL COORDINATES (ANGSTROEM)
--------------------------------
 Si     0   0   0     0.000000000000     0.00000000     0.00000000

---------------------------
INTERNAL COORDINATES (A.U.)
---------------------------
 Si     0   0   0     0.000000000000     0.00000000     0.00000000

---------------------
BASIS SET INFORMATION
---------------------
There are 1 groups of distinct atoms

 Group   1 Type Si  : 42s17p3d2f contracted to 6s5p3d2f pattern {131313111/77111/111/11}

Atom   0Si   basis set group =>   1


           ************************************************************
           *        Program running with 6 parallel MPI-processes     *
           *              working on a common directory               *
           ************************************************************
------------------------------------------------------------------------------
                           ORCA GTO INTEGRAL CALCULATION
------------------------------------------------------------------------------

                         BASIS SET STATISTICS AND STARTUP INFO

 # of primitive gaussian shells          ...   64
 # of primitive gaussian functions       ...  122
 # of contracted shells                  ...   16
 # of contracted basis functions         ...   50
 Highest angular momentum                ...    3
 Maximum contraction depth               ...   13
 Integral package used                   ... LIBINT
 Integral threshhold            Thresh   ...  2.500e-11
 Primitive cut-off              TCut     ...  2.500e-12


------------------------------ INTEGRAL EVALUATION ----------------------------


 * One electron integrals 
 Pre-screening matrix                    ... done
 Shell pair data                         ... done (   0.000 sec)



           ************************************************************
           *        Program running with 6 parallel MPI-processes     *
           *              working on a common directory               *
           ************************************************************
-------------------------------------------------------------------------------
                                 ORCA SCF
-------------------------------------------------------------------------------

------------
SCF SETTINGS
------------
Hamiltonian:
 Ab initio Hamiltonian  Method          .... Hartree-Fock(GTOs)


General Settings:
 Integral files         IntName         .... 14_Si
 Hartree-Fock type      HFTyp           .... UHF
 Total Charge           Charge          ....    0
 Multiplicity           Mult            ....    3
 Number of Electrons    NEL             ....   14
 Basis Dimension        Dim             ....   50
 Nuclear Repulsion      ENuc            ....      0.0000000000 Eh

Convergence Acceleration:
 DIIS                   CNVDIIS         .... on
   Start iteration      DIISMaxIt       ....    12
   Startup error        DIISStart       ....  0.200000
   # of expansion vecs  DIISMaxEq       ....     5
   Bias factor          DIISBfac        ....   1.050
   Max. coefficient     DIISMaxC        ....  10.000
 Newton-Raphson         CNVNR           .... off
 SOSCF                  CNVSOSCF        .... off
 Level Shifting         CNVShift        .... on
   Level shift para.    LevelShift      ....    0.2500
   Turn off err/grad.   ShiftErr        ....    0.0010
 Zerner damping         CNVZerner       .... off
 Static damping         CNVDamp         .... on
   Fraction old density DampFac         ....    0.7000
   Max. Damping (<1)    DampMax         ....    0.9800
   Min. Damping (>=0)   DampMin         ....    0.0000
   Turn off err/grad.   DampErr         ....    0.1000
 Fernandez-Rico         CNVRico         .... off

SCF Procedure:
 Maximum # iterations   MaxIter         ....   125
 SCF integral mode      SCFMode         .... Direct
   Integral package                     .... LIBINT
 Reset frequency        DirectResetFreq ....    20
 Integral Threshold     Thresh          ....  2.500e-11 Eh
 Primitive CutOff       TCut            ....  2.500e-12 Eh

Convergence Tolerance:
 Convergence Check Mode ConvCheckMode   .... Total+1el-Energy
 Convergence forced     ConvForced      .... 1
 Energy Change          TolE            ....  1.000e-08 Eh
 1-El. energy change                    ....  1.000e-05 Eh
 DIIS Error             TolErr          ....  5.000e-07


Diagonalization of the overlap matrix:
Smallest eigenvalue                        ... 1.162e-02
Time for diagonalization                   ...    0.002 sec
Threshold for overlap eigenvalues          ... 1.000e-08
Number of eigenvalues below threshold      ... 0
Time for construction of square roots      ...    0.006 sec
Total time needed                          ...    0.008 sec

-------------------
DFT GRID GENERATION
-------------------

General Integration Accuracy     IntAcc      ...  4.340
Radial Grid Type                 RadialGrid  ... Gauss-Chebyshev
Angular Grid (max. acc.)         AngularGrid ... Lebedev-110
Angular grid pruning method      GridPruning ... 3 (G Style)
Weight generation scheme         WeightScheme... Becke
Basis function cutoff            BFCut       ...    1.0000e-11
Integration weight cutoff        WCut        ...    1.0000e-14
Grids for H and He will be reduced by one unit

# of grid points (after initial pruning)     ...   1866 (   0.0 sec)
# of grid points (after weights+screening)   ...   1866 (   0.0 sec)
Grid point division into batches done        ...    0.0 sec
Reduced shell lists constructed in    0.0 sec

Total number of grid points                  ...     1866
Total number of batches                      ...       30
Average number of points per batch           ...       62
Average number of grid points per atom       ...     1866
Average number of shells per batch           ...    12.67 (79.17%)
Average number of basis functions per batch  ...    39.67 (79.33%)
Average number of large shells per batch     ...    10.33 (81.58%)
Average number of large basis fcns per batch ...    35.67 (89.92%)
Maximum spatial batch extension              ...  19.45, 35.80, 35.80 au
Average spatial batch extension              ...   2.82,  4.19,  5.45 au

Time for grid setup =    0.020 sec

------------------------------
INITIAL GUESS: MODEL POTENTIAL
------------------------------
Loading Hartree-Fock densities                     ... done
Calculating cut-offs                               ... done
Setting up the integral package                    ... done
Initializing the effective Hamiltonian             ... done
Starting the Coulomb interaction                   ... done (   0.0 sec)
Reading the grid                                   ... done
Mapping shells                                     ... done
Starting the XC term evaluation                    ... done (   0.0 sec)
Transforming the Hamiltonian                       ... done (   0.0 sec)
Diagonalizing the Hamiltonian                      ... done (   0.0 sec)
Back transforming the eigenvectors                 ... done (   0.0 sec)
Now organizing SCF variables                       ... done
                      ------------------
                      INITIAL GUESS DONE (   0.1 sec)
                      ------------------
--------------
SCF ITERATIONS
--------------
ITER       Energy         Delta-E        Max-DP      RMS-DP      [F,P]     Damp
               ***  Starting incremental Fock matrix formation  ***
  0   -288.8412831379   0.000000000000 0.02829666  0.00073613  0.0986563 0.7000
  1   -288.8452091273  -0.003925989412 0.02052689  0.00054929  0.0670689 0.7000
                               ***Turning on DIIS***
  2   -288.8481707493  -0.002961621977 0.04792286  0.00132072  0.0471582 0.0000
  3   -288.8570401513  -0.008869402032 0.00420098  0.00020340  0.0057148 0.0000
  4   -288.8573362099  -0.000296058583 0.00241230  0.00011324  0.0019656 0.0000
  5   -288.8548689209   0.002467289038 0.00193051  0.00008879  0.0012675 0.0000
  6   -288.8547986201   0.000070300805 0.00153920  0.00006208  0.0006683 0.0000
  7   -288.8563265918  -0.001527971773 0.00030459  0.00001026  0.0001000 0.0000
  8   -288.8566058842  -0.000279292336 0.00013057  0.00000349  0.0000331 0.0000
  9   -288.8566103741  -0.000004489902 0.00004219  0.00000096  0.0000064 0.0000
 10   -288.8566224855  -0.000012111465 0.00000691  0.00000020  0.0000013 0.0000
                            ***DIIS convergence achieved***

               *****************************************************
               *                     SUCCESS                       *
               *           SCF CONVERGED AFTER  11 CYCLES          *
               *****************************************************


----------------
TOTAL SCF ENERGY
----------------

Total Energy       :         -288.85662695 Eh           -7860.18842 eV

Components:
Nuclear Repulsion  :            0.00000000 Eh               0.00000 eV
Electronic Energy  :         -288.85662695 Eh           -7860.18842 eV
One Electron Energy:         -400.55265306 Eh          -10899.59181 eV
Two Electron Energy:          111.69602611 Eh            3039.40339 eV

Virial components:
Potential Energy   :         -577.70433317 Eh          -15720.13410 eV
Kinetic Energy     :          288.84770622 Eh            7859.94568 eV
Virial Ratio       :            2.00003088


---------------
SCF CONVERGENCE
---------------

  Last Energy change         ...   -4.4655e-06  Tolerance :   1.0000e-08
  Last MAX-Density change    ...    1.1402e-06  Tolerance :   1.0000e-07
  Last RMS-Density change    ...    4.1926e-08  Tolerance :   5.0000e-09
  Last DIIS Error            ...    1.9686e-07  Tolerance :   5.0000e-07

             **** THE GBW FILE WAS UPDATED (14_Si.gbw) ****
             **** DENSITY FILE WAS UPDATED (14_Si.scfp) ****
             **** ENERGY FILE WAS UPDATED (14_Si.en.tmp) ****
----------------------
UHF SPIN CONTAMINATION
----------------------

Expectation value of <S**2>     :     2.015081
Ideal value S*(S+1) for S=1.0   :     2.000000
Deviation                       :     0.015081

             **** THE GBW FILE WAS UPDATED (14_Si.gbw) ****
             **** DENSITY FILE WAS UPDATED (14_Si.scfp) ****
----------------
ORBITAL ENERGIES
----------------
                 SPIN UP ORBITALS
  NO   OCC          E(Eh)            E(eV) 
   0   1.0000     -68.817534     -1872.6203 
   1   1.0000      -6.161913      -167.6742 
   2   1.0000      -4.269757      -116.1860 
   3   1.0000      -4.269757      -116.1860 
   4   1.0000      -4.259208      -115.8989 
   5   1.0000      -0.620331       -16.8801 
   6   1.0000      -0.301276        -8.1981 
   7   1.0000      -0.301276        -8.1981 
   8   0.0000      -0.010433        -0.2839 
   9   0.0000       0.066378         1.8062 
  10   0.0000       0.070565         1.9202 
  11   0.0000       0.070565         1.9202 
  12   0.0000       0.082617         2.2481 
  13   0.0000       0.147804         4.0219 
  14   0.0000       0.147804         4.0219 
  15   0.0000       0.150966         4.1080 
  16   0.0000       0.150966         4.1080 
  17   0.0000       0.152427         4.1478 
  18   0.0000       0.432315        11.7639 
  19   0.0000       0.432315        11.7639 
  20   0.0000       0.439318        11.9545 
  21   0.0000       0.439318        11.9545 
  22   0.0000       0.446274        12.1437 
  23   0.0000       0.446274        12.1437 
  24   0.0000       0.451542        12.2871 
  25   0.0000       0.460716        12.5367 
  26   0.0000       0.464307        12.6344 
  27   0.0000       0.486577        13.2404 
  28   0.0000       0.486577        13.2404 
  29   0.0000       0.486827        13.2472 
  30   0.0000       0.489326        13.3152 
  31   0.0000       0.489326        13.3152 
  32   0.0000       0.494853        13.4656 
  33   0.0000       0.494853        13.4656 
  34   0.0000       1.272276        34.6204 
  35   0.0000       1.274123        34.6707 
  36   0.0000       1.274123        34.6707 
  37   0.0000       1.279893        34.8277 
  38   0.0000       1.279893        34.8277 
  39   0.0000       1.421693        38.6862 
  40   0.0000       1.423208        38.7275 
  41   0.0000       1.423208        38.7275 
  42   0.0000       1.427670        38.8489 
  43   0.0000       1.427670        38.8489 
  44   0.0000       1.434833        39.0438 
  45   0.0000       1.434833        39.0438 
  46   0.0000       2.498295        67.9821 
  47   0.0000       2.498295        67.9821 
  48   0.0000       2.501978        68.0823 
  49   0.0000       2.543909        69.2233 

                 SPIN DOWN ORBITALS
  NO   OCC          E(Eh)            E(eV) 
   0   1.0000     -68.807958     -1872.3597 
   1   1.0000      -6.150968      -167.3764 
   2   1.0000      -4.254468      -115.7700 
   3   1.0000      -4.241200      -115.4089 
   4   1.0000      -4.241200      -115.4089 
   5   1.0000      -0.463756       -12.6194 
   6   0.0000       0.005442         0.1481 
   7   0.0000       0.034879         0.9491 
   8   0.0000       0.034879         0.9491 
   9   0.0000       0.076588         2.0841 
  10   0.0000       0.088944         2.4203 
  11   0.0000       0.115274         3.1368 
  12   0.0000       0.115274         3.1368 
  13   0.0000       0.163149         4.4395 
  14   0.0000       0.166006         4.5173 
  15   0.0000       0.166006         4.5173 
  16   0.0000       0.176944         4.8149 
  17   0.0000       0.176944         4.8149 
  18   0.0000       0.470788        12.8108 
  19   0.0000       0.484086        13.1726 
  20   0.0000       0.494424        13.4540 
  21   0.0000       0.494424        13.4540 
  22   0.0000       0.496261        13.5040 
  23   0.0000       0.497430        13.5358 
  24   0.0000       0.497430        13.5358 
  25   0.0000       0.498628        13.5684 
  26   0.0000       0.507682        13.8147 
  27   0.0000       0.507682        13.8147 
  28   0.0000       0.510311        13.8863 
  29   0.0000       0.510311        13.8863 
  30   0.0000       0.521948        14.2029 
  31   0.0000       0.521948        14.2029 
  32   0.0000       0.524186        14.2638 
  33   0.0000       0.524186        14.2638 
  34   0.0000       1.292682        35.1757 
  35   0.0000       1.301715        35.4215 
  36   0.0000       1.301715        35.4215 
  37   0.0000       1.332567        36.2610 
  38   0.0000       1.332567        36.2610 
  39   0.0000       1.446184        39.3527 
  40   0.0000       1.451175        39.4885 
  41   0.0000       1.451175        39.4885 
  42   0.0000       1.466380        39.9022 
  43   0.0000       1.466380        39.9022 
  44   0.0000       1.492916        40.6243 
  45   0.0000       1.492916        40.6243 
  46   0.0000       2.509253        68.2802 
  47   0.0000       2.542342        69.1806 
  48   0.0000       2.542342        69.1806 
  49   0.0000       2.566239        69.8309 

                    ********************************
                    * MULLIKEN POPULATION ANALYSIS *
                    ********************************

--------------------------------------------
MULLIKEN ATOMIC CHARGES AND SPIN POPULATIONS
--------------------------------------------
   0 Si:   -0.000000    2.000000
Sum of atomic charges         :   -0.0000000
Sum of atomic spin populations:    2.0000000

-----------------------------------------------------
MULLIKEN REDUCED ORBITAL CHARGES AND SPIN POPULATIONS
-----------------------------------------------------
CHARGE
  0 Sis       :     5.992499  s :     5.992499
      pz      :     2.000023  p :     7.999949
      px      :     2.999951
      py      :     2.999975
      dz2     :     0.007500  d :     0.007501
      dxz     :     0.000001
      dyz     :     0.000000
      dx2y2   :     0.000000
      dxy     :     0.000000
      f0      :     0.000000  f :     0.000051
      f+1     :     0.000025
      f-1     :     0.000025
      f+2     :     0.000000
      f-2     :     0.000000
      f+3     :     0.000000
      f-3     :     0.000000

SPIN
  0 Sis       :    -0.000205  s :    -0.000205
      pz      :     0.000024  p :     1.999951
      px      :     0.999952
      py      :     0.999975
      dz2     :     0.000205  d :     0.000205
      dxz     :     0.000000
      dyz     :     0.000000
      dx2y2   :     0.000000
      dxy     :     0.000000
      f0      :    -0.000000  f :     0.000049
      f+1     :     0.000025
      f-1     :     0.000025
      f+2     :     0.000000
      f-2     :     0.000000
      f+3     :     0.000000
      f-3     :     0.000000


                     *******************************
                     * LOEWDIN POPULATION ANALYSIS *
                     *******************************

-------------------------------------------
LOEWDIN ATOMIC CHARGES AND SPIN POPULATIONS
-------------------------------------------
   0 Si:   -0.000000    2.000000

----------------------------------------------------
LOEWDIN REDUCED ORBITAL CHARGES AND SPIN POPULATIONS
----------------------------------------------------
CHARGE
  0 Sis       :     5.992499  s :     5.992499
      pz      :     2.000023  p :     7.999949
      px      :     2.999951
      py      :     2.999975
      dz2     :     0.007500  d :     0.007501
      dxz     :     0.000001
      dyz     :     0.000000
      dx2y2   :     0.000000
      dxy     :     0.000000
      f0      :     0.000000  f :     0.000051
      f+1     :     0.000025
      f-1     :     0.000025
      f+2     :     0.000000
      f-2     :     0.000000
      f+3     :     0.000000
      f-3     :     0.000000

SPIN
  0 Sis       :    -0.000205  s :    -0.000205
      pz      :     0.000024  p :     1.999951
      px      :     0.999952
      py      :     0.999975
      dz2     :     0.000205  d :     0.000205
      dxz     :     0.000000
      dyz     :     0.000000
      dx2y2   :     0.000000
      dxy     :     0.000000
      f0      :    -0.000000  f :     0.000049
      f+1     :     0.000025
      f-1     :     0.000025
      f+2     :     0.000000
      f-2     :     0.000000
      f+3     :     0.000000
      f-3     :     0.000000


                      *****************************
                      * MAYER POPULATION ANALYSIS *
                      *****************************

  NA   - Mulliken gross atomic population
  ZA   - Total nuclear charge
  QA   - Mulliken gross atomic charge
  VA   - Mayer's total valence
  BVA  - Mayer's bonded valence
  FA   - Mayer's free valence

  ATOM       NA         ZA         QA         VA         BVA        FA
  0 Si    14.0000    14.0000    -0.0000     2.0302     0.0000     2.0302

  Mayer bond orders larger than 0.100000


-------
TIMINGS
-------

Total SCF time: 0 days 0 hours 0 min 2 sec 

Total time                  ....       2.978 sec
Sum of individual times     ....       2.565 sec  ( 86.2%)

Fock matrix formation       ....       2.326 sec  ( 78.1%)
Diagonalization             ....       0.021 sec  (  0.7%)
Density matrix formation    ....       0.001 sec  (  0.0%)
Population analysis         ....       0.026 sec  (  0.9%)
Initial guess               ....       0.129 sec  (  4.3%)
Orbital Transformation      ....       0.000 sec  (  0.0%)
Orbital Orthonormalization  ....       0.000 sec  (  0.0%)
DIIS solution               ....       0.042 sec  (  1.4%)


           ************************************************************
           *        Program running with 6 parallel MPI-processes     *
           *              working on a common directory               *
           ************************************************************


------------------------------------------------------------------------------- 
                              ORCA-MATRIX DRIVEN CI                            
------------------------------------------------------------------------------- 

--------------------------------
AUTOMATIC CHOICE OF INCORE LEVEL
--------------------------------

Memory available                           ...   2500.00 MB
Memory needed for S+T                      ...      0.24 MB
Memory needed for J+K                      ...      0.49 MB
Memory needed for DIIS                     ...      3.39 MB
Memory needed for 3-ext                    ...      1.70 MB
Memory needed for 4-ext                    ...     12.15 MB
Memory needed for triples                  ...      2.83 MB
 -> Final InCoreLevel    ... 5
 -> check shows that triples correction can be computed


Wavefunction type
-----------------
Correlation treatment                      ...      CCSD     
Single excitations                         ... ON
Orbital optimization                       ... OFF
Calculation of Z vector                    ... OFF
Calculation of Brueckner orbitals          ... OFF
Perturbative triple excitations            ... ON
Calculation of F12 correction              ... OFF
Frozen core treatment                      ... chemical core (10 el)
Reference Wavefunction                     ... UHF
  Alpha-MOs occ    :     5 ...    7 (  3 MO's/  3 electrons)
  Beta-MOs occ     :     5 ...    5 (  1 MO's/  1 electrons)
  Alpha-MOs virt   :     8 ...   49 ( 42 MO's              )
  Beta-MOs virt    :     6 ...   49 ( 44 MO's              )
Number of AO's                             ...     50
Number of electrons                        ...     14
Number of correlated electrons             ...      4

Algorithmic settings
--------------------
Integral transformation                    ... AO direct full transformation
K(C) Formation                             ... FULL-MO TRAFO
Maximum number of iterations               ...        50
Convergence tolerance (max. residuum)      ... 1.000e-05
Level shift for amplitude update           ... 2.000e-01
Maximum number of DIIS vectors             ...         7
DIIS turned on at iteration                ...         0
Damping before turning on DIIS             ...     0.500
Damping after turning on DIIS              ...     0.000
Pair specific amplitude update             ... OFF
Natural orbital iterations                 ... OFF
Perturbative natural orbital generation    ... OFF
Printlevel                                 ... 2

Memory handling:
----------------
Maximum memory for working arrays          ...   2500 MB
Data storage in matrix containers          ... UNCOMPRESSED
Data type for integral storage             ... DOUBLE
In-Core Storage of quantities:
   Amplitudes+Sigma Vector      ... YES
   J+K operators                ... YES
   DIIS vectors                 ... YES
   3-external integrals         ... YES
   4-external integrals         ... YES


Initializing the integral package          ... done
Warning: reference  - re-canonicalizations have been set to INT 1 VIRT 1

--------------------------
UNRESTRICTED FOCK OPERATOR
--------------------------

<ss|ss>:          231 b            0 skpd (  0.0%)    0.007 s ( 0.029 ms/b)
<ss|sp>:          630 b            0 skpd (  0.0%)    0.024 s ( 0.038 ms/b)
<ss|sd>:          378 b            0 skpd (  0.0%)    0.003 s ( 0.009 ms/b)
<ss|sf>:          252 b            0 skpd (  0.0%)    0.003 s ( 0.011 ms/b)
<ss|pp>:          315 b            0 skpd (  0.0%)    0.008 s ( 0.024 ms/b)
<ss|pd>:          315 b            0 skpd (  0.0%)    0.002 s ( 0.006 ms/b)
<ss|pf>:          210 b            0 skpd (  0.0%)    0.002 s ( 0.009 ms/b)
<ss|dd>:          126 b            0 skpd (  0.0%)    0.000 s ( 0.002 ms/b)
<ss|df>:          126 b            0 skpd (  0.0%)    0.000 s ( 0.003 ms/b)
<ss|ff>:           63 b            0 skpd (  0.0%)    0.001 s ( 0.010 ms/b)
<sp|sp>:          465 b            0 skpd (  0.0%)    0.007 s ( 0.014 ms/b)
<sp|sd>:          540 b            0 skpd (  0.0%)    0.003 s ( 0.006 ms/b)
<sp|sf>:          360 b            0 skpd (  0.0%)    0.003 s ( 0.009 ms/b)
<sp|pp>:          450 b            0 skpd (  0.0%)    0.007 s ( 0.016 ms/b)
<sp|pd>:          450 b            0 skpd (  0.0%)    0.002 s ( 0.005 ms/b)
<sp|pf>:          300 b            0 skpd (  0.0%)    0.003 s ( 0.009 ms/b)
<sp|dd>:          180 b            0 skpd (  0.0%)    0.000 s ( 0.002 ms/b)
<sp|df>:          180 b            0 skpd (  0.0%)    0.001 s ( 0.004 ms/b)
<sp|ff>:           90 b            0 skpd (  0.0%)    0.001 s ( 0.011 ms/b)
<sd|sd>:          171 b            0 skpd (  0.0%)    0.001 s ( 0.004 ms/b)
<sd|sf>:          216 b            0 skpd (  0.0%)    0.001 s ( 0.005 ms/b)
<sd|pp>:          270 b            0 skpd (  0.0%)    0.003 s ( 0.010 ms/b)
<sd|pd>:          270 b            1 skpd (  0.4%)    0.001 s ( 0.003 ms/b)
<sd|pf>:          180 b            0 skpd (  0.0%)    0.001 s ( 0.006 ms/b)
<sd|dd>:          108 b            0 skpd (  0.0%)    0.000 s ( 0.003 ms/b)
<sd|df>:          108 b            0 skpd (  0.0%)    0.000 s ( 0.004 ms/b)
<sd|ff>:           54 b            0 skpd (  0.0%)    0.001 s ( 0.012 ms/b)
<sf|sf>:           78 b            0 skpd (  0.0%)    0.001 s ( 0.019 ms/b)
<sf|pp>:          180 b            0 skpd (  0.0%)    0.004 s ( 0.021 ms/b)
<sf|pd>:          180 b            0 skpd (  0.0%)    0.001 s ( 0.007 ms/b)
<sf|pf>:          120 b            1 skpd (  0.8%)    0.002 s ( 0.014 ms/b)
<sf|dd>:           72 b            0 skpd (  0.0%)    0.000 s ( 0.004 ms/b)
<sf|df>:           72 b            0 skpd (  0.0%)    0.001 s ( 0.008 ms/b)
<sf|ff>:           36 b            0 skpd (  0.0%)    0.001 s ( 0.029 ms/b)
<pp|pp>:          120 b            0 skpd (  0.0%)    0.003 s ( 0.025 ms/b)
<pp|pd>:          225 b            0 skpd (  0.0%)    0.001 s ( 0.006 ms/b)
<pp|pf>:          150 b            0 skpd (  0.0%)    0.002 s ( 0.012 ms/b)
<pp|dd>:           90 b            0 skpd (  0.0%)    0.000 s ( 0.004 ms/b)
<pp|df>:           90 b            0 skpd (  0.0%)    0.001 s ( 0.007 ms/b)
<pp|ff>:           45 b            0 skpd (  0.0%)    0.001 s ( 0.022 ms/b)
<pd|pd>:          120 b            0 skpd (  0.0%)    0.001 s ( 0.006 ms/b)
<pd|pf>:          150 b            0 skpd (  0.0%)    0.001 s ( 0.009 ms/b)
<pd|dd>:           90 b            0 skpd (  0.0%)    0.001 s ( 0.006 ms/b)
<pd|df>:           90 b            0 skpd (  0.0%)    0.001 s ( 0.009 ms/b)
<pd|ff>:           45 b            0 skpd (  0.0%)    0.001 s ( 0.024 ms/b)
<pf|pf>:           55 b            0 skpd (  0.0%)    0.001 s ( 0.022 ms/b)
<pf|dd>:           60 b            0 skpd (  0.0%)    0.000 s ( 0.007 ms/b)
<pf|df>:           60 b            0 skpd (  0.0%)    0.001 s ( 0.013 ms/b)
<pf|ff>:           30 b            0 skpd (  0.0%)    0.002 s ( 0.062 ms/b)
<dd|dd>:           21 b            0 skpd (  0.0%)    0.000 s ( 0.008 ms/b)
<dd|df>:           36 b            0 skpd (  0.0%)    0.000 s ( 0.011 ms/b)
<dd|ff>:           18 b            0 skpd (  0.0%)    0.001 s ( 0.031 ms/b)
<df|df>:           21 b            0 skpd (  0.0%)    0.001 s ( 0.024 ms/b)
<df|ff>:           18 b            0 skpd (  0.0%)    0.001 s ( 0.065 ms/b)
<ff|ff>:            6 b            0 skpd (  0.0%)    0.001 s ( 0.102 ms/b)
Recanonicalizing the internal orbitals
Recanonicalizing the virtual orbitals
Time needed for Fock operator              ...            0.235 sec
Reference energy                           ...   -288.856627781
Warning: for UHF the TrafoType has to be JK
Warning: for UHF the K(C)-option cannot be MO but must be AOX

-------------------------------
PARTIAL EXCHANGE TRANSFORMATION
-------------------------------

Transformation type                        ... two-operators
Generation of integrals (i,mue|j,nue)      ... ON
Generation of integrals (mue,kappa|nue,tau)... ON
Generation of integrals (i,mue|a,nue)      ... ON
Dimension of the basis                     ...   50
Number of internal alpha-MOs               ...    3 (   5-   7)
Number of internal beta-MOs                ...    1 (   5-   5)
Number of external alpha-MOs               ...   42 (   8-  49)
Number of external beta-MOs                ...   44 (   6-  49)
Pair cutoff                                ... 0.000e+00 Eh
Number of AO pairs in the trafo            ... 1275
Total Number of distinct AO pairs          ... 1275
Memory devoted for trafo                   ... 2500.0 MB 
Max. Number of MO pairs treated together   ... 131072      
Number Format for Storage                  ... Double (8 Byte)
Integral package used                      ... LIBINT

Starting integral evaluation:
    ... done with AO integral generation
Closing buffer AOK[aa] ( 0.00 GB; CompressionRatio= 0.86)
Closing buffer AOK[bb] ( 0.00 GB; CompressionRatio= 0.40)
Closing buffer AOK[ab] ( 0.00 GB; CompressionRatio= 0.67)
Closing buffer AOK[ba] ( 0.00 GB; CompressionRatio= 0.67)
Collecting buffer AOK 
Closing buffer IAAO1[aa] ( 0.00 GB; CompressionRatio= 0.99)
Closing buffer IAAO1[bb] ( 0.00 GB; CompressionRatio= 0.97)
Closing buffer IAAO1[ab] ( 0.00 GB; CompressionRatio= 0.99)
Closing buffer IAAO1[ba] ( 0.00 GB; CompressionRatio= 0.97)
Closing buffer IAAO2[aa] ( 0.00 GB; CompressionRatio= 0.99)
Closing buffer IAAO2[bb] ( 0.00 GB; CompressionRatio= 0.97)
Closing buffer IAAO2[ab] ( 0.00 GB; CompressionRatio= 0.99)
Closing buffer IAAO2[ba] ( 0.00 GB; CompressionRatio= 0.97)
Collecting buffer IAAO 
Closing buffer PRQS    ( 0.00 GB; CompressionRatio= 1.00)
Collecting buffer PRQS 
Number of alpha/alpha MO pairs in trafo    ...    6
Number of beta /beta  MO pairs in trafo    ...    1
Number of alpha/ beta MO pairs in trafo    ...    3
------------------------
SORTING OF (i,mue|j,nue)
------------------------

SORTING OF ALPHA/ALPHA PAIRS
IBATCH = 1 of  1
Closing buffer KAO[aa] ( 0.00 GB; CompressionRatio= 1.00)
Collecting buffer KAO 
SORTING OF BETA /BETA  PAIRS
IBATCH = 1 of  1
Closing buffer KAO[bb] ( 0.00 GB; CompressionRatio= 1.00)
Collecting buffer KAO 
SORTING OF ALPHA/BETA  PAIRS
IBATCH = 1 of  1
Closing buffer KAO[ab] ( 0.00 GB; CompressionRatio= 0.999400359784)
Collecting buffer KAO[ab] 
------------------------
SORTING OF (i,mue|a,nue)
------------------------

Number of alpha/alpha (i,a) pairs in trafo  ...  126
Number of beta /beta  (i,a) pairs in trafo  ...   44
Number of alpha/ beta (i,a) pairs in trafo  ...  132
Number of beta /alpha (i,a) pairs in trafo  ...   42
Setting up the alpha/alpha list             ... done
Setting up the beta /beta  list             ... done
Setting up the alpha/beta  list             ... done
Setting up the beta /alpha list             ... done
    ... Now sorting (i,mue|a,nue)integrals
    ... Integrals (i,b|a,c) will be made on the fly
SORTING OF ALPHA/ALPHA PAIRS
IBATCH = 1 of  1
Closing buffer IPAQ[aa]  0.00 GB; CompressionRatio= 1.00)
SORTING OF BETA /BETA  PAIRS
IBATCH = 1 of  1
Closing buffer IPAQ[bb]( 0.00 GB; CompressionRatio= 1.00)
SORTING OF ALPHA/BETA  PAIRS (NMatSort_ab=22)
IBATCH = 1 of  1
Closing buffer IPAQ[ab]( 0.00 GB; CompressionRatio= 1.00)
SORTING OF BETA/ALPHA  PAIRS
IBATCH = 1 of  1
Closing buffer IPAQ[ba]( 0.00 GB; CompressionRatio= 1.00)
N(AO-Batches) Done                         ...      4096 
N(AO-Batches) Skipped                      ...         0 
N(IJ)-pairs Skipped                        ...         0 
TOTAL TIME for half transformation         ...     1.903 sec
AO-integral generation                     ...     0.190 sec
Half transformation                        ...     0.572 sec
K-integral sorting                         ...     0.218 sec
<ss|**>: 
------------------------------
PARTIAL COULOMB TRANSFORMATION
------------------------------

Transformation type                        ... two-operators
Dimension of the basis                     ...   50
Number of internal alpha-MOs               ...    3 (5-7)
Number of internal beta-MOs                ...    1 (5-5)
Pair cutoff                                ... 0.000e+00 Eh
Number of AO pairs included in the trafo   ... 1275
Total Number of distinct AO pairs          ... 1275
Memory devoted for trafo                   ... 2500.0 MB 
Max. Number of MO pairs treated together   ... 257003      
Max. Number of MOs treated per batch       ... 5140      
Number Format for Storage                  ... Double (8 Byte)
AO-integral source                         ... DIRECT
Integral package used                      ... LIBINT

Starting integral evaluation:
<sp|**>:         2856 b        0 skpd     0.052 s (  0.018 ms/b)
<sd|**>:         4080 b        0 skpd     0.073 s (  0.018 ms/b)
<sf|**>:         2448 b        0 skpd     0.035 s (  0.014 ms/b)
<pp|**>:         1632 b        0 skpd     0.045 s (  0.027 ms/b)
        2040 b        0 skpd     0.058 s (  0.028 ms/b)
<pd|**>:         2040 b        0 skpd     0.048 s (  0.024 ms/b)
<pf|**>:         1360 b        0 skpd     0.055 s (  0.040 ms/b)
<dd|**>:          816 b        0 skpd     0.024 s (  0.030 ms/b)
<df|**>:          816 b        0 skpd     0.038 s (  0.047 ms/b)
<ff|**>:          408 b        0 skpd     0.041 s (  0.100 ms/b)
Closing buffer AOJ[aa] ( 0.00 GB; CompressionRatio= 0.80)
Closing buffer AOJ[bb] ( 0.00 GB; CompressionRatio= 0.00)
Collecting buffer AOJ 
    ... done with AO integral generation
Number of Alpha-MO pairs included          ...    6
Number of Beta-MO pairs included           ...    1
    ... Now sorting integrals
SORTING ALPHA/ALPHA PAIRS
IBATCH = 1 of  1
Closing buffer JAO[aa] ( 0.00 GB; CompressionRatio= 1.00)
SORTING BETA/BETA PAIRS
IBATCH = 1 of  1
Closing buffer JAO[bb] ( 0.00 GB; CompressionRatio= 1.00)
Collecting buffer JAO 
TOTAL TIME for half transformation         ...     0.498 sec
AO-integral generation                     ...     0.313 sec
Half transformation                        ...     0.157 sec
J-integral sorting                         ...     0.017 sec

-------------------------- SECOND HALF TRANSFORMATION -------------------------
Formation of (ij|kl),(ij|ka), (ij|ab)      ... ok (     0.019 sec)
Formation of (ik|jl),(ik|ja), (ia|jb)      ... ok (     0.030 sec)


-----------------------
SPIN UNRESTRICTED GUESS
-----------------------

Entering MDCI_UHF_Guess, Tailored=0
Spin-components of the MP2 energy:
EMP2(aa)=     -0.009939981
EMP2(bb)=      0.000000000
EMP2(ab)=     -0.046707227

Initial guess performed in     0.001 sec
E(0)                                       ...   -288.856627781
E(MP2)                                     ...     -0.056647208
Initial E(tot)                             ...   -288.913274990
<T|T>                                      ...      0.036729158
Number of pairs included                   ... 6

------------------------------------------------
                  UHF COUPLED CLUSTER ITERATIONS
------------------------------------------------

Number of amplitudes to be optimized       ...         8275

Iter       E(tot)           E(Corr)          Delta-E          Residual     Time      <S|S>**1/2
  0   -288.913274990     -0.056647208     -0.000000000      0.017726874    0.13      0.000000254
                           *** Turning on DIIS ***
  1   -288.924026861     -0.067399080     -0.010751871      0.009587576    0.13      0.010881545
  2   -288.930454338     -0.073826557     -0.006427478      0.002859493    0.12      0.021745723
  3   -288.931067485     -0.074439703     -0.000613146      0.000858388    0.11      0.025806084
  4   -288.931308565     -0.074680783     -0.000241080      0.000119301    0.11      0.027019135
  5   -288.931262689     -0.074634908      0.000045876      0.000045155    0.11      0.027008214
  6   -288.931287054     -0.074659272     -0.000024364      0.000009772    0.11      0.027050167
               --- The Coupled-Cluster iterations have converged ---

----------------------
COUPLED CLUSTER ENERGY
----------------------

E(0)                                       ...   -288.856627781
E(CORR)                                    ...     -0.074659272
E(TOT)                                     ...   -288.931287054
Singles norm <S|S>**1/2                    ...      0.027050167 ( 0.024287899, 0.002762268)  
T1 diagnostic                              ...      0.013525084                              

------------------
LARGEST AMPLITUDES
------------------
   5a->  8a   5b->  6b       0.076990
   5a->  8a   5b-> 10b       0.053343
   5a-> 12a   5b->  6b       0.042328
   7a-> 22a   5b->  6b       0.040013
   6a-> 23a   5b->  6b       0.040013
   5a->  8a   5b-> 18b       0.036114
   7a-> 18a   6a-> 19a       0.034063
   7a-> 19a   6a-> 18a       0.034063
   5a-> 25a   5b->  6b       0.031699
   6a->  8a   5b-> 20b       0.030377
   7a->  8a   5b-> 21b       0.030377
   5a-> 12a   5b-> 10b       0.029666
   7a-> 16a   5b->  6b       0.028478
   6a-> 15a   5b->  6b       0.028478
   7a-> 22a   5b-> 10b       0.027775
   6a-> 23a   5b-> 10b       0.027775

----------------------
UHF TRIPLES CORRECTION (Algorithm 1)
----------------------

Multiplier for the singles contribution    ...      1.000000000

SPIN-CASE Alpha-Alpha-Alpha:
10% done
20% done
30% done
40% done
50% done
60% done
70% done
80% done
90% done


SPIN-CASE Beta-Beta-Beta:

SPIN-CASE Alpha-Alpha-Beta:
10% done
20% done
30% done
40% done
50% done
60% done
70% done
80% done
90% done


SPIN-CASE Beta-Beta-Alpha:

Triples Correction (T)                     ...     -0.002552651
    alpha-alpha-alpha ... -0.000069202 (  2.7%)
    alpha-alpha-beta  ... -0.002483449 ( 97.3%)
    alpha-beta -beta  ...  0.000000000 ( -0.0%)
    beta -beta -beta  ...  0.000000000 ( -0.0%)
Scaling of triples based on CCSD energies (Peterson et al. Molecular Physics 113, 1551 (2015))
E(T*) = f*E(T) where f = E(F12-CCSD)/E(CCSD) 
f = CCSD (with F12)/ CCSD (without F12)    ...      1.000000000
Scaled triples correction (T)              ...     -0.002552651

Final correlation energy                   ...     -0.077211923
E(CCSD)                                    ...   -288.931287054
E(CCSD(T))                                 ...   -288.933839704



        !!!!!!!!!!!!!!!!!!!!!!!!!!!!!!!!!!!!!!!!!!!!!!!!!!!!!!!!!!!!!!!!!!!!!!!!!! 
        !  Warning: Densities are linearized densities                           !
        !!!!!!!!!!!!!!!!!!!!!!!!!!!!!!!!!!!!!!!!!!!!!!!!!!!!!!!!!!!!!!!!!!!!!!!!!! 

NORM  =      1.073100631 sqrt=     1.035905706
W(HF) =      0.931879053
------------------------------------------------------------------------------
                           ORCA POPULATION ANALYSIS
------------------------------------------------------------------------------
Input electron density              ... 14_Si.mdcip
Input spin density                  ... 14_Si.mdcir
BaseName (.gbw .S,...)              ... 14_Si

                    ********************************
                    * MULLIKEN POPULATION ANALYSIS *
                    ********************************

------------------------------------------
MULLIKEN ATOMIC CHARGES AND SPIN DENSITIES
------------------------------------------
   0 Si:   -0.000000    2.000000
Sum of atomic charges       :   -0.0000000
Sum of atomic spin densities:    2.0000000

---------------------------------------------------
MULLIKEN REDUCED ORBITAL CHARGES AND SPIN DENSITIES
---------------------------------------------------
CHARGE
  0 Sis       :     5.913158  s :     5.913158
      pz      :     2.046578  p :     8.023870
      px      :     2.988635
      py      :     2.988658
      dz2     :     0.008617  d :     0.059859
      dxz     :     0.010311
      dyz     :     0.010312
      dx2y2   :     0.015310
      dxy     :     0.015310
      f0      :     0.000218  f :     0.003112
      f+1     :     0.000256
      f-1     :     0.000256
      f+2     :     0.000412
      f-2     :     0.000412
      f+3     :     0.000779
      f-3     :     0.000779

SPIN
  0 Sis       :     0.038746  s :     0.038746
      pz      :    -0.004444  p :     1.923590
      px      :     0.964005
      py      :     0.964028
      dz2     :     0.001851  d :     0.036210
      dxz     :     0.004384
      dyz     :     0.004384
      dx2y2   :     0.012796
      dxy     :     0.012796
      f0      :     0.000157  f :     0.001454
      f+1     :     0.000163
      f-1     :     0.000163
      f+2     :     0.000195
      f-2     :     0.000195
      f+3     :     0.000291
      f-3     :     0.000291


                     *******************************
                     * LOEWDIN POPULATION ANALYSIS *
                     *******************************

-----------------------------------------
LOEWDIN ATOMIC CHARGES AND SPIN DENSITIES
-----------------------------------------
   0 Si:   -0.000000    2.000000

--------------------------------------------------
LOEWDIN REDUCED ORBITAL CHARGES AND SPIN DENSITIES
--------------------------------------------------
CHARGE
  0 Sis       :     5.913158  s :     5.913158
      pz      :     2.046578  p :     8.023870
      px      :     2.988635
      py      :     2.988658
      dz2     :     0.008617  d :     0.059859
      dxz     :     0.010311
      dyz     :     0.010312
      dx2y2   :     0.015310
      dxy     :     0.015310
      f0      :     0.000218  f :     0.003112
      f+1     :     0.000256
      f-1     :     0.000256
      f+2     :     0.000412
      f-2     :     0.000412
      f+3     :     0.000779
      f-3     :     0.000779

SPIN
  0 Sis       :     0.038746  s :     0.038746
      pz      :    -0.004444  p :     1.923590
      px      :     0.964005
      py      :     0.964028
      dz2     :     0.001851  d :     0.036210
      dxz     :     0.004384
      dyz     :     0.004384
      dx2y2   :     0.012796
      dxy     :     0.012796
      f0      :     0.000157  f :     0.001454
      f+1     :     0.000163
      f-1     :     0.000163
      f+2     :     0.000195
      f-2     :     0.000195
      f+3     :     0.000291
      f-3     :     0.000291


                      *****************************
                      * MAYER POPULATION ANALYSIS *
                      *****************************

  NA   - Mulliken gross atomic population
  ZA   - Total nuclear charge
  QA   - Mulliken gross atomic charge
  VA   - Mayer's total valence
  BVA  - Mayer's bonded valence
  FA   - Mayer's free valence

  ATOM       NA         ZA         QA         VA         BVA        FA
  0 Si    14.0000    14.0000    -0.0000     2.4218     0.0000     2.4218





------------------------------------------------------------------------------- 
                                     TIMINGS                                   
------------------------------------------------------------------------------- 


Total execution time                   ...        3.762 sec

Fock Matrix Formation                  ...        0.235 sec (  6.2%)
Initial Guess                          ...        0.001 sec (  0.0%)
DIIS Solver                            ...        0.004 sec (  0.1%)
State Vector Update                    ...        0.000 sec (  0.0%)
Sigma-vector construction              ...        0.822 sec ( 21.8%)
  <D|H|D>(2-ext)                       ...        0.001 sec (  0.1% of sigma)
  <D|H|D>(4-ext)                       ...        0.179 sec ( 21.8% of sigma)
  <S|H|0>                              ...        0.003 sec (  0.4% of sigma)
  <D|H|S>(1-ext)                       ...        0.001 sec (  0.1% of sigma)
  Fock-dressing                        ...        0.596 sec ( 72.6% of sigma)
  (ij|ab),(ia|jb)-dressing             ...        0.026 sec (  3.2% of sigma)
Total Time for computing (T)           ...        0.007 sec (  0.2% of ALL)
  I/O of integral and amplitudes       ...        0.002 sec ( 34.4% of (T))
  External N**7 contributions          ...        0.001 sec ( 18.1% of (T))
  N**6 triples energy contributions    ...        0.002 sec ( 25.2% of (T))


-------------------------   --------------------
FINAL SINGLE POINT ENERGY      -288.933839704323
-------------------------   --------------------


                            ***************************************
                            *     ORCA property calculations      *
                            ***************************************

                                    ---------------------
                                    Active property flags
                                    ---------------------
   (+) Dipole Moment


------------------------------------------------------------------------------
                       ORCA ELECTRIC PROPERTIES CALCULATION
------------------------------------------------------------------------------

Dipole Moment Calculation                       ... on
Quadrupole Moment Calculation                   ... off
Polarizability Calculation                      ... off
GBWName                                         ... 14_Si.gbw
Electron density file                           ... 14_Si.scfp
The origin for moment calculation is the CENTER OF MASS  = ( 0.000000,  0.000000  0.000000)

-------------
DIPOLE MOMENT
-------------
                                X             Y             Z
Electronic contribution:      0.00000       0.00000      -0.00000
Nuclear contribution   :      0.00000       0.00000       0.00000
                        -----------------------------------------
Total Dipole Moment    :      0.00000       0.00000      -0.00000
                        -----------------------------------------
Magnitude (a.u.)       :      0.00000
Magnitude (Debye)      :      0.00000



--------------------
Rotational spectrum 
--------------------
 
Rotational constants in cm-1:     0.000000     0.000000     0.000000 
Rotational constants in MHz :     0.000000     0.000000     0.000000 

 Dipole components along the rotational axes: 
x,y,z [a.u.] :     0.000000     0.000000    -0.000000 
x,y,z [Debye]:     0.000000     0.000000    -0.000000 

 

                           *** MDCI DENSITY ***

------------------------------------------------------------------------------
                       ORCA ELECTRIC PROPERTIES CALCULATION
------------------------------------------------------------------------------

Dipole Moment Calculation                       ... on
Quadrupole Moment Calculation                   ... off
Polarizability Calculation                      ... off
GBWName                                         ... 14_Si.gbw
Electron density file                           ... 14_Si.mdcip
The origin for moment calculation is the CENTER OF MASS  = ( 0.000000,  0.000000  0.000000)

-------------
DIPOLE MOMENT
-------------
                                X             Y             Z
Electronic contribution:      0.00000       0.00000      -0.00000
Nuclear contribution   :      0.00000       0.00000       0.00000
                        -----------------------------------------
Total Dipole Moment    :      0.00000       0.00000      -0.00000
                        -----------------------------------------
Magnitude (a.u.)       :      0.00000
Magnitude (Debye)      :      0.00000



--------------------
Rotational spectrum 
--------------------
 
Rotational constants in cm-1:     0.000000     0.000000     0.000000 
Rotational constants in MHz :     0.000000     0.000000     0.000000 

 Dipole components along the rotational axes: 
x,y,z [a.u.] :     0.000000     0.000000    -0.000000 
x,y,z [Debye]:     0.000000     0.000000    -0.000000 

 

Timings for individual modules:

Sum of individual times         ...        8.361 sec (=   0.139 min)
GTO integral calculation        ...        0.809 sec (=   0.013 min)   9.7 %
SCF iterations                  ...        3.382 sec (=   0.056 min)  40.4 %
MDCI module                     ...        4.171 sec (=   0.070 min)  49.9 %
                             ****ORCA TERMINATED NORMALLY****
TOTAL RUN TIME: 0 days 0 hours 0 minutes 9 seconds 98 msec
