
                                 *****************
                                 * O   R   C   A *
                                 *****************

           --- An Ab Initio, DFT and Semiempirical electronic structure package ---

                  #######################################################
                  #                        -***-                        #
                  #          Department of theory and spectroscopy      #
                  #               Directorship: Frank Neese             #
                  #        Max Planck Institute fuer Kohlenforschung    #
                  #                Kaiser Wilhelm Platz 1               #
                  #                 D-45470 Muelheim/Ruhr               #
                  #                      Germany                        #
                  #                                                     #
                  #                  All rights reserved                #
                  #                        -***-                        #
                  #######################################################


                         Program Version 4.2.0 -  RELEASE  -


 With contributions from (in alphabetic order):
   Daniel Aravena         : Magnetic Suceptibility
   Michael Atanasov       : Ab Initio Ligand Field Theory (pilot matlab implementation)
   Alexander A. Auer      : GIAO ZORA, VPT2
   Ute Becker             : Parallelization
   Giovanni Bistoni       : ED, misc. LED, open-shell LED, HFLED
   Martin Brehm           : Molecular dynamics
   Dmytro Bykov           : SCF Hessian
   Vijay G. Chilkuri      : MRCI spin determinant printing, contributions to CSF-ICE
   Dipayan Datta          : RHF DLPNO-CCSD density
   Achintya Kumar Dutta   : EOM-CC, STEOM-CC
   Dmitry Ganyushin       : Spin-Orbit,Spin-Spin,Magnetic field MRCI
   Miquel Garcia          : C-PCM Hessian, Gaussian charge scheme
   Yang Guo               : DLPNO-NEVPT2, CIM, IAO-localization
   Andreas Hansen         : Spin unrestricted coupled pair/coupled cluster methods
   Benjamin Helmich-Paris : CASSCF linear response (MC-RPA)
   Lee Huntington         : MR-EOM, pCC
   Robert Izsak           : Overlap fitted RIJCOSX, COSX-SCS-MP3, EOM
   Christian Kollmar      : KDIIS, OOCD, Brueckner-CCSD(T), CCSD density
   Simone Kossmann        : Meta GGA functionals, TD-DFT gradient, OOMP2, MP2 Hessian
   Martin Krupicka        : AUTO-CI
   Lucas Lang             : DCDCAS
   Dagmar Lenk            : GEPOL surface, SMD
   Dimitrios Liakos       : Extrapolation schemes; Compound Job, initial MDCI parallelization
   Dimitrios Manganas     : Further ROCIS development; embedding schemes
   Dimitrios Pantazis     : SARC Basis sets
   Taras Petrenko         : DFT Hessian,TD-DFT gradient, ASA, ECA, R-Raman, ABS, FL, XAS/XES, NRVS
   Peter Pinski           : DLPNO-MP2, DLPNO-MP2 Gradient
   Christoph Reimann      : Effective Core Potentials
   Marius Retegan         : Local ZFS, SOC
   Christoph Riplinger    : Optimizer, TS searches, QM/MM, DLPNO-CCSD(T), (RO)-DLPNO pert. Triples
   Tobias Risthaus        : Range-separated hybrids, TD-DFT gradient, RPA, STAB
   Michael Roemelt        : Original ROCIS implementation
   Masaaki Saitow         : Open-shell DLPNO-CCSD energy and density
   Barbara Sandhoefer     : DKH picture change effects
   Avijit Sen             : IP-ROCIS
   Kantharuban Sivalingam : CASSCF convergence, NEVPT2, FIC-MRCI
   Bernardo de Souza      : ESD, SOC TD-DFT
   Georgi Stoychev        : AutoAux, RI-MP2 NMR
   Willem Van den Heuvel  : Paramagnetic NMR
   Boris Wezisla          : Elementary symmetry handling
   Frank Wennmohs         : Technical directorship


 We gratefully acknowledge several colleagues who have allowed us to
 interface, adapt or use parts of their codes:
   Stefan Grimme, W. Hujo, H. Kruse,             : VdW corrections, initial TS optimization,
                  C. Bannwarth                     DFT functionals, gCP, sTDA/sTD-DF
   Ed Valeev, F. Pavosevic, A. Kumar             : LibInt (2-el integral package), F12 methods
   Garnet Chan, S. Sharma, J. Yang, R. Olivares  : DMRG
   Ulf Ekstrom                                   : XCFun DFT Library
   Mihaly Kallay                                 : mrcc  (arbitrary order and MRCC methods)
   Andreas Klamt, Michael Diedenhofen            : otool_cosmo (COSMO solvation model)
   Jiri Pittner, Ondrej Demel                    : Mk-CCSD
   Frank Weinhold                                : gennbo (NPA and NBO analysis)
   Christopher J. Cramer and Donald G. Truhlar   : smd solvation model
   Lars Goerigk                                  : TD-DFT with DH, B97 family of functionals
   V. Asgeirsson, H. Jonsson                     : NEB implementation
   FAccTs GmbH                                   : IRC, NEB, NEB-TS, Multilevel, MM, QM/MM, CI optimization
   S Lehtola, MJT Oliveira, MAL Marques          : LibXC Library


 Your calculation uses the libint2 library for the computation of 2-el integrals
 For citations please refer to: http://libint.valeyev.net

 Your ORCA version has been built with support for libXC version: 4.2.3
 For citations please refer to: https://tddft.org/programs/libxc/

 This ORCA versions uses:
   CBLAS   interface :  Fast vector & matrix operations
   LAPACKE interface :  Fast linear algebra routines
   SCALAPACK package :  Parallel linear algebra routines


----- Orbital basis set information -----
Your calculation utilizes the basis: aug-cc-pVTZ 
    H, B-Ne : Obtained from the ccRepo (grant-hill.group.shef.ac.uk/ccrepo) Feb. 2017
              R. A. Kendall, T. H. Dunning, Jr., R. J. Harrison, J. Chem. Phys. 96, 6796 (1992)
         He : Obtained from the ccRepo (grant-hill.group.shef.ac.uk/ccrepo) Feb. 2017
              D. E. Woon, T. H. Dunning, Jr., J. Chem. Phys. 100, 2975 (1994)
  Li-Be, Na : Obtained from the ccRepo (grant-hill.group.shef.ac.uk/ccrepo) Feb. 2017
              B. P. Prascher, D. E. Woon, K. A. Peterson, T. H. Dunning, Jr., A. K. Wilson, Theor. Chem. Acc. 128, 69 (2011)
         Mg : Obtained from the Peterson Research Group Website (tyr0.chem.wsu.edu/~kipeters) Feb. 2017
              B. P. Prascher, D. E. Woon, K. A. Peterson, T. H. Dunning, Jr., A. K. Wilson, Theor. Chem. Acc. 128, 69 (2011)
      Al-Ar : Obtained from the ccRepo (grant-hill.group.shef.ac.uk/ccrepo) Feb. 2017
              D. E. Woon, T. H. Dunning, Jr., J. Chem. Phys. 98, 1358 (1993)
      Sc-Zn : Obtained from the ccRepo (grant-hill.group.shef.ac.uk/ccrepo) Feb. 2017
              N. B. Balabanov, K. A. Peterson, J. Chem. Phys. 123, 064107 (2005)
              N. B. Balabanov, K. A. Peterson, J. Chem. Phys. 125, 074110 (2006)
      Ga-Kr : Obtained from the ccRepo (grant-hill.group.shef.ac.uk/ccrepo) Feb. 2017
              A. K. Wilson, D. E. Woon, K. A. Peterson, T. H. Dunning, Jr., J. Chem. Phys. 110, 7667 (1999)
     Ag, Au : Obtained from the Peterson Research Group Website (tyr0.chem.wsu.edu/~kipeters) Feb. 2017
              K. A. Peterson, C. Puzzarini, Theor. Chem. Acc. 114, 283 (2005)

================================================================================
                                        WARNINGS
                       Please study these warnings very carefully!
================================================================================


WARNING: your system is open-shell and RHF/RKS was chosen
  ===> : WILL SWITCH to UHF/UKS


WARNING: MDCI localization with Augmented Hessian Foster-Boys
  ===> : Switching off randomization!

WARNING: Post HF methods need fully converged wavefunctions
  ===> : Setting SCFConvForced true
         You can overwrite this default with %scf ConvForced false 


INFO   : the flag for use of LIBINT has been found!

================================================================================
                                       INPUT FILE
================================================================================
NAME = 16_S.in
|  1> #
|  2> # 16_S CCSD(T)/aug-cc-pVTZ
|  3> #
|  4> ! CCSD(T) aug-cc-pVTZ tightscf
|  5> 
|  6> *xyz 0 3
|  7>  S 0.0 0.0 0.0
|  8> *
|  9> 
| 10> %maxcore 5000 
| 11> 
| 12> %pal
| 13> nprocs 15
| 14> end
| 15> 
| 16> 
| 17>                          ****END OF INPUT****
================================================================================

                       ****************************
                       * Single Point Calculation *
                       ****************************

---------------------------------
CARTESIAN COORDINATES (ANGSTROEM)
---------------------------------
  S      0.000000    0.000000    0.000000

----------------------------
CARTESIAN COORDINATES (A.U.)
----------------------------
  NO LB      ZA    FRAG     MASS         X           Y           Z
   0 S    16.0000    0    32.060    0.000000    0.000000    0.000000

--------------------------------
INTERNAL COORDINATES (ANGSTROEM)
--------------------------------
 S      0   0   0     0.000000000000     0.00000000     0.00000000

---------------------------
INTERNAL COORDINATES (A.U.)
---------------------------
 S      0   0   0     0.000000000000     0.00000000     0.00000000

---------------------
BASIS SET INFORMATION
---------------------
There are 1 groups of distinct atoms

 Group   1 Type S   : 42s17p3d2f contracted to 6s5p3d2f pattern {131313111/77111/111/11}

Atom   0S    basis set group =>   1


           ************************************************************
           *        Program running with 15 parallel MPI-processes    *
           *              working on a common directory               *
           ************************************************************
------------------------------------------------------------------------------
                           ORCA GTO INTEGRAL CALCULATION
------------------------------------------------------------------------------

                         BASIS SET STATISTICS AND STARTUP INFO

 # of primitive gaussian shells          ...   64
 # of primitive gaussian functions       ...  122
 # of contracted shells                  ...   16
 # of contracted basis functions         ...   50
 Highest angular momentum                ...    3
 Maximum contraction depth               ...   13
 Integral package used                   ... LIBINT
 Integral threshhold            Thresh   ...  2.500e-11
 Primitive cut-off              TCut     ...  2.500e-12


------------------------------ INTEGRAL EVALUATION ----------------------------


 * One electron integrals 
 Pre-screening matrix                    ... done
 Shell pair data                         ... done (   0.000 sec)



           ************************************************************
           *        Program running with 15 parallel MPI-processes    *
           *              working on a common directory               *
           ************************************************************
-------------------------------------------------------------------------------
                                 ORCA SCF
-------------------------------------------------------------------------------

------------
SCF SETTINGS
------------
Hamiltonian:
 Ab initio Hamiltonian  Method          .... Hartree-Fock(GTOs)


General Settings:
 Integral files         IntName         .... 16_S
 Hartree-Fock type      HFTyp           .... UHF
 Total Charge           Charge          ....    0
 Multiplicity           Mult            ....    3
 Number of Electrons    NEL             ....   16
 Basis Dimension        Dim             ....   50
 Nuclear Repulsion      ENuc            ....      0.0000000000 Eh

Convergence Acceleration:
 DIIS                   CNVDIIS         .... on
   Start iteration      DIISMaxIt       ....    12
   Startup error        DIISStart       ....  0.200000
   # of expansion vecs  DIISMaxEq       ....     5
   Bias factor          DIISBfac        ....   1.050
   Max. coefficient     DIISMaxC        ....  10.000
 Newton-Raphson         CNVNR           .... off
 SOSCF                  CNVSOSCF        .... off
 Level Shifting         CNVShift        .... on
   Level shift para.    LevelShift      ....    0.2500
   Turn off err/grad.   ShiftErr        ....    0.0010
 Zerner damping         CNVZerner       .... off
 Static damping         CNVDamp         .... on
   Fraction old density DampFac         ....    0.7000
   Max. Damping (<1)    DampMax         ....    0.9800
   Min. Damping (>=0)   DampMin         ....    0.0000
   Turn off err/grad.   DampErr         ....    0.1000
 Fernandez-Rico         CNVRico         .... off

SCF Procedure:
 Maximum # iterations   MaxIter         ....   125
 SCF integral mode      SCFMode         .... Direct
   Integral package                     .... LIBINT
 Reset frequency        DirectResetFreq ....    20
 Integral Threshold     Thresh          ....  2.500e-11 Eh
 Primitive CutOff       TCut            ....  2.500e-12 Eh

Convergence Tolerance:
 Convergence Check Mode ConvCheckMode   .... Total+1el-Energy
 Convergence forced     ConvForced      .... 1
 Energy Change          TolE            ....  1.000e-08 Eh
 1-El. energy change                    ....  1.000e-05 Eh
 DIIS Error             TolErr          ....  5.000e-07


Diagonalization of the overlap matrix:
Smallest eigenvalue                        ... 1.216e-02
Time for diagonalization                   ...    0.001 sec
Threshold for overlap eigenvalues          ... 1.000e-08
Number of eigenvalues below threshold      ... 0
Time for construction of square roots      ...    0.008 sec
Total time needed                          ...    0.009 sec

-------------------
DFT GRID GENERATION
-------------------

General Integration Accuracy     IntAcc      ...  4.340
Radial Grid Type                 RadialGrid  ... Gauss-Chebyshev
Angular Grid (max. acc.)         AngularGrid ... Lebedev-110
Angular grid pruning method      GridPruning ... 3 (G Style)
Weight generation scheme         WeightScheme... Becke
Basis function cutoff            BFCut       ...    1.0000e-11
Integration weight cutoff        WCut        ...    1.0000e-14
Grids for H and He will be reduced by one unit

# of grid points (after initial pruning)     ...   1806 (   0.0 sec)
# of grid points (after weights+screening)   ...   1806 (   0.0 sec)
Grid point division into batches done        ...    0.0 sec
Reduced shell lists constructed in    0.0 sec

Total number of grid points                  ...     1806
Total number of batches                      ...       29
Average number of points per batch           ...       62
Average number of grid points per atom       ...     1806
Average number of shells per batch           ...    10.67 (66.67%)
Average number of basis functions per batch  ...    33.33 (66.67%)
Average number of large shells per batch     ...     7.33 (68.75%)
Average number of large basis fcns per batch ...    26.00 (78.00%)
Maximum spatial batch extension              ...  16.21, 29.83, 29.83 au
Average spatial batch extension              ...   1.12,  2.06,  2.06 au

Time for grid setup =    0.028 sec

------------------------------
INITIAL GUESS: MODEL POTENTIAL
------------------------------
Loading Hartree-Fock densities                     ... done
Calculating cut-offs                               ... done
Setting up the integral package                    ... done
Initializing the effective Hamiltonian             ... done
Starting the Coulomb interaction                   ... done (   0.0 sec)
Reading the grid                                   ... done
Mapping shells                                     ... done
Starting the XC term evaluation                    ... done (   0.0 sec)
Transforming the Hamiltonian                       ... done (   0.0 sec)
Diagonalizing the Hamiltonian                      ... done (   0.0 sec)
Back transforming the eigenvectors                 ... done (   0.0 sec)
Now organizing SCF variables                       ... done
                      ------------------
                      INITIAL GUESS DONE (   0.1 sec)
                      ------------------
--------------
SCF ITERATIONS
--------------
ITER       Energy         Delta-E        Max-DP      RMS-DP      [F,P]     Damp
               ***  Starting incremental Fock matrix formation  ***
  0   -397.4894837463   0.000000000000 0.02520772  0.00072981  0.1215366 0.7000
  1   -397.4945783773  -0.005094631034 0.01820772  0.00056020  0.0868988 0.7000
                               ***Turning on DIIS***
  2   -397.4984964583  -0.003918081009 0.04283296  0.00138251  0.0616792 0.0000
  3   -397.5061615553  -0.007665097041 0.00918340  0.00026512  0.0050671 0.0000
  4   -397.5135958407  -0.007434285306 0.00476956  0.00014879  0.0027091 0.0000
  5   -397.5076151632   0.005980677451 0.00182536  0.00006415  0.0011925 0.0000
  6   -397.5090631777  -0.001448014521 0.00069462  0.00002796  0.0004816 0.0000
  7   -397.5098003837  -0.000737205992 0.00020147  0.00000561  0.0001101 0.0000
  8   -397.5098891884  -0.000088804727 0.00007145  0.00000192  0.0000139 0.0000
  9   -397.5098706058   0.000018582604 0.00002788  0.00000079  0.0000024 0.0000
 10   -397.5098719879  -0.000001382108 0.00001323  0.00000038  0.0000010 0.0000
                            ***DIIS convergence achieved***

               *****************************************************
               *                     SUCCESS                       *
               *           SCF CONVERGED AFTER  11 CYCLES          *
               *****************************************************


----------------
TOTAL SCF ENERGY
----------------

Total Energy       :         -397.50987188 Eh          -10816.79353 eV

Components:
Nuclear Repulsion  :            0.00000000 Eh               0.00000 eV
Electronic Energy  :         -397.50987188 Eh          -10816.79353 eV
One Electron Energy:         -549.37310764 Eh          -14949.20226 eV
Two Electron Energy:          151.86323576 Eh            4132.40873 eV

Virial components:
Potential Energy   :         -795.00687735 Eh          -21633.23695 eV
Kinetic Energy     :          397.49700547 Eh           10816.44342 eV
Virial Ratio       :            2.00003237


---------------
SCF CONVERGENCE
---------------

  Last Energy change         ...    1.0809e-07  Tolerance :   1.0000e-08
  Last MAX-Density change    ...    6.9340e-06  Tolerance :   1.0000e-07
  Last RMS-Density change    ...    2.0640e-07  Tolerance :   5.0000e-09
  Last DIIS Error            ...    3.5620e-07  Tolerance :   5.0000e-07

             **** THE GBW FILE WAS UPDATED (16_S.gbw) ****
             **** DENSITY FILE WAS UPDATED (16_S.scfp) ****
             **** ENERGY FILE WAS UPDATED (16_S.en.tmp) ****
----------------------
UHF SPIN CONTAMINATION
----------------------

Expectation value of <S**2>     :     2.012872
Ideal value S*(S+1) for S=1.0   :     2.000000
Deviation                       :     0.012872

             **** THE GBW FILE WAS UPDATED (16_S.gbw) ****
             **** DENSITY FILE WAS UPDATED (16_S.scfp) ****
----------------
ORBITAL ENERGIES
----------------
                 SPIN UP ORBITALS
  NO   OCC          E(Eh)            E(eV) 
   0   1.0000     -92.013851     -2503.8242 
   1   1.0000      -9.013668      -245.2744 
   2   1.0000      -6.706039      -182.4806 
   3   1.0000      -6.706039      -182.4806 
   4   1.0000      -6.685444      -181.9202 
   5   1.0000      -0.990137       -26.9430 
   6   1.0000      -0.487056       -13.2535 
   7   1.0000      -0.487056       -13.2535 
   8   1.0000      -0.415911       -11.3175 
   9   0.0000       0.091733         2.4962 
  10   0.0000       0.091733         2.4962 
  11   0.0000       0.099784         2.7153 
  12   0.0000       0.100335         2.7303 
  13   0.0000       0.241098         6.5606 
  14   0.0000       0.241098         6.5606 
  15   0.0000       0.258860         7.0439 
  16   0.0000       0.258860         7.0439 
  17   0.0000       0.265626         7.2280 
  18   0.0000       0.512246        13.9389 
  19   0.0000       0.512246        13.9389 
  20   0.0000       0.544009        14.8033 
  21   0.0000       0.666803        18.1446 
  22   0.0000       0.666803        18.1446 
  23   0.0000       0.702916        19.1273 
  24   0.0000       0.702916        19.1273 
  25   0.0000       0.716962        19.5095 
  26   0.0000       0.726530        19.7699 
  27   0.0000       0.817194        22.2370 
  28   0.0000       0.817194        22.2370 
  29   0.0000       0.834993        22.7213 
  30   0.0000       0.834993        22.7213 
  31   0.0000       0.846268        23.0281 
  32   0.0000       0.846268        23.0281 
  33   0.0000       0.850164        23.1341 
  34   0.0000       1.954286        53.1788 
  35   0.0000       1.954286        53.1788 
  36   0.0000       1.990492        54.1641 
  37   0.0000       1.990492        54.1641 
  38   0.0000       2.003747        54.5247 
  39   0.0000       2.273745        61.8717 
  40   0.0000       2.273745        61.8717 
  41   0.0000       2.287820        62.2548 
  42   0.0000       2.287820        62.2548 
  43   0.0000       2.305746        62.7425 
  44   0.0000       2.305746        62.7425 
  45   0.0000       2.326292        63.3016 
  46   0.0000       2.326292        63.3016 
  47   0.0000       2.327990        63.3478 
  48   0.0000       2.339867        63.6710 
  49   0.0000       4.082578       111.0926 

                 SPIN DOWN ORBITALS
  NO   OCC          E(Eh)            E(eV) 
   0   1.0000     -91.996158     -2503.3427 
   1   1.0000      -8.994931      -244.7645 
   2   1.0000      -6.675855      -181.6592 
   3   1.0000      -6.660358      -181.2376 
   4   1.0000      -6.660358      -181.2376 
   5   1.0000      -0.774359       -21.0714 
   6   1.0000      -0.379417       -10.3245 
   7   0.0000       0.001023         0.0278 
   8   0.0000       0.001023         0.0278 
   9   0.0000       0.101475         2.7613 
  10   0.0000       0.111464         3.0331 
  11   0.0000       0.118980         3.2376 
  12   0.0000       0.118980         3.2376 
  13   0.0000       0.280670         7.6374 
  14   0.0000       0.281596         7.6626 
  15   0.0000       0.281596         7.6626 
  16   0.0000       0.286194         7.7877 
  17   0.0000       0.286194         7.7877 
  18   0.0000       0.555042        15.1035 
  19   0.0000       0.583638        15.8816 
  20   0.0000       0.583638        15.8816 
  21   0.0000       0.759540        20.6681 
  22   0.0000       0.766999        20.8711 
  23   0.0000       0.766999        20.8711 
  24   0.0000       0.769004        20.9257 
  25   0.0000       0.787985        21.4422 
  26   0.0000       0.787985        21.4422 
  27   0.0000       0.851391        23.1675 
  28   0.0000       0.851391        23.1675 
  29   0.0000       0.857496        23.3336 
  30   0.0000       0.857496        23.3336 
  31   0.0000       0.861092        23.4315 
  32   0.0000       0.861092        23.4315 
  33   0.0000       0.862249        23.4630 
  34   0.0000       2.020178        54.9718 
  35   0.0000       2.020178        54.9718 
  36   0.0000       2.026449        55.1425 
  37   0.0000       2.026449        55.1425 
  38   0.0000       2.028497        55.1982 
  39   0.0000       2.348828        63.9149 
  40   0.0000       2.351628        63.9911 
  41   0.0000       2.351628        63.9911 
  42   0.0000       2.358495        64.1779 
  43   0.0000       2.358495        64.1779 
  44   0.0000       2.358604        64.1809 
  45   0.0000       2.358604        64.1809 
  46   0.0000       2.364774        64.3488 
  47   0.0000       2.365421        64.3664 
  48   0.0000       2.365421        64.3664 
  49   0.0000       4.117328       112.0382 

                    ********************************
                    * MULLIKEN POPULATION ANALYSIS *
                    ********************************

--------------------------------------------
MULLIKEN ATOMIC CHARGES AND SPIN POPULATIONS
--------------------------------------------
   0 S :    0.000000    2.000000
Sum of atomic charges         :    0.0000000
Sum of atomic spin populations:    2.0000000

-----------------------------------------------------
MULLIKEN REDUCED ORBITAL CHARGES AND SPIN POPULATIONS
-----------------------------------------------------
CHARGE
  0 S s       :     5.994469  s :     5.994469
      pz      :     2.999582  p :     9.998414
      px      :     2.999582
      py      :     3.999250
      dz2     :     0.001383  d :     0.005531
      dxz     :     0.000000
      dyz     :     0.000000
      dx2y2   :     0.004149
      dxy     :     0.000000
      f0      :     0.000157  f :     0.001586
      f+1     :     0.000026
      f-1     :     0.000281
      f+2     :     0.000261
      f-2     :     0.000000
      f+3     :     0.000392
      f-3     :     0.000469

SPIN
  0 S s       :     0.001895  s :     0.001895
      pz      :     0.999582  p :     1.998506
      px      :     0.999582
      py      :    -0.000658
      dz2     :    -0.000474  d :    -0.001895
      dxz     :     0.000000
      dyz     :    -0.000000
      dx2y2   :    -0.001422
      dxy     :    -0.000000
      f0      :     0.000157  f :     0.001494
      f+1     :     0.000026
      f-1     :     0.000247
      f+2     :     0.000261
      f-2     :     0.000000
      f+3     :     0.000392
      f-3     :     0.000411


                     *******************************
                     * LOEWDIN POPULATION ANALYSIS *
                     *******************************

-------------------------------------------
LOEWDIN ATOMIC CHARGES AND SPIN POPULATIONS
-------------------------------------------
   0 S :    0.000000    2.000000

----------------------------------------------------
LOEWDIN REDUCED ORBITAL CHARGES AND SPIN POPULATIONS
----------------------------------------------------
CHARGE
  0 S s       :     5.994469  s :     5.994469
      pz      :     2.999582  p :     9.998414
      px      :     2.999582
      py      :     3.999250
      dz2     :     0.001383  d :     0.005531
      dxz     :     0.000000
      dyz     :     0.000000
      dx2y2   :     0.004149
      dxy     :     0.000000
      f0      :     0.000157  f :     0.001586
      f+1     :     0.000026
      f-1     :     0.000281
      f+2     :     0.000261
      f-2     :     0.000000
      f+3     :     0.000392
      f-3     :     0.000469

SPIN
  0 S s       :     0.001895  s :     0.001895
      pz      :     0.999582  p :     1.998506
      px      :     0.999582
      py      :    -0.000658
      dz2     :    -0.000474  d :    -0.001895
      dxz     :     0.000000
      dyz     :    -0.000000
      dx2y2   :    -0.001422
      dxy     :    -0.000000
      f0      :     0.000157  f :     0.001494
      f+1     :     0.000026
      f-1     :     0.000247
      f+2     :     0.000261
      f-2     :     0.000000
      f+3     :     0.000392
      f-3     :     0.000411


                      *****************************
                      * MAYER POPULATION ANALYSIS *
                      *****************************

  NA   - Mulliken gross atomic population
  ZA   - Total nuclear charge
  QA   - Mulliken gross atomic charge
  VA   - Mayer's total valence
  BVA  - Mayer's bonded valence
  FA   - Mayer's free valence

  ATOM       NA         ZA         QA         VA         BVA        FA
  0 S     16.0000    16.0000    -0.0000     2.0257     0.0000     2.0257

  Mayer bond orders larger than 0.100000


-------
TIMINGS
-------

Total SCF time: 0 days 0 hours 0 min 3 sec 

Total time                  ....       3.123 sec
Sum of individual times     ....       2.762 sec  ( 88.4%)

Fock matrix formation       ....       2.266 sec  ( 72.6%)
Diagonalization             ....       0.029 sec  (  0.9%)
Density matrix formation    ....       0.003 sec  (  0.1%)
Population analysis         ....       0.137 sec  (  4.4%)
Initial guess               ....       0.112 sec  (  3.6%)
Orbital Transformation      ....       0.000 sec  (  0.0%)
Orbital Orthonormalization  ....       0.000 sec  (  0.0%)
DIIS solution               ....       0.185 sec  (  5.9%)


           ************************************************************
           *        Program running with 15 parallel MPI-processes    *
           *              working on a common directory               *
           ************************************************************


------------------------------------------------------------------------------- 
                              ORCA-MATRIX DRIVEN CI                            
------------------------------------------------------------------------------- 

--------------------------------
AUTOMATIC CHOICE OF INCORE LEVEL
--------------------------------

Memory available                           ...   2500.00 MB
Memory needed for S+T                      ...      0.38 MB
Memory needed for J+K                      ...      0.78 MB
Memory needed for DIIS                     ...      5.39 MB
Memory needed for 3-ext                    ...      2.10 MB
Memory needed for 4-ext                    ...     11.04 MB
Memory needed for triples                  ...      2.63 MB
 -> Final InCoreLevel    ... 5
 -> check shows that triples correction can be computed


Wavefunction type
-----------------
Correlation treatment                      ...      CCSD     
Single excitations                         ... ON
Orbital optimization                       ... OFF
Calculation of Z vector                    ... OFF
Calculation of Brueckner orbitals          ... OFF
Perturbative triple excitations            ... ON
Calculation of F12 correction              ... OFF
Frozen core treatment                      ... chemical core (10 el)
Reference Wavefunction                     ... UHF
  Alpha-MOs occ    :     5 ...    8 (  4 MO's/  4 electrons)
  Beta-MOs occ     :     5 ...    6 (  2 MO's/  2 electrons)
  Alpha-MOs virt   :     9 ...   49 ( 41 MO's              )
  Beta-MOs virt    :     7 ...   49 ( 43 MO's              )
Number of AO's                             ...     50
Number of electrons                        ...     16
Number of correlated electrons             ...      6

Algorithmic settings
--------------------
Integral transformation                    ... AO direct full transformation
K(C) Formation                             ... FULL-MO TRAFO
Maximum number of iterations               ...        50
Convergence tolerance (max. residuum)      ... 1.000e-05
Level shift for amplitude update           ... 2.000e-01
Maximum number of DIIS vectors             ...         7
DIIS turned on at iteration                ...         0
Damping before turning on DIIS             ...     0.500
Damping after turning on DIIS              ...     0.000
Pair specific amplitude update             ... OFF
Natural orbital iterations                 ... OFF
Perturbative natural orbital generation    ... OFF
Printlevel                                 ... 2

Memory handling:
----------------
Maximum memory for working arrays          ...   2500 MB
Data storage in matrix containers          ... UNCOMPRESSED
Data type for integral storage             ... DOUBLE
In-Core Storage of quantities:
   Amplitudes+Sigma Vector      ... YES
   J+K operators                ... YES
   DIIS vectors                 ... YES
   3-external integrals         ... YES
   4-external integrals         ... YES


Initializing the integral package          ... done
Warning: reference  - re-canonicalizations have been set to INT 1 VIRT 1

--------------------------
UNRESTRICTED FOCK OPERATOR
--------------------------

<ss|ss>:          231 b            0 skpd (  0.0%)    0.005 s ( 0.021 ms/b)
<ss|sp>:          630 b            0 skpd (  0.0%)    0.016 s ( 0.026 ms/b)
<ss|sd>:          378 b            0 skpd (  0.0%)    0.002 s ( 0.006 ms/b)
<ss|sf>:          252 b            0 skpd (  0.0%)    0.002 s ( 0.009 ms/b)
<ss|pp>:          315 b            0 skpd (  0.0%)    0.007 s ( 0.021 ms/b)
<ss|pd>:          315 b            0 skpd (  0.0%)    0.001 s ( 0.004 ms/b)
<ss|pf>:          210 b            0 skpd (  0.0%)    0.002 s ( 0.009 ms/b)
<ss|dd>:          126 b            0 skpd (  0.0%)    0.000 s ( 0.002 ms/b)
<ss|df>:          126 b            0 skpd (  0.0%)    0.000 s ( 0.003 ms/b)
<ss|ff>:           63 b            0 skpd (  0.0%)    0.001 s ( 0.010 ms/b)
<sp|sp>:          465 b            0 skpd (  0.0%)    0.006 s ( 0.014 ms/b)
<sp|sd>:          540 b            0 skpd (  0.0%)    0.002 s ( 0.004 ms/b)
<sp|sf>:          360 b            0 skpd (  0.0%)    0.002 s ( 0.006 ms/b)
<sp|pp>:          450 b            0 skpd (  0.0%)    0.006 s ( 0.013 ms/b)
<sp|pd>:          450 b            0 skpd (  0.0%)    0.001 s ( 0.003 ms/b)
<sp|pf>:          300 b            0 skpd (  0.0%)    0.002 s ( 0.008 ms/b)
<sp|dd>:          180 b            0 skpd (  0.0%)    0.000 s ( 0.002 ms/b)
<sp|df>:          180 b            0 skpd (  0.0%)    0.001 s ( 0.004 ms/b)
<sp|ff>:           90 b            0 skpd (  0.0%)    0.001 s ( 0.011 ms/b)
<sd|sd>:          171 b            0 skpd (  0.0%)    0.000 s ( 0.003 ms/b)
<sd|sf>:          216 b            0 skpd (  0.0%)    0.001 s ( 0.004 ms/b)
<sd|pp>:          270 b            0 skpd (  0.0%)    0.002 s ( 0.007 ms/b)
<sd|pd>:          270 b            0 skpd (  0.0%)    0.001 s ( 0.002 ms/b)
<sd|pf>:          180 b            0 skpd (  0.0%)    0.001 s ( 0.006 ms/b)
<sd|dd>:          108 b            0 skpd (  0.0%)    0.000 s ( 0.003 ms/b)
<sd|df>:          108 b            0 skpd (  0.0%)    0.000 s ( 0.004 ms/b)
<sd|ff>:           54 b            0 skpd (  0.0%)    0.001 s ( 0.012 ms/b)
<sf|sf>:           78 b            0 skpd (  0.0%)    0.001 s ( 0.011 ms/b)
<sf|pp>:          180 b            0 skpd (  0.0%)    0.003 s ( 0.016 ms/b)
<sf|pd>:          180 b            0 skpd (  0.0%)    0.001 s ( 0.005 ms/b)
<sf|pf>:          120 b            0 skpd (  0.0%)    0.001 s ( 0.012 ms/b)
<sf|dd>:           72 b            0 skpd (  0.0%)    0.000 s ( 0.004 ms/b)
<sf|df>:           72 b            0 skpd (  0.0%)    0.001 s ( 0.008 ms/b)
<sf|ff>:           36 b            0 skpd (  0.0%)    0.001 s ( 0.029 ms/b)
<pp|pp>:          120 b            0 skpd (  0.0%)    0.003 s ( 0.023 ms/b)
<pp|pd>:          225 b            0 skpd (  0.0%)    0.001 s ( 0.004 ms/b)
<pp|pf>:          150 b            0 skpd (  0.0%)    0.002 s ( 0.010 ms/b)
<pp|dd>:           90 b            0 skpd (  0.0%)    0.000 s ( 0.004 ms/b)
<pp|df>:           90 b            0 skpd (  0.0%)    0.001 s ( 0.007 ms/b)
<pp|ff>:           45 b            0 skpd (  0.0%)    0.001 s ( 0.022 ms/b)
<pd|pd>:          120 b            0 skpd (  0.0%)    0.001 s ( 0.006 ms/b)
<pd|pf>:          150 b            0 skpd (  0.0%)    0.001 s ( 0.007 ms/b)
<pd|dd>:           90 b            0 skpd (  0.0%)    0.001 s ( 0.006 ms/b)
<pd|df>:           90 b            0 skpd (  0.0%)    0.001 s ( 0.008 ms/b)
<pd|ff>:           45 b            0 skpd (  0.0%)    0.001 s ( 0.024 ms/b)
<pf|pf>:           55 b            0 skpd (  0.0%)    0.001 s ( 0.020 ms/b)
<pf|dd>:           60 b            0 skpd (  0.0%)    0.000 s ( 0.007 ms/b)
<pf|df>:           60 b            0 skpd (  0.0%)    0.001 s ( 0.013 ms/b)
<pf|ff>:           30 b            0 skpd (  0.0%)    0.001 s ( 0.049 ms/b)
<dd|dd>:           21 b            0 skpd (  0.0%)    0.000 s ( 0.007 ms/b)
<dd|df>:           36 b            0 skpd (  0.0%)    0.000 s ( 0.011 ms/b)
<dd|ff>:           18 b            0 skpd (  0.0%)    0.001 s ( 0.032 ms/b)
<df|df>:           21 b            0 skpd (  0.0%)    0.001 s ( 0.024 ms/b)
<df|ff>:           18 b            0 skpd (  0.0%)    0.001 s ( 0.067 ms/b)
<ff|ff>:            6 b            0 skpd (  0.0%)    0.001 s ( 0.166 ms/b)
Recanonicalizing the internal orbitals
Recanonicalizing the virtual orbitals
Time needed for Fock operator              ...            0.227 sec
Reference energy                           ...   -397.509872732
Warning: for UHF the TrafoType has to be JK
Warning: for UHF the K(C)-option cannot be MO but must be AOX

-------------------------------
PARTIAL EXCHANGE TRANSFORMATION
-------------------------------

Transformation type                        ... two-operators
Generation of integrals (i,mue|j,nue)      ... ON
Generation of integrals (mue,kappa|nue,tau)... ON
Generation of integrals (i,mue|a,nue)      ... ON
Dimension of the basis                     ...   50
Number of internal alpha-MOs               ...    4 (   5-   8)
Number of internal beta-MOs                ...    2 (   5-   6)
Number of external alpha-MOs               ...   41 (   9-  49)
Number of external beta-MOs                ...   43 (   7-  49)
Pair cutoff                                ... 0.000e+00 Eh
Number of AO pairs in the trafo            ... 1275
Total Number of distinct AO pairs          ... 1275
Memory devoted for trafo                   ... 2500.0 MB 
Max. Number of MO pairs treated together   ... 131072      
Number Format for Storage                  ... Double (8 Byte)
Integral package used                      ... LIBINT

Starting integral evaluation:
    ... done with AO integral generation
Closing buffer AOK[aa] ( 0.00 GB; CompressionRatio= 0.91)
Closing buffer AOK[bb] ( 0.00 GB; CompressionRatio= 0.73)
Closing buffer AOK[ab] ( 0.00 GB; CompressionRatio= 0.84)
Closing buffer AOK[ba] ( 0.00 GB; CompressionRatio= 0.84)
Collecting buffer AOK 
Closing buffer IAAO1[aa] ( 0.00 GB; CompressionRatio= 0.99)
Closing buffer IAAO1[bb] ( 0.00 GB; CompressionRatio= 0.98)
Closing buffer IAAO1[ab] ( 0.00 GB; CompressionRatio= 0.99)
Closing buffer IAAO1[ba] ( 0.00 GB; CompressionRatio= 0.98)
Closing buffer IAAO2[aa] ( 0.00 GB; CompressionRatio= 0.99)
Closing buffer IAAO2[bb] ( 0.00 GB; CompressionRatio= 0.98)
Closing buffer IAAO2[ab] ( 0.00 GB; CompressionRatio= 0.99)
Closing buffer IAAO2[ba] ( 0.00 GB; CompressionRatio= 0.98)
Collecting buffer IAAO 
Closing buffer PRQS    ( 0.00 GB; CompressionRatio= 1.00)
Collecting buffer PRQS 
Number of alpha/alpha MO pairs in trafo    ...   10
Number of beta /beta  MO pairs in trafo    ...    3
Number of alpha/ beta MO pairs in trafo    ...    8
------------------------
SORTING OF (i,mue|j,nue)
------------------------

SORTING OF ALPHA/ALPHA PAIRS
IBATCH = 1 of  1
Closing buffer KAO[aa] ( 0.00 GB; CompressionRatio= 1.00)
Collecting buffer KAO 
SORTING OF BETA /BETA  PAIRS
IBATCH = 1 of  1
Closing buffer KAO[bb] ( 0.00 GB; CompressionRatio= 1.00)
Collecting buffer KAO 
SORTING OF ALPHA/BETA  PAIRS
IBATCH = 1 of  1
Closing buffer KAO[ab] ( 0.00 GB; CompressionRatio= 0.999400359784)
Collecting buffer KAO[ab] 
------------------------
SORTING OF (i,mue|a,nue)
------------------------

Number of alpha/alpha (i,a) pairs in trafo  ...  164
Number of beta /beta  (i,a) pairs in trafo  ...   86
Number of alpha/ beta (i,a) pairs in trafo  ...  172
Number of beta /alpha (i,a) pairs in trafo  ...   82
Setting up the alpha/alpha list             ... done
Setting up the beta /beta  list             ... done
Setting up the alpha/beta  list             ... done
Setting up the beta /alpha list             ... done
    ... Now sorting (i,mue|a,nue)integrals
    ... Integrals (i,b|a,c) will be made on the fly
SORTING OF ALPHA/ALPHA PAIRS
IBATCH = 1 of  1
Closing buffer IPAQ[aa]  0.00 GB; CompressionRatio= 1.00)
SORTING OF BETA /BETA  PAIRS
IBATCH = 1 of  1
Closing buffer IPAQ[bb]( 0.00 GB; CompressionRatio= 1.00)
SORTING OF ALPHA/BETA  PAIRS (NMatSort_ab=12)
IBATCH = 1 of  1
Closing buffer IPAQ[ab]( 0.00 GB; CompressionRatio= 1.00)
SORTING OF BETA/ALPHA  PAIRS
IBATCH = 1 of  1
Closing buffer IPAQ[ba]( 0.00 GB; CompressionRatio= 1.00)
N(AO-Batches) Done                         ...       512 
N(AO-Batches) Skipped                      ...         0 
N(IJ)-pairs Skipped                        ...         0 
TOTAL TIME for half transformation         ...     2.068 sec
AO-integral generation                     ...     0.043 sec
Half transformation                        ...     0.115 sec
K-integral sorting                         ...     0.409 sec
<ss|**>: 
------------------------------
PARTIAL COULOMB TRANSFORMATION
------------------------------

Transformation type                        ... two-operators
Dimension of the basis                     ...   50
Number of internal alpha-MOs               ...    4 (5-8)
Number of internal beta-MOs                ...    2 (5-6)
Pair cutoff                                ... 0.000e+00 Eh
Number of AO pairs included in the trafo   ... 1275
Total Number of distinct AO pairs          ... 1275
Memory devoted for trafo                   ... 2500.0 MB 
Max. Number of MO pairs treated together   ... 257003      
Max. Number of MOs treated per batch       ... 5140      
Number Format for Storage                  ... Double (8 Byte)
AO-integral source                         ... DIRECT
Integral package used                      ... LIBINT

Starting integral evaluation:
<sp|**>:         2856 b        0 skpd     0.031 s (  0.011 ms/b)
<sd|**>:         4080 b        0 skpd     0.057 s (  0.014 ms/b)
<sf|**>:         2448 b        0 skpd     0.020 s (  0.008 ms/b)
<pp|**>:         1632 b        0 skpd     0.025 s (  0.015 ms/b)
<pd|**>:         2040 b        0 skpd     0.049 s (  0.024 ms/b)
        2040 b        0 skpd     0.032 s (  0.016 ms/b)
<pf|**>:         1360 b        0 skpd     0.037 s (  0.027 ms/b)
<dd|**>:          816 b        0 skpd     0.023 s (  0.029 ms/b)
<df|**>:          816 b        0 skpd     0.037 s (  0.045 ms/b)
<ff|**>:          408 b        0 skpd     0.039 s (  0.097 ms/b)
Closing buffer AOJ[aa] ( 0.00 GB; CompressionRatio= 0.87)
Closing buffer AOJ[bb] ( 0.00 GB; CompressionRatio= 0.00)
Collecting buffer AOJ 
    ... done with AO integral generation
Number of Alpha-MO pairs included          ...   10
Number of Beta-MO pairs included           ...    3
    ... Now sorting integrals
SORTING ALPHA/ALPHA PAIRS
IBATCH = 1 of  1
Closing buffer JAO[aa] ( 0.00 GB; CompressionRatio= 1.00)
SORTING BETA/BETA PAIRS
IBATCH = 1 of  1
Closing buffer JAO[bb] ( 0.00 GB; CompressionRatio= 1.00)
Collecting buffer JAO 
TOTAL TIME for half transformation         ...     0.422 sec
AO-integral generation                     ...     0.278 sec
Half transformation                        ...     0.074 sec
J-integral sorting                         ...     0.043 sec

-------------------------- SECOND HALF TRANSFORMATION -------------------------
Formation of (ij|kl),(ij|ka), (ij|ab)      ... ok (     0.056 sec)
Formation of (ik|jl),(ik|ja), (ia|jb)      ... ok (     0.091 sec)


-----------------------
SPIN UNRESTRICTED GUESS
-----------------------

Entering MDCI_UHF_Guess, Tailored=0
Spin-components of the MP2 energy:
EMP2(aa)=     -0.024256891
EMP2(bb)=     -0.003182544
EMP2(ab)=     -0.091013901

Initial guess performed in     0.001 sec
E(0)                                       ...   -397.509872732
E(MP2)                                     ...     -0.118453335
Initial E(tot)                             ...   -397.628326068
<T|T>                                      ...      0.049618274
Number of pairs included                   ... 15

------------------------------------------------
                  UHF COUPLED CLUSTER ITERATIONS
------------------------------------------------

Number of amplitudes to be optimized       ...        20193

Iter       E(tot)           E(Corr)          Delta-E          Residual     Time      <S|S>**1/2
  0   -397.628326068     -0.118453335     -0.000000000      0.015187148    0.13      0.000000826
                           *** Turning on DIIS ***
  1   -397.644166687     -0.134293954     -0.015840619      0.007684706    0.12      0.009733898
  2   -397.650513949     -0.140641217     -0.006347263      0.002180072    0.12      0.016237561
  3   -397.651053237     -0.141180505     -0.000539288      0.000375197    0.12      0.018505042
  4   -397.651158393     -0.141285661     -0.000105156      0.000103829    0.12      0.018951061
  5   -397.651157988     -0.141285256      0.000000405      0.000053001    0.12      0.018995445
  6   -397.651158968     -0.141286236     -0.000000980      0.000018846    0.12      0.018995273
  7   -397.651159504     -0.141286772     -0.000000536      0.000004684    0.11      0.018985192
               --- The Coupled-Cluster iterations have converged ---

----------------------
COUPLED CLUSTER ENERGY
----------------------

E(0)                                       ...   -397.509872732
E(CORR)                                    ...     -0.141286772
E(TOT)                                     ...   -397.651159504
Singles norm <S|S>**1/2                    ...      0.018985192 ( 0.008348182, 0.010637011)  
T1 diagnostic                              ...      0.007750672                              

------------------
LARGEST AMPLITUDES
------------------
   8a-> 25a   6b-> 21b       0.034572
   8a-> 24a   5b->  8b       0.033334
   8a-> 23a   5b->  7b       0.033334
   8a-> 20a   6b-> 18b       0.029572
   7a-> 22a   5b->  7b       0.028704
   6a-> 22a   5b->  8b       0.028704
   6a-> 21a   5b->  7b       0.028704
   7a-> 21a   5b->  8b       0.028704
   8a-> 17a   6b-> 13b       0.026647
   8a-> 24a   6b-> 23b       0.026170
   8a-> 23a   6b-> 22b       0.026170
   8a-> 25a   6b-> 13b       0.025976
   7a-> 13a   5b->  8b       0.025158
   6a-> 13a   5b->  7b       0.025158
   7a-> 14a   5b->  7b       0.025158
   6a-> 14a   5b->  8b       0.025158

----------------------
UHF TRIPLES CORRECTION (Algorithm 1)
----------------------

Multiplier for the singles contribution    ...      1.000000000

SPIN-CASE Alpha-Alpha-Alpha:
10% done
20% done
30% done
40% done
50% done
60% done
70% done
80% done
90% done


SPIN-CASE Beta-Beta-Beta:

SPIN-CASE Alpha-Alpha-Beta:
10% done
20% done
30% done
40% done
50% done
60% done
70% done
80% done
90% done


SPIN-CASE Beta-Beta-Alpha:
10% done
20% done
30% done
40% done
50% done
60% done
70% done
80% done
90% done


Triples Correction (T)                     ...     -0.004982648
    alpha-alpha-alpha ... -0.000254432 (  5.1%)
    alpha-alpha-beta  ... -0.003601671 ( 72.3%)
    alpha-beta -beta  ... -0.001126544 ( 22.6%)
    beta -beta -beta  ...  0.000000000 ( -0.0%)
Scaling of triples based on CCSD energies (Peterson et al. Molecular Physics 113, 1551 (2015))
E(T*) = f*E(T) where f = E(F12-CCSD)/E(CCSD) 
f = CCSD (with F12)/ CCSD (without F12)    ...      1.000000000
Scaled triples correction (T)              ...     -0.004982648

Final correlation energy                   ...     -0.146269419
E(CCSD)                                    ...   -397.651159504
E(CCSD(T))                                 ...   -397.656142151



        !!!!!!!!!!!!!!!!!!!!!!!!!!!!!!!!!!!!!!!!!!!!!!!!!!!!!!!!!!!!!!!!!!!!!!!!!! 
        !  Warning: Densities are linearized densities                           !
        !!!!!!!!!!!!!!!!!!!!!!!!!!!!!!!!!!!!!!!!!!!!!!!!!!!!!!!!!!!!!!!!!!!!!!!!!! 

NORM  =      1.075202649 sqrt=     1.036919789
W(HF) =      0.930057233
------------------------------------------------------------------------------
                           ORCA POPULATION ANALYSIS
------------------------------------------------------------------------------
Input electron density              ... 16_S.mdcip
Input spin density                  ... 16_S.mdcir
BaseName (.gbw .S,...)              ... 16_S

                    ********************************
                    * MULLIKEN POPULATION ANALYSIS *
                    ********************************

------------------------------------------
MULLIKEN ATOMIC CHARGES AND SPIN DENSITIES
------------------------------------------
   0 S :    0.000000    2.000000
Sum of atomic charges       :    0.0000000
Sum of atomic spin densities:    2.0000000

---------------------------------------------------
MULLIKEN REDUCED ORBITAL CHARGES AND SPIN DENSITIES
---------------------------------------------------
CHARGE
  0 S s       :     5.959168  s :     5.959168
      pz      :     2.995469  p :     9.943599
      px      :     2.995469
      py      :     3.952662
      dz2     :     0.015759  d :     0.086375
      dxz     :     0.014250
      dyz     :     0.018793
      dx2y2   :     0.018779
      dxy     :     0.018793
      f0      :     0.001201  f :     0.010858
      f+1     :     0.000755
      f-1     :     0.001809
      f+2     :     0.001559
      f-2     :     0.001542
      f+3     :     0.002005
      f-3     :     0.001987

SPIN
  0 S s       :     0.023092  s :     0.023092
      pz      :     0.967202  p :     1.934141
      px      :     0.967202
      py      :    -0.000262
      dz2     :     0.009719  d :     0.038084
      dxz     :     0.011715
      dyz     :     0.005462
      dx2y2   :     0.005726
      dxy     :     0.005462
      f0      :     0.000518  f :     0.004683
      f+1     :     0.000327
      f-1     :     0.000781
      f+2     :     0.000670
      f-2     :     0.000673
      f+3     :     0.000861
      f-3     :     0.000853


                     *******************************
                     * LOEWDIN POPULATION ANALYSIS *
                     *******************************

-----------------------------------------
LOEWDIN ATOMIC CHARGES AND SPIN DENSITIES
-----------------------------------------
   0 S :    0.000000    2.000000

--------------------------------------------------
LOEWDIN REDUCED ORBITAL CHARGES AND SPIN DENSITIES
--------------------------------------------------
CHARGE
  0 S s       :     5.959168  s :     5.959168
      pz      :     2.995469  p :     9.943599
      px      :     2.995469
      py      :     3.952662
      dz2     :     0.015759  d :     0.086375
      dxz     :     0.014250
      dyz     :     0.018793
      dx2y2   :     0.018779
      dxy     :     0.018793
      f0      :     0.001201  f :     0.010858
      f+1     :     0.000755
      f-1     :     0.001809
      f+2     :     0.001559
      f-2     :     0.001542
      f+3     :     0.002005
      f-3     :     0.001987

SPIN
  0 S s       :     0.023092  s :     0.023092
      pz      :     0.967202  p :     1.934141
      px      :     0.967202
      py      :    -0.000262
      dz2     :     0.009719  d :     0.038084
      dxz     :     0.011715
      dyz     :     0.005462
      dx2y2   :     0.005726
      dxy     :     0.005462
      f0      :     0.000518  f :     0.004683
      f+1     :     0.000327
      f-1     :     0.000781
      f+2     :     0.000670
      f-2     :     0.000673
      f+3     :     0.000861
      f-3     :     0.000853


                      *****************************
                      * MAYER POPULATION ANALYSIS *
                      *****************************

  NA   - Mulliken gross atomic population
  ZA   - Total nuclear charge
  QA   - Mulliken gross atomic charge
  VA   - Mayer's total valence
  BVA  - Mayer's bonded valence
  FA   - Mayer's free valence

  ATOM       NA         ZA         QA         VA         BVA        FA
  0 S     16.0000    16.0000     0.0000     2.4534     0.0000     2.4534





------------------------------------------------------------------------------- 
                                     TIMINGS                                   
------------------------------------------------------------------------------- 


Total execution time                   ...        4.218 sec

Fock Matrix Formation                  ...        0.227 sec (  5.4%)
Initial Guess                          ...        0.001 sec (  0.0%)
DIIS Solver                            ...        0.014 sec (  0.3%)
State Vector Update                    ...        0.001 sec (  0.0%)
Sigma-vector construction              ...        0.946 sec ( 22.4%)
  <D|H|D>(2-ext)                       ...        0.002 sec (  0.2% of sigma)
  <D|H|D>(4-ext)                       ...        0.263 sec ( 27.8% of sigma)
  <S|H|0>                              ...        0.003 sec (  0.3% of sigma)
  <D|H|S>(1-ext)                       ...        0.002 sec (  0.2% of sigma)
  Fock-dressing                        ...        0.593 sec ( 62.8% of sigma)
  (ij|ab),(ia|jb)-dressing             ...        0.054 sec (  5.7% of sigma)
Total Time for computing (T)           ...        0.022 sec (  0.5% of ALL)
  I/O of integral and amplitudes       ...        0.006 sec ( 27.5% of (T))
  External N**7 contributions          ...        0.004 sec ( 19.9% of (T))
  Internal N**7 contributions          ...        0.001 sec (  4.6% of (T))
  N**6 triples energy contributions    ...        0.008 sec ( 38.1% of (T))


-------------------------   --------------------
FINAL SINGLE POINT ENERGY      -397.656142151372
-------------------------   --------------------


                            ***************************************
                            *     ORCA property calculations      *
                            ***************************************

                                    ---------------------
                                    Active property flags
                                    ---------------------
   (+) Dipole Moment


------------------------------------------------------------------------------
                       ORCA ELECTRIC PROPERTIES CALCULATION
------------------------------------------------------------------------------

Dipole Moment Calculation                       ... on
Quadrupole Moment Calculation                   ... off
Polarizability Calculation                      ... off
GBWName                                         ... 16_S.gbw
Electron density file                           ... 16_S.scfp
The origin for moment calculation is the CENTER OF MASS  = ( 0.000000,  0.000000  0.000000)

-------------
DIPOLE MOMENT
-------------
                                X             Y             Z
Electronic contribution:      0.00000      -0.00000       0.00000
Nuclear contribution   :      0.00000       0.00000       0.00000
                        -----------------------------------------
Total Dipole Moment    :      0.00000      -0.00000       0.00000
                        -----------------------------------------
Magnitude (a.u.)       :      0.00000
Magnitude (Debye)      :      0.00000



--------------------
Rotational spectrum 
--------------------
 
Rotational constants in cm-1:     0.000000     0.000000     0.000000 
Rotational constants in MHz :     0.000000     0.000000     0.000000 

 Dipole components along the rotational axes: 
x,y,z [a.u.] :     0.000000    -0.000000     0.000000 
x,y,z [Debye]:     0.000000    -0.000000     0.000000 

 

                           *** MDCI DENSITY ***

------------------------------------------------------------------------------
                       ORCA ELECTRIC PROPERTIES CALCULATION
------------------------------------------------------------------------------

Dipole Moment Calculation                       ... on
Quadrupole Moment Calculation                   ... off
Polarizability Calculation                      ... off
GBWName                                         ... 16_S.gbw
Electron density file                           ... 16_S.mdcip
The origin for moment calculation is the CENTER OF MASS  = ( 0.000000,  0.000000  0.000000)

-------------
DIPOLE MOMENT
-------------
                                X             Y             Z
Electronic contribution:      0.00000      -0.00000       0.00000
Nuclear contribution   :      0.00000       0.00000       0.00000
                        -----------------------------------------
Total Dipole Moment    :      0.00000      -0.00000       0.00000
                        -----------------------------------------
Magnitude (a.u.)       :      0.00000
Magnitude (Debye)      :      0.00000



--------------------
Rotational spectrum 
--------------------
 
Rotational constants in cm-1:     0.000000     0.000000     0.000000 
Rotational constants in MHz :     0.000000     0.000000     0.000000 

 Dipole components along the rotational axes: 
x,y,z [a.u.] :     0.000000    -0.000000     0.000000 
x,y,z [Debye]:     0.000000    -0.000000     0.000000 

 

Timings for individual modules:

Sum of individual times         ...        9.240 sec (=   0.154 min)
GTO integral calculation        ...        0.996 sec (=   0.017 min)  10.8 %
SCF iterations                  ...        3.529 sec (=   0.059 min)  38.2 %
MDCI module                     ...        4.715 sec (=   0.079 min)  51.0 %
                             ****ORCA TERMINATED NORMALLY****
TOTAL RUN TIME: 0 days 0 hours 0 minutes 9 seconds 985 msec
