
                                 *****************
                                 * O   R   C   A *
                                 *****************

           --- An Ab Initio, DFT and Semiempirical electronic structure package ---

                  #######################################################
                  #                        -***-                        #
                  #          Department of theory and spectroscopy      #
                  #               Directorship: Frank Neese             #
                  #        Max Planck Institute fuer Kohlenforschung    #
                  #                Kaiser Wilhelm Platz 1               #
                  #                 D-45470 Muelheim/Ruhr               #
                  #                      Germany                        #
                  #                                                     #
                  #                  All rights reserved                #
                  #                        -***-                        #
                  #######################################################


                         Program Version 4.2.0 -  RELEASE  -


 With contributions from (in alphabetic order):
   Daniel Aravena         : Magnetic Suceptibility
   Michael Atanasov       : Ab Initio Ligand Field Theory (pilot matlab implementation)
   Alexander A. Auer      : GIAO ZORA, VPT2
   Ute Becker             : Parallelization
   Giovanni Bistoni       : ED, misc. LED, open-shell LED, HFLED
   Martin Brehm           : Molecular dynamics
   Dmytro Bykov           : SCF Hessian
   Vijay G. Chilkuri      : MRCI spin determinant printing, contributions to CSF-ICE
   Dipayan Datta          : RHF DLPNO-CCSD density
   Achintya Kumar Dutta   : EOM-CC, STEOM-CC
   Dmitry Ganyushin       : Spin-Orbit,Spin-Spin,Magnetic field MRCI
   Miquel Garcia          : C-PCM Hessian, Gaussian charge scheme
   Yang Guo               : DLPNO-NEVPT2, CIM, IAO-localization
   Andreas Hansen         : Spin unrestricted coupled pair/coupled cluster methods
   Benjamin Helmich-Paris : CASSCF linear response (MC-RPA)
   Lee Huntington         : MR-EOM, pCC
   Robert Izsak           : Overlap fitted RIJCOSX, COSX-SCS-MP3, EOM
   Christian Kollmar      : KDIIS, OOCD, Brueckner-CCSD(T), CCSD density
   Simone Kossmann        : Meta GGA functionals, TD-DFT gradient, OOMP2, MP2 Hessian
   Martin Krupicka        : AUTO-CI
   Lucas Lang             : DCDCAS
   Dagmar Lenk            : GEPOL surface, SMD
   Dimitrios Liakos       : Extrapolation schemes; Compound Job, initial MDCI parallelization
   Dimitrios Manganas     : Further ROCIS development; embedding schemes
   Dimitrios Pantazis     : SARC Basis sets
   Taras Petrenko         : DFT Hessian,TD-DFT gradient, ASA, ECA, R-Raman, ABS, FL, XAS/XES, NRVS
   Peter Pinski           : DLPNO-MP2, DLPNO-MP2 Gradient
   Christoph Reimann      : Effective Core Potentials
   Marius Retegan         : Local ZFS, SOC
   Christoph Riplinger    : Optimizer, TS searches, QM/MM, DLPNO-CCSD(T), (RO)-DLPNO pert. Triples
   Tobias Risthaus        : Range-separated hybrids, TD-DFT gradient, RPA, STAB
   Michael Roemelt        : Original ROCIS implementation
   Masaaki Saitow         : Open-shell DLPNO-CCSD energy and density
   Barbara Sandhoefer     : DKH picture change effects
   Avijit Sen             : IP-ROCIS
   Kantharuban Sivalingam : CASSCF convergence, NEVPT2, FIC-MRCI
   Bernardo de Souza      : ESD, SOC TD-DFT
   Georgi Stoychev        : AutoAux, RI-MP2 NMR
   Willem Van den Heuvel  : Paramagnetic NMR
   Boris Wezisla          : Elementary symmetry handling
   Frank Wennmohs         : Technical directorship


 We gratefully acknowledge several colleagues who have allowed us to
 interface, adapt or use parts of their codes:
   Stefan Grimme, W. Hujo, H. Kruse,             : VdW corrections, initial TS optimization,
                  C. Bannwarth                     DFT functionals, gCP, sTDA/sTD-DF
   Ed Valeev, F. Pavosevic, A. Kumar             : LibInt (2-el integral package), F12 methods
   Garnet Chan, S. Sharma, J. Yang, R. Olivares  : DMRG
   Ulf Ekstrom                                   : XCFun DFT Library
   Mihaly Kallay                                 : mrcc  (arbitrary order and MRCC methods)
   Andreas Klamt, Michael Diedenhofen            : otool_cosmo (COSMO solvation model)
   Jiri Pittner, Ondrej Demel                    : Mk-CCSD
   Frank Weinhold                                : gennbo (NPA and NBO analysis)
   Christopher J. Cramer and Donald G. Truhlar   : smd solvation model
   Lars Goerigk                                  : TD-DFT with DH, B97 family of functionals
   V. Asgeirsson, H. Jonsson                     : NEB implementation
   FAccTs GmbH                                   : IRC, NEB, NEB-TS, Multilevel, MM, QM/MM, CI optimization
   S Lehtola, MJT Oliveira, MAL Marques          : LibXC Library


 Your calculation uses the libint2 library for the computation of 2-el integrals
 For citations please refer to: http://libint.valeyev.net

 Your ORCA version has been built with support for libXC version: 4.2.3
 For citations please refer to: https://tddft.org/programs/libxc/

 This ORCA versions uses:
   CBLAS   interface :  Fast vector & matrix operations
   LAPACKE interface :  Fast linear algebra routines
   SCALAPACK package :  Parallel linear algebra routines


----- Orbital basis set information -----
Your calculation utilizes the basis: aug-cc-pVTZ 
    H, B-Ne : Obtained from the ccRepo (grant-hill.group.shef.ac.uk/ccrepo) Feb. 2017
              R. A. Kendall, T. H. Dunning, Jr., R. J. Harrison, J. Chem. Phys. 96, 6796 (1992)
         He : Obtained from the ccRepo (grant-hill.group.shef.ac.uk/ccrepo) Feb. 2017
              D. E. Woon, T. H. Dunning, Jr., J. Chem. Phys. 100, 2975 (1994)
  Li-Be, Na : Obtained from the ccRepo (grant-hill.group.shef.ac.uk/ccrepo) Feb. 2017
              B. P. Prascher, D. E. Woon, K. A. Peterson, T. H. Dunning, Jr., A. K. Wilson, Theor. Chem. Acc. 128, 69 (2011)
         Mg : Obtained from the Peterson Research Group Website (tyr0.chem.wsu.edu/~kipeters) Feb. 2017
              B. P. Prascher, D. E. Woon, K. A. Peterson, T. H. Dunning, Jr., A. K. Wilson, Theor. Chem. Acc. 128, 69 (2011)
      Al-Ar : Obtained from the ccRepo (grant-hill.group.shef.ac.uk/ccrepo) Feb. 2017
              D. E. Woon, T. H. Dunning, Jr., J. Chem. Phys. 98, 1358 (1993)
      Sc-Zn : Obtained from the ccRepo (grant-hill.group.shef.ac.uk/ccrepo) Feb. 2017
              N. B. Balabanov, K. A. Peterson, J. Chem. Phys. 123, 064107 (2005)
              N. B. Balabanov, K. A. Peterson, J. Chem. Phys. 125, 074110 (2006)
      Ga-Kr : Obtained from the ccRepo (grant-hill.group.shef.ac.uk/ccrepo) Feb. 2017
              A. K. Wilson, D. E. Woon, K. A. Peterson, T. H. Dunning, Jr., J. Chem. Phys. 110, 7667 (1999)
     Ag, Au : Obtained from the Peterson Research Group Website (tyr0.chem.wsu.edu/~kipeters) Feb. 2017
              K. A. Peterson, C. Puzzarini, Theor. Chem. Acc. 114, 283 (2005)

================================================================================
                                        WARNINGS
                       Please study these warnings very carefully!
================================================================================


WARNING: your system is open-shell and RHF/RKS was chosen
  ===> : WILL SWITCH to UHF/UKS


WARNING: MDCI localization with Augmented Hessian Foster-Boys
  ===> : Switching off randomization!

WARNING: Post HF methods need fully converged wavefunctions
  ===> : Setting SCFConvForced true
         You can overwrite this default with %scf ConvForced false 


INFO   : the flag for use of LIBINT has been found!

================================================================================
                                       INPUT FILE
================================================================================
NAME = 27_Co.in
|  1> #
|  2> # 27_Co CCSD(T)/aug-cc-pVTZ
|  3> #
|  4> ! CCSD(T) aug-cc-pVTZ tightscf
|  5> 
|  6> *xyz 0 4
|  7>  Co 0.0 0.0 0.0
|  8> *
|  9> 
| 10> %maxcore 5000 
| 11> 
| 12> %pal
| 13> nprocs 24
| 14> end
| 15> 
| 16> 
| 17>                          ****END OF INPUT****
================================================================================

                       ****************************
                       * Single Point Calculation *
                       ****************************

---------------------------------
CARTESIAN COORDINATES (ANGSTROEM)
---------------------------------
  Co     0.000000    0.000000    0.000000

----------------------------
CARTESIAN COORDINATES (A.U.)
----------------------------
  NO LB      ZA    FRAG     MASS         X           Y           Z
   0 Co   27.0000    0    58.930    0.000000    0.000000    0.000000

--------------------------------
INTERNAL COORDINATES (ANGSTROEM)
--------------------------------
 Co     0   0   0     0.000000000000     0.00000000     0.00000000

---------------------------
INTERNAL COORDINATES (A.U.)
---------------------------
 Co     0   0   0     0.000000000000     0.00000000     0.00000000

---------------------
BASIS SET INFORMATION
---------------------
There are 1 groups of distinct atoms

 Group   1 Type Co  : 116s77p23d3f2g contracted to 8s7p5d3f2g pattern {19191919191911/151515151511/77711/111/11}

Atom   0Co   basis set group =>   1


           ************************************************************
           *        Program running with 24 parallel MPI-processes    *
           *              working on a common directory               *
           ************************************************************
------------------------------------------------------------------------------
                           ORCA GTO INTEGRAL CALCULATION
------------------------------------------------------------------------------

                         BASIS SET STATISTICS AND STARTUP INFO

 # of primitive gaussian shells          ...  221
 # of primitive gaussian functions       ...  501
 # of contracted shells                  ...   25
 # of contracted basis functions         ...   93
 Highest angular momentum                ...    4
 Maximum contraction depth               ...   19
 Integral package used                   ... LIBINT
 Integral threshhold            Thresh   ...  2.500e-11
 Primitive cut-off              TCut     ...  2.500e-12


------------------------------ INTEGRAL EVALUATION ----------------------------


 * One electron integrals 
 Pre-screening matrix                    ... done
 Shell pair data                         ... done (   0.001 sec)



           ************************************************************
           *        Program running with 24 parallel MPI-processes    *
           *              working on a common directory               *
           ************************************************************
-------------------------------------------------------------------------------
                                 ORCA SCF
-------------------------------------------------------------------------------

------------
SCF SETTINGS
------------
Hamiltonian:
 Ab initio Hamiltonian  Method          .... Hartree-Fock(GTOs)


General Settings:
 Integral files         IntName         .... 27_Co
 Hartree-Fock type      HFTyp           .... UHF
 Total Charge           Charge          ....    0
 Multiplicity           Mult            ....    4
 Number of Electrons    NEL             ....   27
 Basis Dimension        Dim             ....   93
 Nuclear Repulsion      ENuc            ....      0.0000000000 Eh

Convergence Acceleration:
 DIIS                   CNVDIIS         .... on
   Start iteration      DIISMaxIt       ....    12
   Startup error        DIISStart       ....  0.200000
   # of expansion vecs  DIISMaxEq       ....     5
   Bias factor          DIISBfac        ....   1.050
   Max. coefficient     DIISMaxC        ....  10.000
 Newton-Raphson         CNVNR           .... off
 SOSCF                  CNVSOSCF        .... off
 Level Shifting         CNVShift        .... on
   Level shift para.    LevelShift      ....    0.2500
   Turn off err/grad.   ShiftErr        ....    0.0010
 Zerner damping         CNVZerner       .... off
 Static damping         CNVDamp         .... on
   Fraction old density DampFac         ....    0.7000
   Max. Damping (<1)    DampMax         ....    0.9800
   Min. Damping (>=0)   DampMin         ....    0.0000
   Turn off err/grad.   DampErr         ....    0.1000
 Fernandez-Rico         CNVRico         .... off

SCF Procedure:
 Maximum # iterations   MaxIter         ....   125
 SCF integral mode      SCFMode         .... Direct
   Integral package                     .... LIBINT
 Reset frequency        DirectResetFreq ....    20
 Integral Threshold     Thresh          ....  2.500e-11 Eh
 Primitive CutOff       TCut            ....  2.500e-12 Eh

Convergence Tolerance:
 Convergence Check Mode ConvCheckMode   .... Total+1el-Energy
 Convergence forced     ConvForced      .... 1
 Energy Change          TolE            ....  1.000e-08 Eh
 1-El. energy change                    ....  1.000e-05 Eh
 DIIS Error             TolErr          ....  5.000e-07


Diagonalization of the overlap matrix:
Smallest eigenvalue                        ... 3.427e-04
Time for diagonalization                   ...    0.002 sec
Threshold for overlap eigenvalues          ... 1.000e-08
Number of eigenvalues below threshold      ... 0
Time for construction of square roots      ...    0.011 sec
Total time needed                          ...    0.013 sec

-------------------
DFT GRID GENERATION
-------------------

General Integration Accuracy     IntAcc      ...  4.340
Radial Grid Type                 RadialGrid  ... Gauss-Chebyshev
Angular Grid (max. acc.)         AngularGrid ... Lebedev-110
Angular grid pruning method      GridPruning ... 3 (G Style)
Weight generation scheme         WeightScheme... Becke
Basis function cutoff            BFCut       ...    1.0000e-11
Integration weight cutoff        WCut        ...    1.0000e-14
Grids for H and He will be reduced by one unit

# of grid points (after initial pruning)     ...   2912 (   0.0 sec)
# of grid points (after weights+screening)   ...   2912 (   0.0 sec)
Grid point division into batches done        ...    0.0 sec
Reduced shell lists constructed in    0.0 sec

Total number of grid points                  ...     2912
Total number of batches                      ...       46
Average number of points per batch           ...       63
Average number of grid points per atom       ...     2912
Average number of shells per batch           ...    14.00 (56.00%)
Average number of basis functions per batch  ...    40.67 (43.73%)
Average number of large shells per batch     ...     9.33 (66.67%)
Average number of large basis fcns per batch ...    22.67 (55.74%)
Maximum spatial batch extension              ...  18.98, 28.73, 28.73 au
Average spatial batch extension              ...   0.83,  1.25,  1.25 au

Time for grid setup =    0.064 sec

------------------------------
INITIAL GUESS: MODEL POTENTIAL
------------------------------
Loading Hartree-Fock densities                     ... done
Calculating cut-offs                               ... done
Setting up the integral package                    ... done
Initializing the effective Hamiltonian             ... done
Starting the Coulomb interaction                   ... done (   0.0 sec)
Reading the grid                                   ... done
Mapping shells                                     ... done
Starting the XC term evaluation                    ... done (   0.0 sec)
Transforming the Hamiltonian                       ... done (   0.0 sec)
Diagonalizing the Hamiltonian                      ... done (   0.0 sec)
Back transforming the eigenvectors                 ... done (   0.0 sec)
Now organizing SCF variables                       ... done
                      ------------------
                      INITIAL GUESS DONE (   0.2 sec)
                      ------------------
--------------
SCF ITERATIONS
--------------
ITER       Energy         Delta-E        Max-DP      RMS-DP      [F,P]     Damp
               ***  Starting incremental Fock matrix formation  ***
  0  -1381.3082761828   0.000000000000 0.07412887  0.00196183  0.2996777 0.7000
  1  -1381.3274828060  -0.019206623170 0.04023997  0.00113448  0.1540328 0.7000
                               ***Turning on DIIS***
  2  -1381.3378213071  -0.010338501115 0.02165778  0.00066624  0.1030073 0.7000
  3  -1381.6477958921  -0.309974584963 0.05348815  0.00137914  0.0740454 0.0000
  4  -1381.4324373372   0.215358554818 0.01770915  0.00040634  0.0184678 0.0000
  5  -1381.2981320962   0.134305241017 0.02495382  0.00024150  0.0076789 0.0000
  6  -1381.3943723148  -0.096240218566 0.03025635  0.00027717  0.0052044 0.0000
  7  -1381.3729600355   0.021412279314 0.02305702  0.00019459  0.0026661 0.0000
  8  -1381.3675445137   0.005415521796 0.01433423  0.00011747  0.0014166 0.0000
  9  -1381.3695127812  -0.001968267510 0.01314401  0.00011068  0.0008333 0.0000
 10  -1381.3661587523   0.003354028839 0.00144081  0.00001891  0.0001466 0.0000
 11  -1381.3652127026   0.000946049709 0.00033618  0.00000332  0.0000577 0.0000
 12  -1381.3650179376   0.000194765018 0.00008087  0.00000113  0.0000407 0.0000
 13  -1381.3652573114  -0.000239373794 0.00005145  0.00000075  0.0000060 0.0000
 14  -1381.3652406780   0.000016633413 0.00001738  0.00000026  0.0000010 0.0000
                            ***DIIS convergence achieved***

               *****************************************************
               *                     SUCCESS                       *
               *           SCF CONVERGED AFTER  15 CYCLES          *
               *****************************************************


----------------
TOTAL SCF ENERGY
----------------

Total Energy       :        -1381.36524382 Eh          -37588.85927 eV

Components:
Nuclear Repulsion  :            0.00000000 Eh               0.00000 eV
Electronic Energy  :        -1381.36524382 Eh          -37588.85927 eV
One Electron Energy:        -1919.29582575 Eh          -52226.69457 eV
Two Electron Energy:          537.93058193 Eh           14637.83531 eV

Virial components:
Potential Energy   :        -2762.67835873 Eh          -75176.30003 eV
Kinetic Energy     :         1381.31311491 Eh           37587.44077 eV
Virial Ratio       :            2.00003774


---------------
SCF CONVERGENCE
---------------

  Last Energy change         ...   -3.1460e-06  Tolerance :   1.0000e-08
  Last MAX-Density change    ...    4.3695e-06  Tolerance :   1.0000e-07
  Last RMS-Density change    ...    8.4279e-08  Tolerance :   5.0000e-09
  Last DIIS Error            ...    4.0226e-07  Tolerance :   5.0000e-07

             **** THE GBW FILE WAS UPDATED (27_Co.gbw) ****
             **** DENSITY FILE WAS UPDATED (27_Co.scfp) ****
             **** ENERGY FILE WAS UPDATED (27_Co.en.tmp) ****
----------------------
UHF SPIN CONTAMINATION
----------------------

Expectation value of <S**2>     :     3.752452
Ideal value S*(S+1) for S=1.5   :     3.750000
Deviation                       :     0.002452

             **** THE GBW FILE WAS UPDATED (27_Co.gbw) ****
             **** DENSITY FILE WAS UPDATED (27_Co.scfp) ****
----------------
ORBITAL ENERGIES
----------------
                 SPIN UP ORBITALS
  NO   OCC          E(Eh)            E(eV) 
   0   1.0000    -282.856904     -7696.9277 
   1   1.0000     -34.666571      -943.3254 
   2   1.0000     -29.921200      -814.1972 
   3   1.0000     -29.921200      -814.1972 
   4   1.0000     -29.921200      -814.1972 
   5   1.0000      -4.393508      -119.5534 
   6   1.0000      -2.907820       -79.1258 
   7   1.0000      -2.907820       -79.1258 
   8   1.0000      -2.907820       -79.1258 
   9   1.0000      -0.498881       -13.5752 
  10   1.0000      -0.498881       -13.5752 
  11   1.0000      -0.446635       -12.1536 
  12   1.0000      -0.446635       -12.1536 
  13   1.0000      -0.446635       -12.1536 
  14   1.0000      -0.232393        -6.3237 
  15   0.0000       0.022602         0.6150 
  16   0.0000       0.022602         0.6150 
  17   0.0000       0.022602         0.6150 
  18   0.0000       0.033525         0.9123 
  19   0.0000       0.083906         2.2832 
  20   0.0000       0.083906         2.2832 
  21   0.0000       0.083906         2.2832 
  22   0.0000       0.113175         3.0796 
  23   0.0000       0.113175         3.0796 
  24   0.0000       0.113677         3.0933 
  25   0.0000       0.113677         3.0933 
  26   0.0000       0.113677         3.0933 
  27   0.0000       0.186918         5.0863 
  28   0.0000       0.306518         8.3408 
  29   0.0000       0.306518         8.3408 
  30   0.0000       0.306518         8.3408 
  31   0.0000       0.418591        11.3904 
  32   0.0000       0.418591        11.3904 
  33   0.0000       0.423823        11.5328 
  34   0.0000       0.423823        11.5328 
  35   0.0000       0.423823        11.5328 
  36   0.0000       0.716982        19.5101 
  37   0.0000       1.046755        28.4836 
  38   0.0000       1.046755        28.4836 
  39   0.0000       1.046755        28.4836 
  40   0.0000       1.201376        32.6911 
  41   0.0000       1.201376        32.6911 
  42   0.0000       1.201376        32.6911 
  43   0.0000       1.204822        32.7849 
  44   0.0000       1.204822        32.7849 
  45   0.0000       1.204822        32.7849 
  46   0.0000       1.209281        32.9062 
  47   0.0000       1.540426        41.9171 
  48   0.0000       1.540426        41.9171 
  49   0.0000       1.561905        42.5016 
  50   0.0000       1.561905        42.5016 
  51   0.0000       1.561905        42.5016 
  52   0.0000       3.522430        95.8502 
  53   0.0000       3.522430        95.8502 
  54   0.0000       3.522430        95.8502 
  55   0.0000       3.537641        96.2641 
  56   0.0000       3.537641        96.2641 
  57   0.0000       3.537641        96.2641 
  58   0.0000       3.556647        96.7813 
  59   0.0000       3.656808        99.5068 
  60   0.0000       3.873525       105.4040 
  61   0.0000       3.873525       105.4040 
  62   0.0000       3.873525       105.4040 
  63   0.0000       4.399241       119.7094 
  64   0.0000       4.404515       119.8529 
  65   0.0000       4.404515       119.8529 
  66   0.0000       4.404515       119.8529 
  67   0.0000       4.408438       119.9597 
  68   0.0000       4.408438       119.9597 
  69   0.0000       4.420425       120.2859 
  70   0.0000       4.420425       120.2859 
  71   0.0000       4.420425       120.2859 
  72   0.0000       5.787503       157.4860 
  73   0.0000       5.787503       157.4860 
  74   0.0000       5.823360       158.4617 
  75   0.0000       5.823360       158.4617 
  76   0.0000       5.823360       158.4617 
  77   0.0000      11.199279       304.7479 
  78   0.0000      11.199279       304.7479 
  79   0.0000      11.199279       304.7479 
  80   0.0000      11.225961       305.4739 
  81   0.0000      11.225961       305.4739 
  82   0.0000      11.225961       305.4739 
  83   0.0000      11.259656       306.3908 
  84   0.0000      12.212177       332.3102 
  85   0.0000      12.223863       332.6282 
  86   0.0000      12.223863       332.6282 
  87   0.0000      12.223863       332.6282 
  88   0.0000      12.232359       332.8594 
  89   0.0000      12.232359       332.8594 
  90   0.0000      12.257902       333.5545 
  91   0.0000      12.257902       333.5545 
  92   0.0000      12.257902       333.5545 

                 SPIN DOWN ORBITALS
  NO   OCC          E(Eh)            E(eV) 
   0   1.0000    -282.853934     -7696.8468 
   1   1.0000     -34.601505      -941.5548 
   2   1.0000     -29.859463      -812.5173 
   3   1.0000     -29.859463      -812.5173 
   4   1.0000     -29.859463      -812.5173 
   5   1.0000      -4.210465      -114.5726 
   6   1.0000      -2.692935       -73.2785 
   7   1.0000      -2.692935       -73.2785 
   8   1.0000      -2.692935       -73.2785 
   9   1.0000      -0.379155       -10.3173 
  10   1.0000      -0.379155       -10.3173 
  11   1.0000      -0.379155       -10.3173 
  12   0.0000       0.007147         0.1945 
  13   0.0000       0.032032         0.8716 
  14   0.0000       0.032032         0.8716 
  15   0.0000       0.032032         0.8716 
  16   0.0000       0.058875         1.6021 
  17   0.0000       0.116054         3.1580 
  18   0.0000       0.116054         3.1580 
  19   0.0000       0.116200         3.1620 
  20   0.0000       0.116200         3.1620 
  21   0.0000       0.116200         3.1620 
  22   0.0000       0.118636         3.2282 
  23   0.0000       0.118636         3.2282 
  24   0.0000       0.118636         3.2282 
  25   0.0000       0.223975         6.0947 
  26   0.0000       0.334271         9.0960 
  27   0.0000       0.334271         9.0960 
  28   0.0000       0.344673         9.3790 
  29   0.0000       0.344673         9.3790 
  30   0.0000       0.344673         9.3790 
  31   0.0000       0.446890        12.1605 
  32   0.0000       0.446890        12.1605 
  33   0.0000       0.446890        12.1605 
  34   0.0000       0.579294        15.7634 
  35   0.0000       0.579294        15.7634 
  36   0.0000       0.760573        20.6962 
  37   0.0000       1.086643        29.5691 
  38   0.0000       1.086643        29.5691 
  39   0.0000       1.086643        29.5691 
  40   0.0000       1.225909        33.3587 
  41   0.0000       1.233615        33.5684 
  42   0.0000       1.233615        33.5684 
  43   0.0000       1.233615        33.5684 
  44   0.0000       1.240013        33.7425 
  45   0.0000       1.240013        33.7425 
  46   0.0000       1.240013        33.7425 
  47   0.0000       1.596059        43.4310 
  48   0.0000       1.596059        43.4310 
  49   0.0000       1.596059        43.4310 
  50   0.0000       1.707927        46.4750 
  51   0.0000       1.707927        46.4750 
  52   0.0000       3.566254        97.0427 
  53   0.0000       3.601728        98.0080 
  54   0.0000       3.601728        98.0080 
  55   0.0000       3.601728        98.0080 
  56   0.0000       3.629620        98.7670 
  57   0.0000       3.629620        98.7670 
  58   0.0000       3.629620        98.7670 
  59   0.0000       3.718716       101.1914 
  60   0.0000       3.931182       106.9729 
  61   0.0000       3.931182       106.9729 
  62   0.0000       3.931182       106.9729 
  63   0.0000       4.439315       120.7999 
  64   0.0000       4.439315       120.7999 
  65   0.0000       4.439315       120.7999 
  66   0.0000       4.442656       120.8908 
  67   0.0000       4.442656       120.8908 
  68   0.0000       4.443536       120.9148 
  69   0.0000       4.443536       120.9148 
  70   0.0000       4.443536       120.9148 
  71   0.0000       4.445112       120.9576 
  72   0.0000       5.859661       159.4495 
  73   0.0000       5.859661       159.4495 
  74   0.0000       5.859661       159.4495 
  75   0.0000       5.962131       162.2378 
  76   0.0000       5.962131       162.2378 
  77   0.0000      11.280694       306.9633 
  78   0.0000      11.330327       308.3139 
  79   0.0000      11.330327       308.3139 
  80   0.0000      11.330327       308.3139 
  81   0.0000      11.370222       309.3995 
  82   0.0000      11.370222       309.3995 
  83   0.0000      11.370222       309.3995 
  84   0.0000      12.291701       334.4742 
  85   0.0000      12.291701       334.4742 
  86   0.0000      12.291701       334.4742 
  87   0.0000      12.299679       334.6913 
  88   0.0000      12.299679       334.6913 
  89   0.0000      12.302017       334.7549 
  90   0.0000      12.302017       334.7549 
  91   0.0000      12.302017       334.7549 
  92   0.0000      12.305646       334.8537 

                    ********************************
                    * MULLIKEN POPULATION ANALYSIS *
                    ********************************

--------------------------------------------
MULLIKEN ATOMIC CHARGES AND SPIN POPULATIONS
--------------------------------------------
   0 Co:    0.000000    3.000000
Sum of atomic charges         :    0.0000000
Sum of atomic spin populations:    3.0000000

-----------------------------------------------------
MULLIKEN REDUCED ORBITAL CHARGES AND SPIN POPULATIONS
-----------------------------------------------------
CHARGE
  0 Cos       :     6.999961  s :     6.999961
      pz      :     3.999666  p :    11.998999
      px      :     3.999666
      py      :     3.999666
      dz2     :     0.999991  d :     7.999957
      dxz     :     1.999992
      dyz     :     1.999992
      dx2y2   :     0.999991
      dxy     :     1.999992
      f0      :     0.000334  f :     0.001001
      f+1     :     0.000125
      f-1     :     0.000125
      f+2     :     0.000000
      f-2     :     0.000000
      f+3     :     0.000209
      f-3     :     0.000209
      g0      :     0.000027  g :     0.000083
      g+1     :     0.000001
      g-1     :     0.000001
      g+2     :     0.000009
      g-2     :     0.000008
      g+3     :     0.000007
      g-3     :     0.000007
      g+4     :     0.000022
      g-4     :     0.000000

SPIN
  0 Cos       :     1.000018  s :     1.000018
      pz      :     0.000303  p :     0.000908
      px      :     0.000303
      py      :     0.000303
      dz2     :     0.999991  d :     1.999992
      dxz     :     0.000003
      dyz     :     0.000003
      dx2y2   :     0.999991
      dxy     :     0.000003
      f0      :    -0.000303  f :    -0.000908
      f+1     :    -0.000114
      f-1     :    -0.000114
      f+2     :    -0.000000
      f-2     :    -0.000000
      f+3     :    -0.000189
      f-3     :    -0.000189
      g0      :    -0.000007  g :    -0.000010
      g+1     :    -0.000000
      g-1     :    -0.000000
      g+2     :     0.000009
      g-2     :    -0.000003
      g+3     :    -0.000003
      g-3     :    -0.000003
      g+4     :    -0.000002
      g-4     :    -0.000000


                     *******************************
                     * LOEWDIN POPULATION ANALYSIS *
                     *******************************

-------------------------------------------
LOEWDIN ATOMIC CHARGES AND SPIN POPULATIONS
-------------------------------------------
   0 Co:    0.000000    3.000000

----------------------------------------------------
LOEWDIN REDUCED ORBITAL CHARGES AND SPIN POPULATIONS
----------------------------------------------------
CHARGE
  0 Cos       :     6.999961  s :     6.999961
      pz      :     3.999666  p :    11.998999
      px      :     3.999666
      py      :     3.999666
      dz2     :     0.999991  d :     7.999957
      dxz     :     1.999992
      dyz     :     1.999992
      dx2y2   :     0.999991
      dxy     :     1.999992
      f0      :     0.000334  f :     0.001001
      f+1     :     0.000125
      f-1     :     0.000125
      f+2     :     0.000000
      f-2     :     0.000000
      f+3     :     0.000209
      f-3     :     0.000209
      g0      :     0.000027  g :     0.000083
      g+1     :     0.000001
      g-1     :     0.000001
      g+2     :     0.000009
      g-2     :     0.000008
      g+3     :     0.000007
      g-3     :     0.000007
      g+4     :     0.000022
      g-4     :     0.000000

SPIN
  0 Cos       :     1.000018  s :     1.000018
      pz      :     0.000303  p :     0.000908
      px      :     0.000303
      py      :     0.000303
      dz2     :     0.999991  d :     1.999992
      dxz     :     0.000003
      dyz     :     0.000003
      dx2y2   :     0.999991
      dxy     :     0.000003
      f0      :    -0.000303  f :    -0.000908
      f+1     :    -0.000114
      f-1     :    -0.000114
      f+2     :    -0.000000
      f-2     :    -0.000000
      f+3     :    -0.000189
      f-3     :    -0.000189
      g0      :    -0.000007  g :    -0.000010
      g+1     :    -0.000000
      g-1     :    -0.000000
      g+2     :     0.000009
      g-2     :    -0.000003
      g+3     :    -0.000003
      g-3     :    -0.000003
      g+4     :    -0.000002
      g-4     :    -0.000000


                      *****************************
                      * MAYER POPULATION ANALYSIS *
                      *****************************

  NA   - Mulliken gross atomic population
  ZA   - Total nuclear charge
  QA   - Mulliken gross atomic charge
  VA   - Mayer's total valence
  BVA  - Mayer's bonded valence
  FA   - Mayer's free valence

  ATOM       NA         ZA         QA         VA         BVA        FA
  0 Co    27.0000    27.0000     0.0000     3.0049     0.0000     3.0049

  Mayer bond orders larger than 0.100000


-------
TIMINGS
-------

Total SCF time: 0 days 0 hours 1 min 19 sec 

Total time                  ....      79.570 sec
Sum of individual times     ....      78.827 sec  ( 99.1%)

Fock matrix formation       ....      78.136 sec  ( 98.2%)
Diagonalization             ....       0.091 sec  (  0.1%)
Density matrix formation    ....       0.008 sec  (  0.0%)
Population analysis         ....       0.053 sec  (  0.1%)
Initial guess               ....       0.160 sec  (  0.2%)
Orbital Transformation      ....       0.000 sec  (  0.0%)
Orbital Orthonormalization  ....       0.000 sec  (  0.0%)
DIIS solution               ....       0.314 sec  (  0.4%)


           ************************************************************
           *        Program running with 24 parallel MPI-processes    *
           *              working on a common directory               *
           ************************************************************


------------------------------------------------------------------------------- 
                              ORCA-MATRIX DRIVEN CI                            
------------------------------------------------------------------------------- 

--------------------------------
AUTOMATIC CHOICE OF INCORE LEVEL
--------------------------------

Memory available                           ...   2500.00 MB
Memory needed for S+T                      ...      7.66 MB
Memory needed for J+K                      ...     15.38 MB
Memory needed for DIIS                     ...    107.22 MB
Memory needed for 3-ext                    ...     36.21 MB
Memory needed for 4-ext                    ...    143.01 MB
Memory needed for triples                  ...     18.10 MB
 -> Final InCoreLevel    ... 5
 -> check shows that triples correction can be computed


Wavefunction type
-----------------
Correlation treatment                      ...      CCSD     
Single excitations                         ... ON
Orbital optimization                       ... OFF
Calculation of Z vector                    ... OFF
Calculation of Brueckner orbitals          ... OFF
Perturbative triple excitations            ... ON
Calculation of F12 correction              ... OFF
Frozen core treatment                      ... chemical core (10 el)
Reference Wavefunction                     ... UHF
  Alpha-MOs occ    :     5 ...   14 ( 10 MO's/ 10 electrons)
  Beta-MOs occ     :     5 ...   11 (  7 MO's/  7 electrons)
  Alpha-MOs virt   :    15 ...   92 ( 78 MO's              )
  Beta-MOs virt    :    12 ...   92 ( 81 MO's              )
Number of AO's                             ...     93
Number of electrons                        ...     27
Number of correlated electrons             ...     17

Algorithmic settings
--------------------
Integral transformation                    ... AO direct full transformation
K(C) Formation                             ... FULL-MO TRAFO
Maximum number of iterations               ...        50
Convergence tolerance (max. residuum)      ... 1.000e-05
Level shift for amplitude update           ... 2.000e-01
Maximum number of DIIS vectors             ...         7
DIIS turned on at iteration                ...         0
Damping before turning on DIIS             ...     0.500
Damping after turning on DIIS              ...     0.000
Pair specific amplitude update             ... OFF
Natural orbital iterations                 ... OFF
Perturbative natural orbital generation    ... OFF
Printlevel                                 ... 2

Memory handling:
----------------
Maximum memory for working arrays          ...   2500 MB
Data storage in matrix containers          ... UNCOMPRESSED
Data type for integral storage             ... DOUBLE
In-Core Storage of quantities:
   Amplitudes+Sigma Vector      ... YES
   J+K operators                ... YES
   DIIS vectors                 ... YES
   3-external integrals         ... YES
   4-external integrals         ... YES


Initializing the integral package          ... done
Warning: reference  - re-canonicalizations have been set to INT 1 VIRT 1

--------------------------
UNRESTRICTED FOCK OPERATOR
--------------------------

<ss|ss>:          666 b            0 skpd (  0.0%)    0.114 s ( 0.171 ms/b)
<ss|sp>:         2016 b            0 skpd (  0.0%)    0.768 s ( 0.381 ms/b)
<ss|sd>:         1440 b            0 skpd (  0.0%)    0.365 s ( 0.253 ms/b)
<ss|sf>:          864 b            0 skpd (  0.0%)    0.035 s ( 0.041 ms/b)
<ss|sg>:          576 b            0 skpd (  0.0%)    0.038 s ( 0.065 ms/b)
<ss|pp>:         1008 b            0 skpd (  0.0%)    0.403 s ( 0.400 ms/b)
<ss|pd>:         1260 b            0 skpd (  0.0%)    0.229 s ( 0.182 ms/b)
<ss|pf>:          756 b            0 skpd (  0.0%)    0.031 s ( 0.041 ms/b)
<ss|pg>:          504 b            0 skpd (  0.0%)    0.043 s ( 0.085 ms/b)
<ss|dd>:          540 b            0 skpd (  0.0%)    0.105 s ( 0.194 ms/b)
<ss|df>:          540 b            0 skpd (  0.0%)    0.016 s ( 0.030 ms/b)
<ss|dg>:          360 b            0 skpd (  0.0%)    0.024 s ( 0.066 ms/b)
<ss|ff>:          216 b            0 skpd (  0.0%)    0.003 s ( 0.015 ms/b)
<ss|fg>:          216 b            0 skpd (  0.0%)    0.005 s ( 0.023 ms/b)
<ss|gg>:          108 b            0 skpd (  0.0%)    0.007 s ( 0.065 ms/b)
<sp|sp>:         1596 b            1 skpd (  0.1%)    0.697 s ( 0.437 ms/b)
<sp|sd>:         2240 b            7 skpd (  0.3%)    0.536 s ( 0.240 ms/b)
<sp|sf>:         1344 b            2 skpd (  0.1%)    0.049 s ( 0.036 ms/b)
<sp|sg>:          896 b            0 skpd (  0.0%)    0.063 s ( 0.071 ms/b)
<sp|pp>:         1568 b            1 skpd (  0.1%)    0.539 s ( 0.344 ms/b)
<sp|pd>:         1960 b           15 skpd (  0.8%)    0.332 s ( 0.171 ms/b)
<sp|pf>:         1176 b            4 skpd (  0.3%)    0.056 s ( 0.048 ms/b)
<sp|pg>:          784 b            1 skpd (  0.1%)    0.077 s ( 0.098 ms/b)
<sp|dd>:          840 b            0 skpd (  0.0%)    0.203 s ( 0.242 ms/b)
<sp|df>:          840 b            4 skpd (  0.5%)    0.037 s ( 0.044 ms/b)
<sp|dg>:          560 b            0 skpd (  0.0%)    0.054 s ( 0.096 ms/b)
<sp|ff>:          336 b            0 skpd (  0.0%)    0.008 s ( 0.025 ms/b)
<sp|fg>:          336 b            0 skpd (  0.0%)    0.012 s ( 0.035 ms/b)
<sp|gg>:          168 b            0 skpd (  0.0%)    0.017 s ( 0.099 ms/b)
<sd|sd>:          820 b            3 skpd (  0.4%)    0.115 s ( 0.140 ms/b)
<sd|sf>:          960 b            7 skpd (  0.7%)    0.022 s ( 0.023 ms/b)
<sd|sg>:          640 b            2 skpd (  0.3%)    0.031 s ( 0.049 ms/b)
<sd|pp>:         1120 b            7 skpd (  0.6%)    0.228 s ( 0.205 ms/b)
<sd|pd>:         1400 b           13 skpd (  0.9%)    0.179 s ( 0.129 ms/b)
<sd|pf>:          840 b           16 skpd (  1.9%)    0.032 s ( 0.039 ms/b)
<sd|pg>:          560 b            4 skpd (  0.7%)    0.056 s ( 0.100 ms/b)
<sd|dd>:          600 b            1 skpd (  0.2%)    0.119 s ( 0.198 ms/b)
<sd|df>:          600 b            5 skpd (  0.8%)    0.029 s ( 0.049 ms/b)
<sd|dg>:          400 b            2 skpd (  0.5%)    0.048 s ( 0.121 ms/b)
<sd|ff>:          240 b            1 skpd (  0.4%)    0.008 s ( 0.031 ms/b)
<sd|fg>:          240 b            0 skpd (  0.0%)    0.011 s ( 0.046 ms/b)
<sd|gg>:          120 b            0 skpd (  0.0%)    0.016 s ( 0.135 ms/b)
<sf|sf>:          300 b            1 skpd (  0.3%)    0.005 s ( 0.018 ms/b)
<sf|sg>:          384 b            0 skpd (  0.0%)    0.008 s ( 0.022 ms/b)
<sf|pp>:          672 b            1 skpd (  0.1%)    0.055 s ( 0.081 ms/b)
<sf|pd>:          840 b            9 skpd (  1.1%)    0.044 s ( 0.053 ms/b)
<sf|pf>:          504 b            3 skpd (  0.6%)    0.010 s ( 0.020 ms/b)
<sf|pg>:          336 b            1 skpd (  0.3%)    0.017 s ( 0.052 ms/b)
<sf|dd>:          360 b            0 skpd (  0.0%)    0.034 s ( 0.095 ms/b)
<sf|df>:          360 b            2 skpd (  0.6%)    0.009 s ( 0.026 ms/b)
<sf|dg>:          240 b            0 skpd (  0.0%)    0.015 s ( 0.063 ms/b)
<sf|ff>:          144 b            0 skpd (  0.0%)    0.003 s ( 0.020 ms/b)
<sf|fg>:          144 b            0 skpd (  0.0%)    0.004 s ( 0.029 ms/b)
<sf|gg>:           72 b            0 skpd (  0.0%)    0.006 s ( 0.083 ms/b)
<sg|sg>:          136 b            0 skpd (  0.0%)    0.011 s ( 0.084 ms/b)
<sg|pp>:          448 b            0 skpd (  0.0%)    0.068 s ( 0.152 ms/b)
<sg|pd>:          560 b            1 skpd (  0.2%)    0.060 s ( 0.108 ms/b)
<sg|pf>:          336 b            2 skpd (  0.6%)    0.012 s ( 0.036 ms/b)
<sg|pg>:          224 b            1 skpd (  0.4%)    0.025 s ( 0.112 ms/b)
<sg|dd>:          240 b            0 skpd (  0.0%)    0.045 s ( 0.188 ms/b)
<sg|df>:          240 b            1 skpd (  0.4%)    0.013 s ( 0.055 ms/b)
<sg|dg>:          160 b            0 skpd (  0.0%)    0.022 s ( 0.135 ms/b)
<sg|ff>:           96 b            0 skpd (  0.0%)    0.004 s ( 0.037 ms/b)
<sg|fg>:           96 b            0 skpd (  0.0%)    0.006 s ( 0.058 ms/b)
<sg|gg>:           48 b            0 skpd (  0.0%)    0.008 s ( 0.174 ms/b)
<pp|pp>:          406 b            0 skpd (  0.0%)    0.323 s ( 0.795 ms/b)
<pp|pd>:          980 b            0 skpd (  0.0%)    0.267 s ( 0.273 ms/b)
<pp|pf>:          588 b            0 skpd (  0.0%)    0.048 s ( 0.082 ms/b)
<pp|pg>:          392 b            0 skpd (  0.0%)    0.076 s ( 0.195 ms/b)
<pp|dd>:          420 b            0 skpd (  0.0%)    0.172 s ( 0.411 ms/b)
<pp|df>:          420 b            0 skpd (  0.0%)    0.042 s ( 0.099 ms/b)
<pp|dg>:          280 b            0 skpd (  0.0%)    0.065 s ( 0.232 ms/b)
<pp|ff>:          168 b            0 skpd (  0.0%)    0.010 s ( 0.061 ms/b)
<pp|fg>:          168 b            0 skpd (  0.0%)    0.015 s ( 0.091 ms/b)
<pp|gg>:           84 b            0 skpd (  0.0%)    0.023 s ( 0.270 ms/b)
<pd|pd>:          630 b            0 skpd (  0.0%)    0.225 s ( 0.357 ms/b)
<pd|pf>:          735 b            0 skpd (  0.0%)    0.050 s ( 0.068 ms/b)
<pd|pg>:          490 b            0 skpd (  0.0%)    0.095 s ( 0.193 ms/b)
<pd|dd>:          525 b            0 skpd (  0.0%)    0.186 s ( 0.354 ms/b)
<pd|df>:          525 b            0 skpd (  0.0%)    0.050 s ( 0.095 ms/b)
<pd|dg>:          350 b            2 skpd (  0.6%)    0.080 s ( 0.230 ms/b)
<pd|ff>:          210 b            0 skpd (  0.0%)    0.014 s ( 0.065 ms/b)
<pd|fg>:          210 b            0 skpd (  0.0%)    0.020 s ( 0.096 ms/b)
<pd|gg>:          105 b            0 skpd (  0.0%)    0.030 s ( 0.285 ms/b)
<pf|pf>:          231 b            0 skpd (  0.0%)    0.013 s ( 0.057 ms/b)
<pf|pg>:          294 b            0 skpd (  0.0%)    0.026 s ( 0.088 ms/b)
<pf|dd>:          315 b            0 skpd (  0.0%)    0.047 s ( 0.148 ms/b)
<pf|df>:          315 b            0 skpd (  0.0%)    0.014 s ( 0.044 ms/b)
<pf|dg>:          210 b            0 skpd (  0.0%)    0.023 s ( 0.109 ms/b)
<pf|ff>:          126 b            0 skpd (  0.0%)    0.005 s ( 0.037 ms/b)
<pf|fg>:          126 b            0 skpd (  0.0%)    0.007 s ( 0.054 ms/b)
<pf|gg>:           63 b            0 skpd (  0.0%)    0.010 s ( 0.152 ms/b)
<pg|pg>:          105 b            0 skpd (  0.0%)    0.033 s ( 0.319 ms/b)
<pg|dd>:          210 b            0 skpd (  0.0%)    0.066 s ( 0.312 ms/b)
<pg|df>:          210 b            0 skpd (  0.0%)    0.019 s ( 0.088 ms/b)
<pg|dg>:          140 b            0 skpd (  0.0%)    0.029 s ( 0.210 ms/b)
<pg|ff>:           84 b            0 skpd (  0.0%)    0.005 s ( 0.062 ms/b)
<pg|fg>:           84 b            0 skpd (  0.0%)    0.008 s ( 0.096 ms/b)
<pg|gg>:           42 b            0 skpd (  0.0%)    0.012 s ( 0.291 ms/b)
<dd|dd>:          120 b            0 skpd (  0.0%)    0.070 s ( 0.583 ms/b)
<dd|df>:          225 b            0 skpd (  0.0%)    0.020 s ( 0.091 ms/b)
<dd|dg>:          150 b            0 skpd (  0.0%)    0.034 s ( 0.226 ms/b)
<dd|ff>:           90 b            0 skpd (  0.0%)    0.006 s ( 0.067 ms/b)
<dd|fg>:           90 b            0 skpd (  0.0%)    0.009 s ( 0.102 ms/b)
<dd|gg>:           45 b            0 skpd (  0.0%)    0.013 s ( 0.292 ms/b)
<df|df>:          120 b            0 skpd (  0.0%)    0.009 s ( 0.076 ms/b)
<df|dg>:          150 b            0 skpd (  0.0%)    0.014 s ( 0.095 ms/b)
<df|ff>:           90 b            0 skpd (  0.0%)    0.004 s ( 0.046 ms/b)
<df|fg>:           90 b            0 skpd (  0.0%)    0.005 s ( 0.058 ms/b)
<df|gg>:           45 b            0 skpd (  0.0%)    0.007 s ( 0.162 ms/b)
<dg|dg>:           55 b            0 skpd (  0.0%)    0.016 s ( 0.296 ms/b)
<dg|ff>:           60 b            0 skpd (  0.0%)    0.004 s ( 0.059 ms/b)
<dg|fg>:           60 b            0 skpd (  0.0%)    0.005 s ( 0.090 ms/b)
<dg|gg>:           30 b            0 skpd (  0.0%)    0.009 s ( 0.286 ms/b)
<ff|ff>:           21 b            0 skpd (  0.0%)    0.001 s ( 0.051 ms/b)
<ff|fg>:           36 b            0 skpd (  0.0%)    0.002 s ( 0.054 ms/b)
<ff|gg>:           18 b            0 skpd (  0.0%)    0.003 s ( 0.159 ms/b)
<fg|fg>:           21 b            0 skpd (  0.0%)    0.003 s ( 0.130 ms/b)
<fg|gg>:           18 b            0 skpd (  0.0%)    0.005 s ( 0.274 ms/b)
<gg|gg>:            6 b            0 skpd (  0.0%)    0.004 s ( 0.659 ms/b)
Recanonicalizing the internal orbitals
Recanonicalizing the virtual orbitals
Time needed for Fock operator              ...            8.753 sec
Reference energy                           ...  -1381.365243740
Warning: for UHF the TrafoType has to be JK
Warning: for UHF the K(C)-option cannot be MO but must be AOX

-------------------------------
PARTIAL EXCHANGE TRANSFORMATION
-------------------------------

Transformation type                        ... two-operators
Generation of integrals (i,mue|j,nue)      ... ON
Generation of integrals (mue,kappa|nue,tau)... ON
Generation of integrals (i,mue|a,nue)      ... ON
Dimension of the basis                     ...   93
Number of internal alpha-MOs               ...   10 (   5-  14)
Number of internal beta-MOs                ...    7 (   5-  11)
Number of external alpha-MOs               ...   78 (  15-  92)
Number of external beta-MOs                ...   81 (  12-  92)
Pair cutoff                                ... 0.000e+00 Eh
Number of AO pairs in the trafo            ... 4371
Total Number of distinct AO pairs          ... 4371
Memory devoted for trafo                   ... 2500.0 MB 
Max. Number of MO pairs treated together   ... 37886      
Number Format for Storage                  ... Double (8 Byte)
Integral package used                      ... LIBINT

Starting integral evaluation:
    ... done with AO integral generation
Closing buffer AOK[aa] ( 0.00 GB; CompressionRatio= 0.99)
Closing buffer AOK[bb] ( 0.00 GB; CompressionRatio= 0.97)
Closing buffer AOK[ab] ( 0.00 GB; CompressionRatio= 0.98)
Closing buffer AOK[ba] ( 0.00 GB; CompressionRatio= 0.98)
Collecting buffer AOK 
Closing buffer IAAO1[aa] ( 0.00 GB; CompressionRatio= 1.00)
Closing buffer IAAO1[bb] ( 0.00 GB; CompressionRatio= 1.00)
Closing buffer IAAO1[ab] ( 0.00 GB; CompressionRatio= 1.00)
Closing buffer IAAO1[ba] ( 0.00 GB; CompressionRatio= 1.00)
Closing buffer IAAO2[aa] ( 0.00 GB; CompressionRatio= 1.00)
Closing buffer IAAO2[bb] ( 0.00 GB; CompressionRatio= 1.00)
Closing buffer IAAO2[ab] ( 0.00 GB; CompressionRatio= 1.00)
Closing buffer IAAO2[ba] ( 0.00 GB; CompressionRatio= 1.00)
Collecting buffer IAAO 
Closing buffer PRQS    ( 0.00 GB; CompressionRatio= 1.00)
Collecting buffer PRQS 
Number of alpha/alpha MO pairs in trafo    ...   55
Number of beta /beta  MO pairs in trafo    ...   28
Number of alpha/ beta MO pairs in trafo    ...   70
------------------------
SORTING OF (i,mue|j,nue)
------------------------

SORTING OF ALPHA/ALPHA PAIRS
IBATCH = 1 of  1
Closing buffer KAO[aa] ( 0.00 GB; CompressionRatio= 1.00)
Collecting buffer KAO 
SORTING OF BETA /BETA  PAIRS
IBATCH = 1 of  1
Closing buffer KAO[bb] ( 0.00 GB; CompressionRatio= 1.00)
Collecting buffer KAO 
SORTING OF ALPHA/BETA  PAIRS
IBATCH = 1 of  1
Closing buffer KAO[ab] ( 0.00 GB; CompressionRatio= 0.999826599619)
Collecting buffer KAO[ab] 
------------------------
SORTING OF (i,mue|a,nue)
------------------------

Number of alpha/alpha (i,a) pairs in trafo  ...  780
Number of beta /beta  (i,a) pairs in trafo  ...  567
Number of alpha/ beta (i,a) pairs in trafo  ...  810
Number of beta /alpha (i,a) pairs in trafo  ...  546
Setting up the alpha/alpha list             ... done
Setting up the beta /beta  list             ... done
Setting up the alpha/beta  list             ... done
Setting up the beta /alpha list             ... done
    ... Now sorting (i,mue|a,nue)integrals
    ... Integrals (i,b|a,c) will be made on the fly
SORTING OF ALPHA/ALPHA PAIRS
IBATCH = 1 of  1
Closing buffer IPAQ[aa]  0.00 GB; CompressionRatio= 1.00)
SORTING OF BETA /BETA  PAIRS
IBATCH = 1 of  1
Closing buffer IPAQ[bb]( 0.00 GB; CompressionRatio= 1.00)
SORTING OF ALPHA/BETA  PAIRS (NMatSort_ab=34)
IBATCH = 1 of  1
Closing buffer IPAQ[ab]( 0.00 GB; CompressionRatio= 1.00)
SORTING OF BETA/ALPHA  PAIRS
IBATCH = 1 of  1
Closing buffer IPAQ[ba]( 0.00 GB; CompressionRatio= 1.00)
N(AO-Batches) Done                         ...      1250 
N(AO-Batches) Skipped                      ...         0 
N(IJ)-pairs Skipped                        ...         0 
TOTAL TIME for half transformation         ...    42.363 sec
AO-integral generation                     ...     1.225 sec
Half transformation                        ...     0.092 sec
K-integral sorting                         ...     1.347 sec
<ss|**>: 
------------------------------
PARTIAL COULOMB TRANSFORMATION
------------------------------

Transformation type                        ... two-operators
Dimension of the basis                     ...   93
Number of internal alpha-MOs               ...   10 (5-14)
Number of internal beta-MOs                ...    7 (5-11)
Pair cutoff                                ... 0.000e+00 Eh
Number of AO pairs included in the trafo   ... 4371
Total Number of distinct AO pairs          ... 4371
Memory devoted for trafo                   ... 2500.0 MB 
Max. Number of MO pairs treated together   ... 74966      
Max. Number of MOs treated per batch       ...  806      
Number Format for Storage                  ... Double (8 Byte)
AO-integral source                         ... DIRECT
Integral package used                      ... LIBINT

Starting integral evaluation:
<sp|**>:        11700 b        0 skpd     2.334 s (  0.199 ms/b)
<sd|**>:        18200 b        0 skpd     3.409 s (  0.187 ms/b)
<sf|**>:        13000 b        0 skpd     2.011 s (  0.155 ms/b)
<sg|**>:         7800 b        0 skpd     0.249 s (  0.032 ms/b)
<pp|**>:         5200 b        0 skpd     0.454 s (  0.087 ms/b)
        9100 b        0 skpd     2.175 s (  0.239 ms/b)
<pd|**>:        11375 b        0 skpd     1.669 s (  0.147 ms/b)
<pf|**>:         6825 b        0 skpd     0.379 s (  0.055 ms/b)
<pg|**>:         4550 b        0 skpd     0.682 s (  0.150 ms/b)
<dd|**>:         4875 b        0 skpd     1.229 s (  0.252 ms/b)
<df|**>:         4875 b        0 skpd     0.359 s (  0.074 ms/b)
<dg|**>:         3250 b        0 skpd     0.576 s (  0.177 ms/b)
<ff|**>:         1950 b        0 skpd     0.116 s (  0.059 ms/b)
<fg|**>:         1950 b        0 skpd     0.205 s (  0.105 ms/b)
<gg|**>:          975 b        0 skpd     0.224 s (  0.230 ms/b)
Closing buffer AOJ[aa] ( 0.00 GB; CompressionRatio= 0.97)
Closing buffer AOJ[bb] ( 0.00 GB; CompressionRatio= 0.00)
Collecting buffer AOJ 
    ... done with AO integral generation
Number of Alpha-MO pairs included          ...   55
Number of Beta-MO pairs included           ...   28
    ... Now sorting integrals
SORTING ALPHA/ALPHA PAIRS
IBATCH = 1 of  1
Closing buffer JAO[aa] ( 0.00 GB; CompressionRatio= 1.00)
SORTING BETA/BETA PAIRS
IBATCH = 1 of  1
Closing buffer JAO[bb] ( 0.00 GB; CompressionRatio= 1.00)
Collecting buffer JAO 
TOTAL TIME for half transformation         ...    16.223 sec
AO-integral generation                     ...    15.905 sec
Half transformation                        ...     0.169 sec
J-integral sorting                         ...     0.113 sec

-------------------------- SECOND HALF TRANSFORMATION -------------------------
Formation of (ij|kl),(ij|ka), (ij|ab)      ... ok (     0.149 sec)
Formation of (ik|jl),(ik|ja), (ia|jb)      ... ok (     0.230 sec)


-----------------------
SPIN UNRESTRICTED GUESS
-----------------------

Entering MDCI_UHF_Guess, Tailored=0
Spin-components of the MP2 energy:
EMP2(aa)=     -0.155096425
EMP2(bb)=     -0.076559340
EMP2(ab)=     -0.458814347

Initial guess performed in     0.023 sec
E(0)                                       ...  -1381.365243740
E(MP2)                                     ...     -0.690470111
Initial E(tot)                             ...  -1382.055713852
<T|T>                                      ...      0.106998898
Number of pairs included                   ... 136

------------------------------------------------
                  UHF COUPLED CLUSTER ITERATIONS
------------------------------------------------

Number of amplitudes to be optimized       ...       648703

Iter       E(tot)           E(Corr)          Delta-E          Residual     Time      <S|S>**1/2
  0  -1382.055713852     -0.690470111     -0.000000000      0.037419293    5.61      0.000001568
                           *** Turning on DIIS ***
  1  -1381.969424335     -0.604180595      0.086289517      0.011212350    8.89      0.072065638
  2  -1381.998253941     -0.633010200     -0.028829606      0.006318140    8.92      0.060766693
  3  -1381.998509158     -0.633265418     -0.000255217      0.004099895    8.93      0.075704182
  4  -1381.999835364     -0.634591623     -0.001326206      0.002331760    8.96      0.083012514
  5  -1382.000692915     -0.635449174     -0.000857551      0.000631254    8.92      0.090957343
  6  -1382.000803648     -0.635559908     -0.000110733      0.000283710    8.95      0.093045376
  7  -1382.000824847     -0.635581106     -0.000021199      0.000069864    8.95      0.094093452
  8  -1382.000838494     -0.635594753     -0.000013647      0.000033978    8.93      0.094270989
  9  -1382.000839110     -0.635595370     -0.000000616      0.000016982    8.92      0.094316825
 10  -1382.000837206     -0.635593465      0.000001904      0.000011103    8.95      0.094307919
 11  -1382.000838529     -0.635594788     -0.000001323      0.000006402    8.95      0.094297228
               --- The Coupled-Cluster iterations have converged ---

----------------------
COUPLED CLUSTER ENERGY
----------------------

E(0)                                       ...  -1381.365243740
E(CORR)                                    ...     -0.635594788
E(TOT)                                     ...  -1382.000838529
Singles norm <S|S>**1/2                    ...      0.094297228 ( 0.062924910, 0.031372318)  
T1 diagnostic                              ...      0.022870437                              

------------------
LARGEST AMPLITUDES
------------------
  14a-> 27a  -1a-> -1a       0.057688
  14a-> 18a  -1a-> -1a       0.042325
  10b-> 32b  -1b-> -1b       0.035055
   9b-> 31b  -1b-> -1b       0.035055
  11b-> 33b  -1b-> -1b       0.035055
  14a-> 36a  -1a-> -1a       0.032001
  12a-> 34a  -1a-> -1a       0.026132
  13a-> 35a  -1a-> -1a       0.026132
  11a-> 33a  -1a-> -1a       0.026132
  10a-> 32a  -1a-> -1a       0.024609
   9a-> 31a  -1a-> -1a       0.024609
  10b-> 23b  -1b-> -1b       0.023597
  11b-> 24b  -1b-> -1b       0.023595
   9b-> 22b  -1b-> -1b       0.023595
  12a-> 50a  10b-> 48b       0.023130
  11a-> 49a   9b-> 47b       0.023090

----------------------
UHF TRIPLES CORRECTION (Algorithm 1)
----------------------

Multiplier for the singles contribution    ...      1.000000000

SPIN-CASE Alpha-Alpha-Alpha:
10% done
20% done
30% done
40% done
50% done
60% done
70% done
80% done
90% done


SPIN-CASE Beta-Beta-Beta:
10% done
20% done
30% done
40% done
50% done
60% done
70% done
80% done
90% done


SPIN-CASE Alpha-Alpha-Beta:
10% done
20% done
30% done
40% done
50% done
60% done
70% done
80% done
90% done


SPIN-CASE Beta-Beta-Alpha:
10% done
20% done
30% done
40% done
50% done
60% done
70% done
80% done
90% done


Triples Correction (T)                     ...     -0.021798504
    alpha-alpha-alpha ... -0.001895966 (  8.7%)
    alpha-alpha-beta  ... -0.012583900 ( 57.7%)
    alpha-beta -beta  ... -0.006979948 ( 32.0%)
    beta -beta -beta  ... -0.000338691 (  1.6%)
Scaling of triples based on CCSD energies (Peterson et al. Molecular Physics 113, 1551 (2015))
E(T*) = f*E(T) where f = E(F12-CCSD)/E(CCSD) 
f = CCSD (with F12)/ CCSD (without F12)    ...      1.000000000
Scaled triples correction (T)              ...     -0.021798504

Final correlation energy                   ...     -0.657393292
E(CCSD)                                    ...  -1382.000838529
E(CCSD(T))                                 ...  -1382.022637033



        !!!!!!!!!!!!!!!!!!!!!!!!!!!!!!!!!!!!!!!!!!!!!!!!!!!!!!!!!!!!!!!!!!!!!!!!!! 
        !  Warning: Densities are linearized densities                           !
        !!!!!!!!!!!!!!!!!!!!!!!!!!!!!!!!!!!!!!!!!!!!!!!!!!!!!!!!!!!!!!!!!!!!!!!!!! 

NORM  =      1.110724013 sqrt=     1.053908920
W(HF) =      0.900313659
------------------------------------------------------------------------------
                           ORCA POPULATION ANALYSIS
------------------------------------------------------------------------------
Input electron density              ... 27_Co.mdcip
Input spin density                  ... 27_Co.mdcir
BaseName (.gbw .S,...)              ... 27_Co

                    ********************************
                    * MULLIKEN POPULATION ANALYSIS *
                    ********************************

------------------------------------------
MULLIKEN ATOMIC CHARGES AND SPIN DENSITIES
------------------------------------------
   0 Co:    0.000000    3.000000
Sum of atomic charges       :    0.0000000
Sum of atomic spin densities:    3.0000000

---------------------------------------------------
MULLIKEN REDUCED ORBITAL CHARGES AND SPIN DENSITIES
---------------------------------------------------
CHARGE
  0 Cos       :     6.986679  s :     6.986679
      pz      :     4.003060  p :    12.009180
      px      :     4.003060
      py      :     4.003060
      dz2     :     1.001372  d :     7.962562
      dxz     :     1.986606
      dyz     :     1.986606
      dx2y2   :     1.001372
      dxy     :     1.986606
      f0      :     0.004775  f :     0.036895
      f+1     :     0.005155
      f-1     :     0.005155
      f+2     :     0.005383
      f-2     :     0.006422
      f+3     :     0.005003
      f-3     :     0.005003
      g0      :     0.000480  g :     0.004683
      g+1     :     0.000500
      g-1     :     0.000500
      g+2     :     0.000513
      g-2     :     0.000578
      g+3     :     0.000567
      g-3     :     0.000567
      g+4     :     0.000489
      g-4     :     0.000489

SPIN
  0 Cos       :     0.986284  s :     0.986284
      pz      :     0.005073  p :     0.015219
      px      :     0.005073
      py      :     0.005073
      dz2     :     0.989273  d :     1.991150
      dxz     :     0.004202
      dyz     :     0.004202
      dx2y2   :     0.989273
      dxy     :     0.004202
      f0      :     0.001497  f :     0.006358
      f+1     :     0.001050
      f-1     :     0.001050
      f+2     :     0.000782
      f-2     :    -0.000478
      f+3     :     0.001229
      f-3     :     0.001229
      g0      :     0.000138  g :     0.000989
      g+1     :     0.000127
      g-1     :     0.000127
      g+2     :     0.000137
      g-2     :     0.000055
      g+3     :     0.000065
      g-3     :     0.000065
      g+4     :     0.000137
      g-4     :     0.000137


                     *******************************
                     * LOEWDIN POPULATION ANALYSIS *
                     *******************************

-----------------------------------------
LOEWDIN ATOMIC CHARGES AND SPIN DENSITIES
-----------------------------------------
   0 Co:    0.000000    3.000000

--------------------------------------------------
LOEWDIN REDUCED ORBITAL CHARGES AND SPIN DENSITIES
--------------------------------------------------
CHARGE
  0 Cos       :     6.986679  s :     6.986679
      pz      :     4.003060  p :    12.009180
      px      :     4.003060
      py      :     4.003060
      dz2     :     1.001372  d :     7.962562
      dxz     :     1.986606
      dyz     :     1.986606
      dx2y2   :     1.001372
      dxy     :     1.986606
      f0      :     0.004775  f :     0.036895
      f+1     :     0.005155
      f-1     :     0.005155
      f+2     :     0.005383
      f-2     :     0.006422
      f+3     :     0.005003
      f-3     :     0.005003
      g0      :     0.000480  g :     0.004683
      g+1     :     0.000500
      g-1     :     0.000500
      g+2     :     0.000513
      g-2     :     0.000578
      g+3     :     0.000567
      g-3     :     0.000567
      g+4     :     0.000489
      g-4     :     0.000489

SPIN
  0 Cos       :     0.986284  s :     0.986284
      pz      :     0.005073  p :     0.015219
      px      :     0.005073
      py      :     0.005073
      dz2     :     0.989273  d :     1.991150
      dxz     :     0.004202
      dyz     :     0.004202
      dx2y2   :     0.989273
      dxy     :     0.004202
      f0      :     0.001497  f :     0.006358
      f+1     :     0.001050
      f-1     :     0.001050
      f+2     :     0.000782
      f-2     :    -0.000478
      f+3     :     0.001229
      f-3     :     0.001229
      g0      :     0.000138  g :     0.000989
      g+1     :     0.000127
      g-1     :     0.000127
      g+2     :     0.000137
      g-2     :     0.000055
      g+3     :     0.000065
      g-3     :     0.000065
      g+4     :     0.000137
      g-4     :     0.000137


                      *****************************
                      * MAYER POPULATION ANALYSIS *
                      *****************************

  NA   - Mulliken gross atomic population
  ZA   - Total nuclear charge
  QA   - Mulliken gross atomic charge
  VA   - Mayer's total valence
  BVA  - Mayer's bonded valence
  FA   - Mayer's free valence

  ATOM       NA         ZA         QA         VA         BVA        FA
  0 Co    27.0000    27.0000     0.0000     3.6427     0.0000     3.6427





------------------------------------------------------------------------------- 
                                     TIMINGS                                   
------------------------------------------------------------------------------- 


Total execution time                   ...      173.603 sec

Fock Matrix Formation                  ...        8.753 sec (  5.0%)
Initial Guess                          ...        0.023 sec (  0.0%)
DIIS Solver                            ...        0.702 sec (  0.4%)
State Vector Update                    ...        0.031 sec (  0.0%)
Sigma-vector construction              ...      103.145 sec ( 59.4%)
  <0|H|D>                              ...        0.002 sec (  0.0% of sigma)
  <D|H|D>(0-ext Fock)                  ...        0.011 sec (  0.0% of sigma)
  <D|H|D>(0-ext)                       ...        0.040 sec (  0.0% of sigma)
  <D|H|D>(2-ext Fock)                  ...        0.004 sec (  0.0% of sigma)
  <D|H|D>(2-ext)                       ...        0.152 sec (  0.1% of sigma)
  <D|H|D>(4-ext)                       ...        4.277 sec (  4.1% of sigma)
  <S|H|0>                              ...        0.412 sec (  0.4% of sigma)
  <S|H|S>                              ...        0.002 sec (  0.0% of sigma)
  <S|H|D>(1-ext)                       ...        0.004 sec (  0.0% of sigma)
  <D|H|S>(1-ext)                       ...        0.068 sec (  0.1% of sigma)
  Fock-dressing                        ...       96.123 sec ( 93.2% of sigma)
  (ik|jl)-dressing                     ...        0.048 sec (  0.0% of sigma)
  (ij|ab),(ia|jb)-dressing             ...        1.557 sec (  1.5% of sigma)
  Pair energies                        ...        0.003 sec (  0.0% of sigma)
Total Time for computing (T)           ...        1.113 sec (  0.6% of ALL)
  I/O of integral and amplitudes       ...        0.262 sec ( 23.6% of (T))
  External N**7 contributions          ...        0.275 sec ( 24.7% of (T))
  Internal N**7 contributions          ...        0.142 sec ( 12.7% of (T))
  N**6 triples energy contributions    ...        0.390 sec ( 35.0% of (T))


-------------------------   --------------------
FINAL SINGLE POINT ENERGY     -1382.022637032813
-------------------------   --------------------


                            ***************************************
                            *     ORCA property calculations      *
                            ***************************************

                                    ---------------------
                                    Active property flags
                                    ---------------------
   (+) Dipole Moment


------------------------------------------------------------------------------
                       ORCA ELECTRIC PROPERTIES CALCULATION
------------------------------------------------------------------------------

Dipole Moment Calculation                       ... on
Quadrupole Moment Calculation                   ... off
Polarizability Calculation                      ... off
GBWName                                         ... 27_Co.gbw
Electron density file                           ... 27_Co.scfp
The origin for moment calculation is the CENTER OF MASS  = ( 0.000000,  0.000000  0.000000)

-------------
DIPOLE MOMENT
-------------
                                X             Y             Z
Electronic contribution:     -0.00000      -0.00000      -0.00000
Nuclear contribution   :      0.00000       0.00000       0.00000
                        -----------------------------------------
Total Dipole Moment    :     -0.00000      -0.00000      -0.00000
                        -----------------------------------------
Magnitude (a.u.)       :      0.00000
Magnitude (Debye)      :      0.00000



--------------------
Rotational spectrum 
--------------------
 
Rotational constants in cm-1:     0.000000     0.000000     0.000000 
Rotational constants in MHz :     0.000000     0.000000     0.000000 

 Dipole components along the rotational axes: 
x,y,z [a.u.] :    -0.000000    -0.000000    -0.000000 
x,y,z [Debye]:    -0.000000    -0.000000    -0.000000 

 

                           *** MDCI DENSITY ***

------------------------------------------------------------------------------
                       ORCA ELECTRIC PROPERTIES CALCULATION
------------------------------------------------------------------------------

Dipole Moment Calculation                       ... on
Quadrupole Moment Calculation                   ... off
Polarizability Calculation                      ... off
GBWName                                         ... 27_Co.gbw
Electron density file                           ... 27_Co.mdcip
The origin for moment calculation is the CENTER OF MASS  = ( 0.000000,  0.000000  0.000000)

-------------
DIPOLE MOMENT
-------------
                                X             Y             Z
Electronic contribution:      0.00000       0.00000       0.00000
Nuclear contribution   :      0.00000       0.00000       0.00000
                        -----------------------------------------
Total Dipole Moment    :      0.00000       0.00000       0.00000
                        -----------------------------------------
Magnitude (a.u.)       :      0.00000
Magnitude (Debye)      :      0.00000



--------------------
Rotational spectrum 
--------------------
 
Rotational constants in cm-1:     0.000000     0.000000     0.000000 
Rotational constants in MHz :     0.000000     0.000000     0.000000 

 Dipole components along the rotational axes: 
x,y,z [a.u.] :     0.000000     0.000000     0.000000 
x,y,z [Debye]:     0.000000     0.000000     0.000000 

 

Timings for individual modules:

Sum of individual times         ...      257.596 sec (=   4.293 min)
GTO integral calculation        ...        3.046 sec (=   0.051 min)   1.2 %
SCF iterations                  ...       80.093 sec (=   1.335 min)  31.1 %
MDCI module                     ...      174.457 sec (=   2.908 min)  67.7 %
                             ****ORCA TERMINATED NORMALLY****
TOTAL RUN TIME: 0 days 0 hours 4 minutes 18 seconds 680 msec
