
                                 *****************
                                 * O   R   C   A *
                                 *****************

           --- An Ab Initio, DFT and Semiempirical electronic structure package ---

                  #######################################################
                  #                        -***-                        #
                  #          Department of theory and spectroscopy      #
                  #               Directorship: Frank Neese             #
                  #        Max Planck Institute fuer Kohlenforschung    #
                  #                Kaiser Wilhelm Platz 1               #
                  #                 D-45470 Muelheim/Ruhr               #
                  #                      Germany                        #
                  #                                                     #
                  #                  All rights reserved                #
                  #                        -***-                        #
                  #######################################################


                         Program Version 4.2.0 -  RELEASE  -


 With contributions from (in alphabetic order):
   Daniel Aravena         : Magnetic Suceptibility
   Michael Atanasov       : Ab Initio Ligand Field Theory (pilot matlab implementation)
   Alexander A. Auer      : GIAO ZORA, VPT2
   Ute Becker             : Parallelization
   Giovanni Bistoni       : ED, misc. LED, open-shell LED, HFLED
   Martin Brehm           : Molecular dynamics
   Dmytro Bykov           : SCF Hessian
   Vijay G. Chilkuri      : MRCI spin determinant printing, contributions to CSF-ICE
   Dipayan Datta          : RHF DLPNO-CCSD density
   Achintya Kumar Dutta   : EOM-CC, STEOM-CC
   Dmitry Ganyushin       : Spin-Orbit,Spin-Spin,Magnetic field MRCI
   Miquel Garcia          : C-PCM Hessian, Gaussian charge scheme
   Yang Guo               : DLPNO-NEVPT2, CIM, IAO-localization
   Andreas Hansen         : Spin unrestricted coupled pair/coupled cluster methods
   Benjamin Helmich-Paris : CASSCF linear response (MC-RPA)
   Lee Huntington         : MR-EOM, pCC
   Robert Izsak           : Overlap fitted RIJCOSX, COSX-SCS-MP3, EOM
   Christian Kollmar      : KDIIS, OOCD, Brueckner-CCSD(T), CCSD density
   Simone Kossmann        : Meta GGA functionals, TD-DFT gradient, OOMP2, MP2 Hessian
   Martin Krupicka        : AUTO-CI
   Lucas Lang             : DCDCAS
   Dagmar Lenk            : GEPOL surface, SMD
   Dimitrios Liakos       : Extrapolation schemes; Compound Job, initial MDCI parallelization
   Dimitrios Manganas     : Further ROCIS development; embedding schemes
   Dimitrios Pantazis     : SARC Basis sets
   Taras Petrenko         : DFT Hessian,TD-DFT gradient, ASA, ECA, R-Raman, ABS, FL, XAS/XES, NRVS
   Peter Pinski           : DLPNO-MP2, DLPNO-MP2 Gradient
   Christoph Reimann      : Effective Core Potentials
   Marius Retegan         : Local ZFS, SOC
   Christoph Riplinger    : Optimizer, TS searches, QM/MM, DLPNO-CCSD(T), (RO)-DLPNO pert. Triples
   Tobias Risthaus        : Range-separated hybrids, TD-DFT gradient, RPA, STAB
   Michael Roemelt        : Original ROCIS implementation
   Masaaki Saitow         : Open-shell DLPNO-CCSD energy and density
   Barbara Sandhoefer     : DKH picture change effects
   Avijit Sen             : IP-ROCIS
   Kantharuban Sivalingam : CASSCF convergence, NEVPT2, FIC-MRCI
   Bernardo de Souza      : ESD, SOC TD-DFT
   Georgi Stoychev        : AutoAux, RI-MP2 NMR
   Willem Van den Heuvel  : Paramagnetic NMR
   Boris Wezisla          : Elementary symmetry handling
   Frank Wennmohs         : Technical directorship


 We gratefully acknowledge several colleagues who have allowed us to
 interface, adapt or use parts of their codes:
   Stefan Grimme, W. Hujo, H. Kruse,             : VdW corrections, initial TS optimization,
                  C. Bannwarth                     DFT functionals, gCP, sTDA/sTD-DF
   Ed Valeev, F. Pavosevic, A. Kumar             : LibInt (2-el integral package), F12 methods
   Garnet Chan, S. Sharma, J. Yang, R. Olivares  : DMRG
   Ulf Ekstrom                                   : XCFun DFT Library
   Mihaly Kallay                                 : mrcc  (arbitrary order and MRCC methods)
   Andreas Klamt, Michael Diedenhofen            : otool_cosmo (COSMO solvation model)
   Jiri Pittner, Ondrej Demel                    : Mk-CCSD
   Frank Weinhold                                : gennbo (NPA and NBO analysis)
   Christopher J. Cramer and Donald G. Truhlar   : smd solvation model
   Lars Goerigk                                  : TD-DFT with DH, B97 family of functionals
   V. Asgeirsson, H. Jonsson                     : NEB implementation
   FAccTs GmbH                                   : IRC, NEB, NEB-TS, Multilevel, MM, QM/MM, CI optimization
   S Lehtola, MJT Oliveira, MAL Marques          : LibXC Library


 Your calculation uses the libint2 library for the computation of 2-el integrals
 For citations please refer to: http://libint.valeyev.net

 Your ORCA version has been built with support for libXC version: 4.2.3
 For citations please refer to: https://tddft.org/programs/libxc/

 This ORCA versions uses:
   CBLAS   interface :  Fast vector & matrix operations
   LAPACKE interface :  Fast linear algebra routines
   SCALAPACK package :  Parallel linear algebra routines


----- Orbital basis set information -----
Your calculation utilizes the basis: aug-cc-pVTZ 
    H, B-Ne : Obtained from the ccRepo (grant-hill.group.shef.ac.uk/ccrepo) Feb. 2017
              R. A. Kendall, T. H. Dunning, Jr., R. J. Harrison, J. Chem. Phys. 96, 6796 (1992)
         He : Obtained from the ccRepo (grant-hill.group.shef.ac.uk/ccrepo) Feb. 2017
              D. E. Woon, T. H. Dunning, Jr., J. Chem. Phys. 100, 2975 (1994)
  Li-Be, Na : Obtained from the ccRepo (grant-hill.group.shef.ac.uk/ccrepo) Feb. 2017
              B. P. Prascher, D. E. Woon, K. A. Peterson, T. H. Dunning, Jr., A. K. Wilson, Theor. Chem. Acc. 128, 69 (2011)
         Mg : Obtained from the Peterson Research Group Website (tyr0.chem.wsu.edu/~kipeters) Feb. 2017
              B. P. Prascher, D. E. Woon, K. A. Peterson, T. H. Dunning, Jr., A. K. Wilson, Theor. Chem. Acc. 128, 69 (2011)
      Al-Ar : Obtained from the ccRepo (grant-hill.group.shef.ac.uk/ccrepo) Feb. 2017
              D. E. Woon, T. H. Dunning, Jr., J. Chem. Phys. 98, 1358 (1993)
      Sc-Zn : Obtained from the ccRepo (grant-hill.group.shef.ac.uk/ccrepo) Feb. 2017
              N. B. Balabanov, K. A. Peterson, J. Chem. Phys. 123, 064107 (2005)
              N. B. Balabanov, K. A. Peterson, J. Chem. Phys. 125, 074110 (2006)
      Ga-Kr : Obtained from the ccRepo (grant-hill.group.shef.ac.uk/ccrepo) Feb. 2017
              A. K. Wilson, D. E. Woon, K. A. Peterson, T. H. Dunning, Jr., J. Chem. Phys. 110, 7667 (1999)
     Ag, Au : Obtained from the Peterson Research Group Website (tyr0.chem.wsu.edu/~kipeters) Feb. 2017
              K. A. Peterson, C. Puzzarini, Theor. Chem. Acc. 114, 283 (2005)

================================================================================
                                        WARNINGS
                       Please study these warnings very carefully!
================================================================================


WARNING: your system is open-shell and RHF/RKS was chosen
  ===> : WILL SWITCH to UHF/UKS


WARNING: MDCI localization with Augmented Hessian Foster-Boys
  ===> : Switching off randomization!

WARNING: Post HF methods need fully converged wavefunctions
  ===> : Setting SCFConvForced true
         You can overwrite this default with %scf ConvForced false 


INFO   : the flag for use of LIBINT has been found!

================================================================================
                                       INPUT FILE
================================================================================
NAME = 28_Ni.in
|  1> #
|  2> # 28_Ni CCSD(T)/aug-cc-pVTZ
|  3> #
|  4> ! CCSD(T) aug-cc-pVTZ tightscf slowconv kdiis
|  5> 
|  6> *xyz 0 3
|  7>  Ni 0.0 0.0 0.0
|  8> *
|  9> 
| 10> %maxcore 5000 
| 11> 
| 12> %pal
| 13> nprocs 24
| 14> end
| 15> 
| 16> 
| 17>                          ****END OF INPUT****
================================================================================

                       ****************************
                       * Single Point Calculation *
                       ****************************

---------------------------------
CARTESIAN COORDINATES (ANGSTROEM)
---------------------------------
  Ni     0.000000    0.000000    0.000000

----------------------------
CARTESIAN COORDINATES (A.U.)
----------------------------
  NO LB      ZA    FRAG     MASS         X           Y           Z
   0 Ni   28.0000    0    58.700    0.000000    0.000000    0.000000

--------------------------------
INTERNAL COORDINATES (ANGSTROEM)
--------------------------------
 Ni     0   0   0     0.000000000000     0.00000000     0.00000000

---------------------------
INTERNAL COORDINATES (A.U.)
---------------------------
 Ni     0   0   0     0.000000000000     0.00000000     0.00000000

---------------------
BASIS SET INFORMATION
---------------------
There are 1 groups of distinct atoms

 Group   1 Type Ni  : 116s77p23d3f2g contracted to 8s7p5d3f2g pattern {19191919191911/151515151511/77711/111/11}

Atom   0Ni   basis set group =>   1


           ************************************************************
           *        Program running with 24 parallel MPI-processes    *
           *              working on a common directory               *
           ************************************************************
------------------------------------------------------------------------------
                           ORCA GTO INTEGRAL CALCULATION
------------------------------------------------------------------------------

                         BASIS SET STATISTICS AND STARTUP INFO

 # of primitive gaussian shells          ...  221
 # of primitive gaussian functions       ...  501
 # of contracted shells                  ...   25
 # of contracted basis functions         ...   93
 Highest angular momentum                ...    4
 Maximum contraction depth               ...   19
 Integral package used                   ... LIBINT
 Integral threshhold            Thresh   ...  2.500e-11
 Primitive cut-off              TCut     ...  2.500e-12


------------------------------ INTEGRAL EVALUATION ----------------------------


 * One electron integrals 
 Pre-screening matrix                    ... done
 Shell pair data                         ... done (   0.001 sec)



           ************************************************************
           *        Program running with 24 parallel MPI-processes    *
           *              working on a common directory               *
           ************************************************************
-------------------------------------------------------------------------------
                                 ORCA SCF
-------------------------------------------------------------------------------

------------
SCF SETTINGS
------------
Hamiltonian:
 Ab initio Hamiltonian  Method          .... Hartree-Fock(GTOs)


General Settings:
 Integral files         IntName         .... 28_Ni
 Hartree-Fock type      HFTyp           .... UHF
 Total Charge           Charge          ....    0
 Multiplicity           Mult            ....    3
 Number of Electrons    NEL             ....   28
 Basis Dimension        Dim             ....   93
 Nuclear Repulsion      ENuc            ....      0.0000000000 Eh

Convergence Acceleration:
 DIIS                   CNVDIIS         .... off
 Newton-Raphson         CNVNR           .... off
 SOSCF                  CNVSOSCF        .... off
 Level Shifting         CNVShift        .... off
 Zerner damping         CNVZerner       .... off
 Static damping         CNVDamp         .... off
 Fernandez-Rico         CNVRico         .... off

SCF Procedure:
 Maximum # iterations   MaxIter         ....   125
 SCF integral mode      SCFMode         .... Direct
   Integral package                     .... LIBINT
 Reset frequency        DirectResetFreq ....    20
 Integral Threshold     Thresh          ....  2.500e-11 Eh
 Primitive CutOff       TCut            ....  2.500e-12 Eh

Convergence Tolerance:
 Convergence Check Mode ConvCheckMode   .... Total+1el-Energy
 Convergence forced     ConvForced      .... 1
 Energy Change          TolE            ....  1.000e-08 Eh
 1-El. energy change                    ....  1.000e-05 Eh


Diagonalization of the overlap matrix:
Smallest eigenvalue                        ... 8.106e-04
Time for diagonalization                   ...    0.002 sec
Threshold for overlap eigenvalues          ... 1.000e-08
Number of eigenvalues below threshold      ... 0
Time for construction of square roots      ...    0.003 sec
Total time needed                          ...    0.005 sec

-------------------
DFT GRID GENERATION
-------------------

General Integration Accuracy     IntAcc      ...  4.340
Radial Grid Type                 RadialGrid  ... Gauss-Chebyshev
Angular Grid (max. acc.)         AngularGrid ... Lebedev-110
Angular grid pruning method      GridPruning ... 3 (G Style)
Weight generation scheme         WeightScheme... Becke
Basis function cutoff            BFCut       ...    1.0000e-11
Integration weight cutoff        WCut        ...    1.0000e-14
Grids for H and He will be reduced by one unit

# of grid points (after initial pruning)     ...   2912 (   0.0 sec)
# of grid points (after weights+screening)   ...   2912 (   0.0 sec)
Grid point division into batches done        ...    0.0 sec
Reduced shell lists constructed in    0.0 sec

Total number of grid points                  ...     2912
Total number of batches                      ...       46
Average number of points per batch           ...       63
Average number of grid points per atom       ...     2912
Average number of shells per batch           ...    14.00 (56.00%)
Average number of basis functions per batch  ...    40.67 (43.73%)
Average number of large shells per batch     ...     9.33 (66.67%)
Average number of large basis fcns per batch ...    22.67 (55.74%)
Maximum spatial batch extension              ...  17.39, 26.34, 26.34 au
Average spatial batch extension              ...   0.76,  1.15,  1.15 au

Time for grid setup =    0.023 sec

------------------------------
INITIAL GUESS: MODEL POTENTIAL
------------------------------
Loading Hartree-Fock densities                     ... done
Calculating cut-offs                               ... done
Setting up the integral package                    ... done
Initializing the effective Hamiltonian             ... done
Starting the Coulomb interaction                   ... done (   0.0 sec)
Reading the grid                                   ... done
Mapping shells                                     ... done
Starting the XC term evaluation                    ... done (   0.0 sec)
Transforming the Hamiltonian                       ... done (   0.0 sec)
Diagonalizing the Hamiltonian                      ... done (   0.0 sec)
Back transforming the eigenvectors                 ... done (   0.0 sec)
Now organizing SCF variables                       ... done
                      ------------------
                      INITIAL GUESS DONE (   0.2 sec)
                      ------------------
--------------
SCF ITERATIONS
--------------
ITER       Energy         Delta-E        Max-DP      RMS-DP      [F,P]   Gradient Norm
               ***  Starting incremental Fock matrix formation  ***
                             ****Resetting KDIIS****
                             ****Turning on KDIIS(Cayley)****
  0  -1506.7679709856   0.000000000000 0.01530274  0.00043876  0.2123386   0.143037205
  1  -1506.7863855421  -0.018414556441 0.02210898  0.00062478  0.1954616   0.120549755
  2  -1506.8002687258  -0.013883183767 0.04847672  0.00108511  0.1578418   0.097060382
  3  -1506.8174810011  -0.017212275253 0.06642368  0.00167084  0.0933632   0.059578822
  4  -1506.8283470679  -0.010866066785 0.01267452  0.00011031  0.0014428   0.001095644
  5  -1506.8283727183  -0.000025650483 0.01056031  0.00009296  0.0009509   0.000761009
  6  -1506.8283870667  -0.000014348349 0.00028044  0.00000641  0.0001277   0.000110577
  7  -1506.8283873797  -0.000000313059 0.00029290  0.00000326  0.0000562   0.000039994
  8  -1506.8283874299  -0.000000050129 0.00014365  0.00000184  0.0000412   0.000012297
  9  -1506.8283874468  -0.000000016953 0.00016052  0.00000178  0.0000258   0.000006933
 10  -1506.8283874548  -0.000000007938 0.00008317  0.00000088  0.0000119   0.000005175
 11  -1506.8283874579  -0.000000003130 0.00008395  0.00000078  0.0000115   0.000003802
 12  -1506.8283874587  -0.000000000770 0.00000736  0.00000011  0.0000115   0.000003765
 13  -1506.8283874591  -0.000000000470 0.00001063  0.00000013  0.0000115   0.000002487
                 **** Energy Check signals convergence ****
                    *** KDIIS BlockDiag (74.048 sec) ***

               *****************************************************
               *                     SUCCESS                       *
               *           SCF CONVERGED AFTER  14 CYCLES          *
               *****************************************************


----------------
TOTAL SCF ENERGY
----------------

Total Energy       :        -1506.82838746 Eh          -41002.88497 eV

Components:
Nuclear Repulsion  :            0.00000000 Eh               0.00000 eV
Electronic Energy  :        -1506.82838746 Eh          -41002.88497 eV
One Electron Energy:        -2099.25800637 Eh          -57123.71447 eV
Two Electron Energy:          592.42961891 Eh           16120.82950 eV

Virial components:
Potential Energy   :        -3013.64795388 Eh          -82005.52991 eV
Kinetic Energy     :         1506.81956642 Eh           41002.64494 eV
Virial Ratio       :            2.00000585


---------------
SCF CONVERGENCE
---------------

  Last Energy change         ...   -3.4129e-10  Tolerance :   1.0000e-08
  Last MAX-Density change    ...    1.3548e-05  Tolerance :   1.0000e-07
  Last RMS-Density change    ...    1.6377e-07  Tolerance :   5.0000e-09

             **** THE GBW FILE WAS UPDATED (28_Ni.gbw) ****
             **** DENSITY FILE WAS UPDATED (28_Ni.scfp) ****
             **** ENERGY FILE WAS UPDATED (28_Ni.en.tmp) ****
----------------------
UHF SPIN CONTAMINATION
----------------------

Expectation value of <S**2>     :     2.000953
Ideal value S*(S+1) for S=1.0   :     2.000000
Deviation                       :     0.000953

             **** THE GBW FILE WAS UPDATED (28_Ni.gbw) ****
             **** DENSITY FILE WAS UPDATED (28_Ni.scfp) ****
----------------
ORBITAL ENERGIES
----------------
                 SPIN UP ORBITALS
  NO   OCC          E(Eh)            E(eV) 
   0   1.0000    -305.398214     -8310.3079 
   1   1.0000     -37.690558     -1025.6122 
   2   1.0000     -32.736023      -890.7925 
   3   1.0000     -32.722122      -890.4142 
   4   1.0000     -32.694427      -889.6606 
   5   1.0000      -4.705958      -128.0556 
   6   1.0000      -3.158684       -85.9522 
   7   1.0000      -3.128462       -85.1298 
   8   1.0000      -3.069079       -83.5139 
   9   1.0000      -0.549076       -14.9411 
  10   1.0000      -0.491825       -13.3832 
  11   1.0000      -0.469589       -12.7782 
  12   1.0000      -0.458100       -12.4655 
  13   1.0000      -0.452745       -12.3198 
  14   1.0000      -0.236309        -6.4303 
  15   0.0000       0.022214         0.6045 
  16   0.0000       0.022925         0.6238 
  17   0.0000       0.024221         0.6591 
  18   0.0000       0.035165         0.9569 
  19   0.0000       0.082957         2.2574 
  20   0.0000       0.084675         2.3041 
  21   0.0000       0.088043         2.3958 
  22   0.0000       0.125674         3.4198 
  23   0.0000       0.126203         3.4341 
  24   0.0000       0.126969         3.4550 
  25   0.0000       0.127347         3.4653 
  26   0.0000       0.127531         3.4703 
  27   0.0000       0.197758         5.3813 
  28   0.0000       0.312621         8.5068 
  29   0.0000       0.316028         8.5995 
  30   0.0000       0.322847         8.7851 
  31   0.0000       0.465133        12.6569 
  32   0.0000       0.470569        12.8048 
  33   0.0000       0.474756        12.9188 
  34   0.0000       0.476874        12.9764 
  35   0.0000       0.477908        13.0046 
  36   0.0000       0.775189        21.0940 
  37   0.0000       1.119298        30.4577 
  38   0.0000       1.127880        30.6912 
  39   0.0000       1.144745        31.1501 
  40   0.0000       1.471775        40.0490 
  41   0.0000       1.472614        40.0719 
  42   0.0000       1.479307        40.2540 
  43   0.0000       1.485052        40.4103 
  44   0.0000       1.486750        40.4565 
  45   0.0000       1.489121        40.5211 
  46   0.0000       1.489560        40.5330 
  47   0.0000       1.689551        45.9750 
  48   0.0000       1.712111        46.5889 
  49   0.0000       1.723865        46.9088 
  50   0.0000       1.729848        47.0716 
  51   0.0000       1.732736        47.1501 
  52   0.0000       4.005996       109.0087 
  53   0.0000       4.235723       115.2599 
  54   0.0000       4.241809       115.4255 
  55   0.0000       4.258699       115.8851 
  56   0.0000       4.281649       116.5096 
  57   0.0000       4.283306       116.5547 
  58   0.0000       4.287660       116.6732 
  59   0.0000       4.288359       116.6922 
  60   0.0000       4.428219       120.4980 
  61   0.0000       4.445111       120.9576 
  62   0.0000       4.482358       121.9712 
  63   0.0000       5.445088       148.1684 
  64   0.0000       5.446287       148.2010 
  65   0.0000       5.460456       148.5866 
  66   0.0000       5.466023       148.7380 
  67   0.0000       5.469907       148.8437 
  68   0.0000       5.484623       149.2442 
  69   0.0000       5.485017       149.2549 
  70   0.0000       5.486826       149.3041 
  71   0.0000       5.486988       149.3085 
  72   0.0000       6.303966       171.5396 
  73   0.0000       6.343534       172.6163 
  74   0.0000       6.362201       173.1243 
  75   0.0000       6.371430       173.3754 
  76   0.0000       6.375910       173.4973 
  77   0.0000      13.232655       360.0789 
  78   0.0000      13.240383       360.2891 
  79   0.0000      13.267095       361.0160 
  80   0.0000      13.305629       362.0646 
  81   0.0000      13.309146       362.1603 
  82   0.0000      13.315255       362.3265 
  83   0.0000      13.316349       362.3563 
  84   0.0000      14.758715       401.6051 
  85   0.0000      14.761362       401.6771 
  86   0.0000      14.785503       402.3340 
  87   0.0000      14.796406       402.6307 
  88   0.0000      14.802221       402.7889 
  89   0.0000      14.831157       403.5763 
  90   0.0000      14.831432       403.5838 
  91   0.0000      14.832722       403.6189 
  92   0.0000      14.832857       403.6226 

                 SPIN DOWN ORBITALS
  NO   OCC          E(Eh)            E(eV) 
   0   1.0000    -305.395664     -8310.2385 
   1   1.0000     -37.653730     -1024.6101 
   2   1.0000     -32.684553      -889.3919 
   3   1.0000     -32.683302      -889.3579 
   4   1.0000     -32.682803      -889.3443 
   5   1.0000      -4.605903      -125.3330 
   6   1.0000      -3.039691       -82.7142 
   7   1.0000      -2.998046       -81.5810 
   8   1.0000      -2.976590       -80.9971 
   9   1.0000      -0.474344       -12.9076 
  10   1.0000      -0.431665       -11.7462 
  11   1.0000      -0.410281       -11.1643 
  12   1.0000      -0.401023       -10.9124 
  13   0.0000       0.006241         0.1698 
  14   0.0000       0.031698         0.8626 
  15   0.0000       0.031838         0.8664 
  16   0.0000       0.032139         0.8745 
  17   0.0000       0.059551         1.6205 
  18   0.0000       0.116398         3.1673 
  19   0.0000       0.116848         3.1796 
  20   0.0000       0.117797         3.2054 
  21   0.0000       0.128961         3.5092 
  22   0.0000       0.131967         3.5910 
  23   0.0000       0.132663         3.6099 
  24   0.0000       0.133009         3.6194 
  25   0.0000       0.133179         3.6240 
  26   0.0000       0.232666         6.3312 
  27   0.0000       0.337616         9.1870 
  28   0.0000       0.351574         9.5668 
  29   0.0000       0.352458         9.5909 
  30   0.0000       0.354273         9.6403 
  31   0.0000       0.491582        13.3766 
  32   0.0000       0.496521        13.5110 
  33   0.0000       0.499065        13.5802 
  34   0.0000       0.500232        13.6120 
  35   0.0000       0.599141        16.3035 
  36   0.0000       0.810276        22.0487 
  37   0.0000       1.157161        31.4879 
  38   0.0000       1.159792        31.5595 
  39   0.0000       1.165357        31.7110 
  40   0.0000       1.502710        40.8908 
  41   0.0000       1.503865        40.9222 
  42   0.0000       1.506444        40.9924 
  43   0.0000       1.508717        41.0543 
  44   0.0000       1.511111        41.1194 
  45   0.0000       1.511269        41.1237 
  46   0.0000       1.512309        41.1520 
  47   0.0000       1.731588        47.1189 
  48   0.0000       1.747659        47.5562 
  49   0.0000       1.755823        47.7784 
  50   0.0000       1.759436        47.8767 
  51   0.0000       1.843992        50.1776 
  52   0.0000       4.044274       110.0503 
  53   0.0000       4.287727       116.6750 
  54   0.0000       4.292151       116.7954 
  55   0.0000       4.302482       117.0765 
  56   0.0000       4.307517       117.2135 
  57   0.0000       4.325978       117.7158 
  58   0.0000       4.327306       117.7520 
  59   0.0000       4.335794       117.9829 
  60   0.0000       4.475123       121.7743 
  61   0.0000       4.482406       121.9725 
  62   0.0000       4.496582       122.3582 
  63   0.0000       5.481514       149.1596 
  64   0.0000       5.481525       149.1599 
  65   0.0000       5.487091       149.3113 
  66   0.0000       5.487897       149.3333 
  67   0.0000       5.491288       149.4256 
  68   0.0000       5.493120       149.4754 
  69   0.0000       5.494213       149.5051 
  70   0.0000       5.499694       149.6543 
  71   0.0000       5.499766       149.6562 
  72   0.0000       6.356794       172.9772 
  73   0.0000       6.381973       173.6623 
  74   0.0000       6.394676       174.0080 
  75   0.0000       6.400231       174.1591 
  76   0.0000       6.468236       176.0097 
  77   0.0000      13.315325       362.3284 
  78   0.0000      13.321762       362.5036 
  79   0.0000      13.336576       362.9067 
  80   0.0000      13.345703       363.1550 
  81   0.0000      13.366258       363.7144 
  82   0.0000      13.366279       363.7150 
  83   0.0000      13.376293       363.9875 
  84   0.0000      14.823776       403.3754 
  85   0.0000      14.824009       403.3818 
  86   0.0000      14.831357       403.5817 
  87   0.0000      14.832804       403.6211 
  88   0.0000      14.836973       403.7346 
  89   0.0000      14.841920       403.8692 
  90   0.0000      14.842947       403.8971 
  91   0.0000      14.851875       404.1401 
  92   0.0000      14.851960       404.1424 

                    ********************************
                    * MULLIKEN POPULATION ANALYSIS *
                    ********************************

--------------------------------------------
MULLIKEN ATOMIC CHARGES AND SPIN POPULATIONS
--------------------------------------------
   0 Ni:    0.000000    2.000000
Sum of atomic charges         :    0.0000000
Sum of atomic spin populations:    2.0000000

-----------------------------------------------------
MULLIKEN REDUCED ORBITAL CHARGES AND SPIN POPULATIONS
-----------------------------------------------------
CHARGE
  0 Nis       :     6.999713  s :     6.999713
      pz      :     3.999735  p :    11.999522
      px      :     3.999964
      py      :     3.999824
      dz2     :     1.122146  d :     9.000166
      dxz     :     1.999975
      dyz     :     1.999990
      dx2y2   :     1.878075
      dxy     :     1.999980
      f0      :     0.000235  f :     0.000478
      f+1     :     0.000026
      f-1     :     0.000152
      f+2     :     0.000031
      f-2     :     0.000000
      f+3     :     0.000011
      f-3     :     0.000024
      g0      :     0.000038  g :     0.000121
      g+1     :     0.000020
      g-1     :     0.000006
      g+2     :     0.000018
      g-2     :     0.000010
      g+3     :     0.000005
      g-3     :     0.000004
      g+4     :     0.000010
      g-4     :     0.000010

SPIN
  0 Nis       :     0.999721  s :     0.999721
      pz      :     0.000158  p :     0.000295
      px      :    -0.000009
      py      :     0.000145
      dz2     :     0.878138  d :     1.000244
      dxz     :    -0.000018
      dyz     :    -0.000005
      dx2y2   :     0.122128
      dxy     :     0.000001
      f0      :    -0.000132  f :    -0.000295
      f+1     :    -0.000002
      f-1     :    -0.000152
      f+2     :    -0.000027
      f-2     :    -0.000000
      f+3     :     0.000010
      f-3     :     0.000007
      g0      :     0.000016  g :     0.000036
      g+1     :     0.000020
      g-1     :     0.000004
      g+2     :    -0.000012
      g-2     :    -0.000010
      g+3     :    -0.000002
      g-3     :     0.000001
      g+4     :     0.000009
      g-4     :     0.000009


                     *******************************
                     * LOEWDIN POPULATION ANALYSIS *
                     *******************************

-------------------------------------------
LOEWDIN ATOMIC CHARGES AND SPIN POPULATIONS
-------------------------------------------
   0 Ni:    0.000000    2.000000

----------------------------------------------------
LOEWDIN REDUCED ORBITAL CHARGES AND SPIN POPULATIONS
----------------------------------------------------
CHARGE
  0 Nis       :     6.999713  s :     6.999713
      pz      :     3.999735  p :    11.999522
      px      :     3.999964
      py      :     3.999824
      dz2     :     1.122146  d :     9.000166
      dxz     :     1.999975
      dyz     :     1.999990
      dx2y2   :     1.878075
      dxy     :     1.999980
      f0      :     0.000235  f :     0.000478
      f+1     :     0.000026
      f-1     :     0.000152
      f+2     :     0.000031
      f-2     :     0.000000
      f+3     :     0.000011
      f-3     :     0.000024
      g0      :     0.000038  g :     0.000121
      g+1     :     0.000020
      g-1     :     0.000006
      g+2     :     0.000018
      g-2     :     0.000010
      g+3     :     0.000005
      g-3     :     0.000004
      g+4     :     0.000010
      g-4     :     0.000010

SPIN
  0 Nis       :     0.999721  s :     0.999721
      pz      :     0.000158  p :     0.000295
      px      :    -0.000009
      py      :     0.000145
      dz2     :     0.878138  d :     1.000244
      dxz     :    -0.000018
      dyz     :    -0.000005
      dx2y2   :     0.122128
      dxy     :     0.000001
      f0      :    -0.000132  f :    -0.000295
      f+1     :    -0.000002
      f-1     :    -0.000152
      f+2     :    -0.000027
      f-2     :    -0.000000
      f+3     :     0.000010
      f-3     :     0.000007
      g0      :     0.000016  g :     0.000036
      g+1     :     0.000020
      g-1     :     0.000004
      g+2     :    -0.000012
      g-2     :    -0.000010
      g+3     :    -0.000002
      g-3     :     0.000001
      g+4     :     0.000009
      g-4     :     0.000009


                      *****************************
                      * MAYER POPULATION ANALYSIS *
                      *****************************

  NA   - Mulliken gross atomic population
  ZA   - Total nuclear charge
  QA   - Mulliken gross atomic charge
  VA   - Mayer's total valence
  BVA  - Mayer's bonded valence
  FA   - Mayer's free valence

  ATOM       NA         ZA         QA         VA         BVA        FA
  0 Ni    28.0000    28.0000     0.0000     2.0019     0.0000     2.0019

  Mayer bond orders larger than 0.100000


-------
TIMINGS
-------

Total SCF time: 0 days 0 hours 1 min 14 sec 

Total time                  ....      74.059 sec
Sum of individual times     ....      73.761 sec  ( 99.6%)

Fock matrix formation       ....      73.524 sec  ( 99.3%)
Diagonalization             ....       0.050 sec  (  0.1%)
Density matrix formation    ....       0.006 sec  (  0.0%)
Population analysis         ....       0.004 sec  (  0.0%)
Initial guess               ....       0.154 sec  (  0.2%)
Orbital Transformation      ....       0.000 sec  (  0.0%)
Orbital Orthonormalization  ....       0.000 sec  (  0.0%)
DIIS solution               ....       0.000 sec  (  0.0%)


           ************************************************************
           *        Program running with 24 parallel MPI-processes    *
           *              working on a common directory               *
           ************************************************************


------------------------------------------------------------------------------- 
                              ORCA-MATRIX DRIVEN CI                            
------------------------------------------------------------------------------- 

--------------------------------
AUTOMATIC CHOICE OF INCORE LEVEL
--------------------------------

Memory available                           ...   2500.00 MB
Memory needed for S+T                      ...      7.66 MB
Memory needed for J+K                      ...     15.38 MB
Memory needed for DIIS                     ...    107.22 MB
Memory needed for 3-ext                    ...     36.21 MB
Memory needed for 4-ext                    ...    143.01 MB
Memory needed for triples                  ...     18.10 MB
 -> Final InCoreLevel    ... 5
 -> check shows that triples correction can be computed


Wavefunction type
-----------------
Correlation treatment                      ...      CCSD     
Single excitations                         ... ON
Orbital optimization                       ... OFF
Calculation of Z vector                    ... OFF
Calculation of Brueckner orbitals          ... OFF
Perturbative triple excitations            ... ON
Calculation of F12 correction              ... OFF
Frozen core treatment                      ... chemical core (10 el)
Reference Wavefunction                     ... UHF
  Alpha-MOs occ    :     5 ...   14 ( 10 MO's/ 10 electrons)
  Beta-MOs occ     :     5 ...   12 (  8 MO's/  8 electrons)
  Alpha-MOs virt   :    15 ...   92 ( 78 MO's              )
  Beta-MOs virt    :    13 ...   92 ( 80 MO's              )
Number of AO's                             ...     93
Number of electrons                        ...     28
Number of correlated electrons             ...     18

Algorithmic settings
--------------------
Integral transformation                    ... AO direct full transformation
K(C) Formation                             ... FULL-MO TRAFO
Maximum number of iterations               ...        50
Convergence tolerance (max. residuum)      ... 1.000e-05
Level shift for amplitude update           ... 2.000e-01
Maximum number of DIIS vectors             ...         7
DIIS turned on at iteration                ...         0
Damping before turning on DIIS             ...     0.500
Damping after turning on DIIS              ...     0.000
Pair specific amplitude update             ... OFF
Natural orbital iterations                 ... OFF
Perturbative natural orbital generation    ... OFF
Printlevel                                 ... 2

Memory handling:
----------------
Maximum memory for working arrays          ...   2500 MB
Data storage in matrix containers          ... UNCOMPRESSED
Data type for integral storage             ... DOUBLE
In-Core Storage of quantities:
   Amplitudes+Sigma Vector      ... YES
   J+K operators                ... YES
   DIIS vectors                 ... YES
   3-external integrals         ... YES
   4-external integrals         ... YES


Initializing the integral package          ... done
Warning: reference  - re-canonicalizations have been set to INT 1 VIRT 1

--------------------------
UNRESTRICTED FOCK OPERATOR
--------------------------

<ss|ss>:          666 b            0 skpd (  0.0%)    0.113 s ( 0.169 ms/b)
<ss|sp>:         2016 b            0 skpd (  0.0%)    0.734 s ( 0.364 ms/b)
<ss|sd>:         1440 b            0 skpd (  0.0%)    0.356 s ( 0.247 ms/b)
<ss|sf>:          864 b            0 skpd (  0.0%)    0.032 s ( 0.037 ms/b)
<ss|sg>:          576 b            0 skpd (  0.0%)    0.035 s ( 0.061 ms/b)
<ss|pp>:         1008 b            0 skpd (  0.0%)    0.412 s ( 0.409 ms/b)
<ss|pd>:         1260 b            0 skpd (  0.0%)    0.229 s ( 0.182 ms/b)
<ss|pf>:          756 b            0 skpd (  0.0%)    0.032 s ( 0.042 ms/b)
<ss|pg>:          504 b            0 skpd (  0.0%)    0.042 s ( 0.083 ms/b)
<ss|dd>:          540 b            0 skpd (  0.0%)    0.102 s ( 0.189 ms/b)
<ss|df>:          540 b            0 skpd (  0.0%)    0.016 s ( 0.030 ms/b)
<ss|dg>:          360 b            0 skpd (  0.0%)    0.024 s ( 0.065 ms/b)
<ss|ff>:          216 b            0 skpd (  0.0%)    0.003 s ( 0.015 ms/b)
<ss|fg>:          216 b            0 skpd (  0.0%)    0.005 s ( 0.023 ms/b)
<ss|gg>:          108 b            0 skpd (  0.0%)    0.007 s ( 0.065 ms/b)
<sp|sp>:         1596 b            4 skpd (  0.3%)    0.697 s ( 0.438 ms/b)
<sp|sd>:         2240 b            7 skpd (  0.3%)    0.521 s ( 0.233 ms/b)
<sp|sf>:         1344 b            7 skpd (  0.5%)    0.046 s ( 0.034 ms/b)
<sp|sg>:          896 b            1 skpd (  0.1%)    0.060 s ( 0.067 ms/b)
<sp|pp>:         1568 b            2 skpd (  0.1%)    0.543 s ( 0.347 ms/b)
<sp|pd>:         1960 b            4 skpd (  0.2%)    0.330 s ( 0.169 ms/b)
<sp|pf>:         1176 b            7 skpd (  0.6%)    0.057 s ( 0.049 ms/b)
<sp|pg>:          784 b            3 skpd (  0.4%)    0.078 s ( 0.099 ms/b)
<sp|dd>:          840 b            0 skpd (  0.0%)    0.198 s ( 0.235 ms/b)
<sp|df>:          840 b            3 skpd (  0.4%)    0.037 s ( 0.045 ms/b)
<sp|dg>:          560 b            2 skpd (  0.4%)    0.053 s ( 0.096 ms/b)
<sp|ff>:          336 b            0 skpd (  0.0%)    0.008 s ( 0.025 ms/b)
<sp|fg>:          336 b            0 skpd (  0.0%)    0.012 s ( 0.035 ms/b)
<sp|gg>:          168 b            0 skpd (  0.0%)    0.017 s ( 0.099 ms/b)
<sd|sd>:          820 b            3 skpd (  0.4%)    0.108 s ( 0.132 ms/b)
<sd|sf>:          960 b            7 skpd (  0.7%)    0.021 s ( 0.022 ms/b)
<sd|sg>:          640 b            3 skpd (  0.5%)    0.031 s ( 0.048 ms/b)
<sd|pp>:         1120 b            9 skpd (  0.8%)    0.227 s ( 0.204 ms/b)
<sd|pd>:         1400 b           11 skpd (  0.8%)    0.178 s ( 0.128 ms/b)
<sd|pf>:          840 b           14 skpd (  1.7%)    0.032 s ( 0.039 ms/b)
<sd|pg>:          560 b           11 skpd (  2.0%)    0.056 s ( 0.101 ms/b)
<sd|dd>:          600 b            0 skpd (  0.0%)    0.116 s ( 0.194 ms/b)
<sd|df>:          600 b            4 skpd (  0.7%)    0.029 s ( 0.049 ms/b)
<sd|dg>:          400 b            2 skpd (  0.5%)    0.045 s ( 0.114 ms/b)
<sd|ff>:          240 b            1 skpd (  0.4%)    0.008 s ( 0.032 ms/b)
<sd|fg>:          240 b            1 skpd (  0.4%)    0.011 s ( 0.046 ms/b)
<sd|gg>:          120 b            0 skpd (  0.0%)    0.016 s ( 0.135 ms/b)
<sf|sf>:          300 b            1 skpd (  0.3%)    0.005 s ( 0.018 ms/b)
<sf|sg>:          384 b            0 skpd (  0.0%)    0.008 s ( 0.022 ms/b)
<sf|pp>:          672 b            1 skpd (  0.1%)    0.056 s ( 0.083 ms/b)
<sf|pd>:          840 b            3 skpd (  0.4%)    0.044 s ( 0.053 ms/b)
<sf|pf>:          504 b            4 skpd (  0.8%)    0.009 s ( 0.018 ms/b)
<sf|pg>:          336 b            2 skpd (  0.6%)    0.018 s ( 0.052 ms/b)
<sf|dd>:          360 b            0 skpd (  0.0%)    0.034 s ( 0.095 ms/b)
<sf|df>:          360 b            1 skpd (  0.3%)    0.010 s ( 0.027 ms/b)
<sf|dg>:          240 b            2 skpd (  0.8%)    0.016 s ( 0.065 ms/b)
<sf|ff>:          144 b            0 skpd (  0.0%)    0.003 s ( 0.020 ms/b)
<sf|fg>:          144 b            0 skpd (  0.0%)    0.004 s ( 0.029 ms/b)
<sf|gg>:           72 b            0 skpd (  0.0%)    0.006 s ( 0.083 ms/b)
<sg|sg>:          136 b            0 skpd (  0.0%)    0.011 s ( 0.084 ms/b)
<sg|pp>:          448 b            1 skpd (  0.2%)    0.068 s ( 0.152 ms/b)
<sg|pd>:          560 b            3 skpd (  0.5%)    0.059 s ( 0.106 ms/b)
<sg|pf>:          336 b            1 skpd (  0.3%)    0.012 s ( 0.036 ms/b)
<sg|pg>:          224 b            1 skpd (  0.4%)    0.024 s ( 0.109 ms/b)
<sg|dd>:          240 b            0 skpd (  0.0%)    0.046 s ( 0.192 ms/b)
<sg|df>:          240 b            1 skpd (  0.4%)    0.013 s ( 0.055 ms/b)
<sg|dg>:          160 b            0 skpd (  0.0%)    0.022 s ( 0.139 ms/b)
<sg|ff>:           96 b            0 skpd (  0.0%)    0.004 s ( 0.038 ms/b)
<sg|fg>:           96 b            0 skpd (  0.0%)    0.006 s ( 0.058 ms/b)
<sg|gg>:           48 b            0 skpd (  0.0%)    0.008 s ( 0.174 ms/b)
<pp|pp>:          406 b            0 skpd (  0.0%)    0.325 s ( 0.800 ms/b)
<pp|pd>:          980 b            0 skpd (  0.0%)    0.267 s ( 0.272 ms/b)
<pp|pf>:          588 b            0 skpd (  0.0%)    0.048 s ( 0.082 ms/b)
<pp|pg>:          392 b            0 skpd (  0.0%)    0.077 s ( 0.197 ms/b)
<pp|dd>:          420 b            0 skpd (  0.0%)    0.170 s ( 0.405 ms/b)
<pp|df>:          420 b            0 skpd (  0.0%)    0.041 s ( 0.099 ms/b)
<pp|dg>:          280 b            0 skpd (  0.0%)    0.065 s ( 0.231 ms/b)
<pp|ff>:          168 b            0 skpd (  0.0%)    0.011 s ( 0.068 ms/b)
<pp|fg>:          168 b            0 skpd (  0.0%)    0.015 s ( 0.091 ms/b)
<pp|gg>:           84 b            0 skpd (  0.0%)    0.024 s ( 0.281 ms/b)
<pd|pd>:          630 b            0 skpd (  0.0%)    0.224 s ( 0.355 ms/b)
<pd|pf>:          735 b            0 skpd (  0.0%)    0.050 s ( 0.068 ms/b)
<pd|pg>:          490 b            1 skpd (  0.2%)    0.092 s ( 0.189 ms/b)
<pd|dd>:          525 b            0 skpd (  0.0%)    0.184 s ( 0.351 ms/b)
<pd|df>:          525 b            0 skpd (  0.0%)    0.052 s ( 0.100 ms/b)
<pd|dg>:          350 b            2 skpd (  0.6%)    0.079 s ( 0.228 ms/b)
<pd|ff>:          210 b            0 skpd (  0.0%)    0.013 s ( 0.064 ms/b)
<pd|fg>:          210 b            0 skpd (  0.0%)    0.020 s ( 0.096 ms/b)
<pd|gg>:          105 b            0 skpd (  0.0%)    0.030 s ( 0.290 ms/b)
<pf|pf>:          231 b            0 skpd (  0.0%)    0.013 s ( 0.057 ms/b)
<pf|pg>:          294 b            0 skpd (  0.0%)    0.026 s ( 0.087 ms/b)
<pf|dd>:          315 b            0 skpd (  0.0%)    0.047 s ( 0.148 ms/b)
<pf|df>:          315 b            0 skpd (  0.0%)    0.014 s ( 0.044 ms/b)
<pf|dg>:          210 b            0 skpd (  0.0%)    0.023 s ( 0.109 ms/b)
<pf|ff>:          126 b            0 skpd (  0.0%)    0.005 s ( 0.037 ms/b)
<pf|fg>:          126 b            0 skpd (  0.0%)    0.007 s ( 0.053 ms/b)
<pf|gg>:           63 b            0 skpd (  0.0%)    0.010 s ( 0.152 ms/b)
<pg|pg>:          105 b            0 skpd (  0.0%)    0.034 s ( 0.321 ms/b)
<pg|dd>:          210 b            0 skpd (  0.0%)    0.065 s ( 0.309 ms/b)
<pg|df>:          210 b            0 skpd (  0.0%)    0.018 s ( 0.087 ms/b)
<pg|dg>:          140 b            0 skpd (  0.0%)    0.030 s ( 0.215 ms/b)
<pg|ff>:           84 b            0 skpd (  0.0%)    0.005 s ( 0.062 ms/b)
<pg|fg>:           84 b            0 skpd (  0.0%)    0.008 s ( 0.096 ms/b)
<pg|gg>:           42 b            0 skpd (  0.0%)    0.012 s ( 0.290 ms/b)
<dd|dd>:          120 b            0 skpd (  0.0%)    0.070 s ( 0.582 ms/b)
<dd|df>:          225 b            0 skpd (  0.0%)    0.021 s ( 0.092 ms/b)
<dd|dg>:          150 b            0 skpd (  0.0%)    0.034 s ( 0.227 ms/b)
<dd|ff>:           90 b            0 skpd (  0.0%)    0.006 s ( 0.066 ms/b)
<dd|fg>:           90 b            0 skpd (  0.0%)    0.009 s ( 0.100 ms/b)
<dd|gg>:           45 b            0 skpd (  0.0%)    0.013 s ( 0.292 ms/b)
<df|df>:          120 b            0 skpd (  0.0%)    0.009 s ( 0.073 ms/b)
<df|dg>:          150 b            0 skpd (  0.0%)    0.014 s ( 0.094 ms/b)
<df|ff>:           90 b            0 skpd (  0.0%)    0.004 s ( 0.042 ms/b)
<df|fg>:           90 b            0 skpd (  0.0%)    0.005 s ( 0.058 ms/b)
<df|gg>:           45 b            0 skpd (  0.0%)    0.007 s ( 0.161 ms/b)
<dg|dg>:           55 b            0 skpd (  0.0%)    0.016 s ( 0.297 ms/b)
<dg|ff>:           60 b            0 skpd (  0.0%)    0.003 s ( 0.058 ms/b)
<dg|fg>:           60 b            0 skpd (  0.0%)    0.005 s ( 0.091 ms/b)
<dg|gg>:           30 b            0 skpd (  0.0%)    0.008 s ( 0.283 ms/b)
<ff|ff>:           21 b            0 skpd (  0.0%)    0.001 s ( 0.051 ms/b)
<ff|fg>:           36 b            0 skpd (  0.0%)    0.002 s ( 0.060 ms/b)
<ff|gg>:           18 b            0 skpd (  0.0%)    0.003 s ( 0.157 ms/b)
<fg|fg>:           21 b            0 skpd (  0.0%)    0.003 s ( 0.130 ms/b)
<fg|gg>:           18 b            0 skpd (  0.0%)    0.005 s ( 0.274 ms/b)
<gg|gg>:            6 b            0 skpd (  0.0%)    0.004 s ( 0.606 ms/b)
Recanonicalizing the internal orbitals
Recanonicalizing the virtual orbitals
Time needed for Fock operator              ...            8.548 sec
Reference energy                           ...  -1506.828387460
Warning: for UHF the TrafoType has to be JK
Warning: for UHF the K(C)-option cannot be MO but must be AOX

-------------------------------
PARTIAL EXCHANGE TRANSFORMATION
-------------------------------

Transformation type                        ... two-operators
Generation of integrals (i,mue|j,nue)      ... ON
Generation of integrals (mue,kappa|nue,tau)... ON
Generation of integrals (i,mue|a,nue)      ... ON
Dimension of the basis                     ...   93
Number of internal alpha-MOs               ...   10 (   5-  14)
Number of internal beta-MOs                ...    8 (   5-  12)
Number of external alpha-MOs               ...   78 (  15-  92)
Number of external beta-MOs                ...   80 (  13-  92)
Pair cutoff                                ... 0.000e+00 Eh
Number of AO pairs in the trafo            ... 4371
Total Number of distinct AO pairs          ... 4371
Memory devoted for trafo                   ... 2500.0 MB 
Max. Number of MO pairs treated together   ... 37886      
Number Format for Storage                  ... Double (8 Byte)
Integral package used                      ... LIBINT

Starting integral evaluation:
    ... done with AO integral generation
Closing buffer AOK[aa] ( 0.00 GB; CompressionRatio= 0.99)
Closing buffer AOK[bb] ( 0.00 GB; CompressionRatio= 0.98)
Closing buffer AOK[ab] ( 0.00 GB; CompressionRatio= 0.98)
Closing buffer AOK[ba] ( 0.00 GB; CompressionRatio= 0.98)
Collecting buffer AOK 
Closing buffer IAAO1[aa] ( 0.00 GB; CompressionRatio= 1.00)
Closing buffer IAAO1[bb] ( 0.00 GB; CompressionRatio= 1.00)
Closing buffer IAAO1[ab] ( 0.00 GB; CompressionRatio= 1.00)
Closing buffer IAAO1[ba] ( 0.00 GB; CompressionRatio= 1.00)
Closing buffer IAAO2[aa] ( 0.00 GB; CompressionRatio= 1.00)
Closing buffer IAAO2[bb] ( 0.00 GB; CompressionRatio= 1.00)
Closing buffer IAAO2[ab] ( 0.00 GB; CompressionRatio= 1.00)
Closing buffer IAAO2[ba] ( 0.00 GB; CompressionRatio= 1.00)
Collecting buffer IAAO 
Closing buffer PRQS    ( 0.00 GB; CompressionRatio= 1.00)
Collecting buffer PRQS 
Number of alpha/alpha MO pairs in trafo    ...   55
Number of beta /beta  MO pairs in trafo    ...   36
Number of alpha/ beta MO pairs in trafo    ...   80
------------------------
SORTING OF (i,mue|j,nue)
------------------------

SORTING OF ALPHA/ALPHA PAIRS
IBATCH = 1 of  1
Closing buffer KAO[aa] ( 0.00 GB; CompressionRatio= 1.00)
Collecting buffer KAO 
SORTING OF BETA /BETA  PAIRS
IBATCH = 1 of  1
Closing buffer KAO[bb] ( 0.00 GB; CompressionRatio= 1.00)
Collecting buffer KAO 
SORTING OF ALPHA/BETA  PAIRS
IBATCH = 1 of  1
Closing buffer KAO[ab] ( 0.00 GB; CompressionRatio= 0.999826599619)
Collecting buffer KAO[ab] 
------------------------
SORTING OF (i,mue|a,nue)
------------------------

Number of alpha/alpha (i,a) pairs in trafo  ...  780
Number of beta /beta  (i,a) pairs in trafo  ...  640
Number of alpha/ beta (i,a) pairs in trafo  ...  800
Number of beta /alpha (i,a) pairs in trafo  ...  624
Setting up the alpha/alpha list             ... done
Setting up the beta /beta  list             ... done
Setting up the alpha/beta  list             ... done
Setting up the beta /alpha list             ... done
    ... Now sorting (i,mue|a,nue)integrals
    ... Integrals (i,b|a,c) will be made on the fly
SORTING OF ALPHA/ALPHA PAIRS
IBATCH = 1 of  1
Closing buffer IPAQ[aa]  0.00 GB; CompressionRatio= 1.00)
SORTING OF BETA /BETA  PAIRS
IBATCH = 1 of  1
Closing buffer IPAQ[bb]( 0.00 GB; CompressionRatio= 1.00)
SORTING OF ALPHA/BETA  PAIRS (NMatSort_ab=34)
IBATCH = 1 of  1
Closing buffer IPAQ[ab]( 0.00 GB; CompressionRatio= 1.00)
SORTING OF BETA/ALPHA  PAIRS
IBATCH = 1 of  1
Closing buffer IPAQ[ba]( 0.00 GB; CompressionRatio= 1.00)
N(AO-Batches) Done                         ...      1250 
N(AO-Batches) Skipped                      ...         0 
N(IJ)-pairs Skipped                        ...         0 
TOTAL TIME for half transformation         ...    39.701 sec
AO-integral generation                     ...     1.083 sec
Half transformation                        ...     0.003 sec
K-integral sorting                         ...     0.572 sec
<ss|**>: 
------------------------------
PARTIAL COULOMB TRANSFORMATION
------------------------------

Transformation type                        ... two-operators
Dimension of the basis                     ...   93
Number of internal alpha-MOs               ...   10 (5-14)
Number of internal beta-MOs                ...    8 (5-12)
Pair cutoff                                ... 0.000e+00 Eh
Number of AO pairs included in the trafo   ... 4371
Total Number of distinct AO pairs          ... 4371
Memory devoted for trafo                   ... 2500.0 MB 
Max. Number of MO pairs treated together   ... 74966      
Max. Number of MOs treated per batch       ...  806      
Number Format for Storage                  ... Double (8 Byte)
AO-integral source                         ... DIRECT
Integral package used                      ... LIBINT

Starting integral evaluation:
<sp|**>:        11700 b        0 skpd     2.444 s (  0.209 ms/b)
<sd|**>:        18200 b        0 skpd     3.346 s (  0.184 ms/b)
<sf|**>:        13000 b        0 skpd     1.945 s (  0.150 ms/b)
<sg|**>:         7800 b        0 skpd     0.235 s (  0.030 ms/b)
<pp|**>:         5200 b        0 skpd     0.384 s (  0.074 ms/b)
        9100 b        0 skpd     2.173 s (  0.239 ms/b)
<pd|**>:        11375 b        0 skpd     1.645 s (  0.145 ms/b)
<pf|**>:         6825 b        0 skpd     0.314 s (  0.046 ms/b)
<pg|**>:         4550 b        0 skpd     0.529 s (  0.116 ms/b)
<dd|**>:         4875 b        0 skpd     1.105 s (  0.227 ms/b)
<df|**>:         4875 b        0 skpd     0.270 s (  0.055 ms/b)
<dg|**>:         3250 b        0 skpd     0.425 s (  0.131 ms/b)
<ff|**>:         1950 b        0 skpd     0.072 s (  0.037 ms/b)
<fg|**>:         1950 b        0 skpd     0.106 s (  0.054 ms/b)
<gg|**>:          975 b        0 skpd     0.158 s (  0.162 ms/b)
Closing buffer AOJ[aa] ( 0.00 GB; CompressionRatio= 0.97)
Closing buffer AOJ[bb] ( 0.00 GB; CompressionRatio= 0.00)
Collecting buffer AOJ 
    ... done with AO integral generation
Number of Alpha-MO pairs included          ...   55
Number of Beta-MO pairs included           ...   36
    ... Now sorting integrals
SORTING ALPHA/ALPHA PAIRS
IBATCH = 1 of  1
Closing buffer JAO[aa] ( 0.00 GB; CompressionRatio= 1.00)
SORTING BETA/BETA PAIRS
IBATCH = 1 of  1
Closing buffer JAO[bb] ( 0.00 GB; CompressionRatio= 1.00)
Collecting buffer JAO 
TOTAL TIME for half transformation         ...    15.181 sec
AO-integral generation                     ...    15.143 sec
Half transformation                        ...     0.009 sec
J-integral sorting                         ...     0.020 sec

-------------------------- SECOND HALF TRANSFORMATION -------------------------
Formation of (ij|kl),(ij|ka), (ij|ab)      ... ok (     0.042 sec)
Formation of (ik|jl),(ik|ja), (ia|jb)      ... ok (     0.066 sec)


-----------------------
SPIN UNRESTRICTED GUESS
-----------------------

Entering MDCI_UHF_Guess, Tailored=0
Spin-components of the MP2 energy:
EMP2(aa)=     -0.159123375
EMP2(bb)=     -0.111357987
EMP2(ab)=     -0.532602662

Initial guess performed in     0.026 sec
E(0)                                       ...  -1506.828387460
E(MP2)                                     ...     -0.803084024
Initial E(tot)                             ...  -1507.631471485
<T|T>                                      ...      0.116375991
Number of pairs included                   ... 153

------------------------------------------------
                  UHF COUPLED CLUSTER ITERATIONS
------------------------------------------------

Number of amplitudes to be optimized       ...       726400

Iter       E(tot)           E(Corr)          Delta-E          Residual     Time      <S|S>**1/2
  0  -1507.631471485     -0.803084024     -0.000000000      0.041803313    6.29      0.000007006
                           *** Turning on DIIS ***
  1  -1507.503290372     -0.674902912      0.128181113      0.014751034    8.47      0.080383312
  2  -1507.544620971     -0.716233510     -0.041330599      0.007225253    8.48      0.061563139
  3  -1507.543859931     -0.715472471      0.000761040      0.004459385    8.49      0.076619570
  4  -1507.545189968     -0.716802508     -0.001330037      0.002524664    8.51      0.083702298
  5  -1507.546083979     -0.717696519     -0.000894011      0.000877701    8.53      0.090488983
  6  -1507.546263407     -0.717875946     -0.000179428      0.000345119    8.54      0.093062369
  7  -1507.546267095     -0.717879635     -0.000003688      0.000103814    8.53      0.094185042
  8  -1507.546283711     -0.717896251     -0.000016616      0.000032773    8.51      0.094369316
  9  -1507.546287353     -0.717899892     -0.000003642      0.000012549    8.51      0.094448861
 10  -1507.546283430     -0.717895970      0.000003922      0.000007371    8.51      0.094455740
               --- The Coupled-Cluster iterations have converged ---

----------------------
COUPLED CLUSTER ENERGY
----------------------

E(0)                                       ...  -1506.828387460
E(CORR)                                    ...     -0.717895970
E(TOT)                                     ...  -1507.546283430
Singles norm <S|S>**1/2                    ...      0.094455740 ( 0.059607154, 0.034848586)  
T1 diagnostic                              ...      0.022263431                              

------------------
LARGEST AMPLITUDES
------------------
  14a-> 27a  -1a-> -1a       0.058666
  14a-> 18a  -1a-> -1a       0.043365
   9b-> 31b  -1b-> -1b       0.031807
  10b-> 32b  -1b-> -1b       0.031642
  14a-> 36a  -1a-> -1a       0.031130
  11b-> 33b  -1b-> -1b       0.031064
  12b-> 34b  -1b-> -1b       0.030682
  13a-> 35a  -1a-> -1a       0.026823
  12a-> 34a  -1a-> -1a       0.026598
   9a-> 31a  -1a-> -1a       0.025896
  11a-> 33a  -1a-> -1a       0.025746
  10a-> 32a  -1a-> -1a       0.023616
  12b-> 25b  -1b-> -1b       0.021835
  11b-> 24b  -1b-> -1b       0.021642
  13a-> 51a  12b-> 50b       0.021278
  12a-> 50a  11b-> 49b       0.021179

----------------------
UHF TRIPLES CORRECTION (Algorithm 1)
----------------------

Multiplier for the singles contribution    ...      1.000000000

SPIN-CASE Alpha-Alpha-Alpha:
10% done
20% done
30% done
40% done
50% done
60% done
70% done
80% done
90% done


SPIN-CASE Beta-Beta-Beta:
10% done
20% done
30% done
40% done
50% done
60% done
70% done
80% done
90% done


SPIN-CASE Alpha-Alpha-Beta:
10% done
20% done
30% done
40% done
50% done
60% done
70% done
80% done
90% done


SPIN-CASE Beta-Beta-Alpha:
10% done
20% done
30% done
40% done
50% done
60% done
70% done
80% done
90% done


Triples Correction (T)                     ...     -0.024877039
    alpha-alpha-alpha ... -0.001711096 (  6.9%)
    alpha-alpha-beta  ... -0.013251395 ( 53.3%)
    alpha-beta -beta  ... -0.009302227 ( 37.4%)
    beta -beta -beta  ... -0.000612321 (  2.5%)
Scaling of triples based on CCSD energies (Peterson et al. Molecular Physics 113, 1551 (2015))
E(T*) = f*E(T) where f = E(F12-CCSD)/E(CCSD) 
f = CCSD (with F12)/ CCSD (without F12)    ...      1.000000000
Scaled triples correction (T)              ...     -0.024877039

Final correlation energy                   ...     -0.742773009
E(CCSD)                                    ...  -1507.546283430
E(CCSD(T))                                 ...  -1507.571160470



        !!!!!!!!!!!!!!!!!!!!!!!!!!!!!!!!!!!!!!!!!!!!!!!!!!!!!!!!!!!!!!!!!!!!!!!!!! 
        !  Warning: Densities are linearized densities                           !
        !!!!!!!!!!!!!!!!!!!!!!!!!!!!!!!!!!!!!!!!!!!!!!!!!!!!!!!!!!!!!!!!!!!!!!!!!! 

NORM  =      1.111545984 sqrt=     1.054298812
W(HF) =      0.899647891
------------------------------------------------------------------------------
                           ORCA POPULATION ANALYSIS
------------------------------------------------------------------------------
Input electron density              ... 28_Ni.mdcip
Input spin density                  ... 28_Ni.mdcir
BaseName (.gbw .S,...)              ... 28_Ni

                    ********************************
                    * MULLIKEN POPULATION ANALYSIS *
                    ********************************

------------------------------------------
MULLIKEN ATOMIC CHARGES AND SPIN DENSITIES
------------------------------------------
   0 Ni:    0.000000    2.000000
Sum of atomic charges       :    0.0000000
Sum of atomic spin densities:    2.0000000

---------------------------------------------------
MULLIKEN REDUCED ORBITAL CHARGES AND SPIN DENSITIES
---------------------------------------------------
CHARGE
  0 Nis       :     6.987907  s :     6.987907
      pz      :     4.002844  p :    12.014441
      px      :     4.007297
      py      :     4.004300
      dz2     :     1.122735  d :     8.955891
      dxz     :     1.988372
      dyz     :     1.989181
      dx2y2   :     1.867640
      dxy     :     1.987962
      f0      :     0.004538  f :     0.036984
      f+1     :     0.005092
      f-1     :     0.004776
      f+2     :     0.005662
      f-2     :     0.005758
      f+3     :     0.005579
      f-3     :     0.005580
      g0      :     0.000488  g :     0.004777
      g+1     :     0.000513
      g-1     :     0.000487
      g+2     :     0.000529
      g-2     :     0.000533
      g+3     :     0.000560
      g-3     :     0.000561
      g+4     :     0.000553
      g-4     :     0.000553

SPIN
  0 Nis       :     0.986165  s :     0.986165
      pz      :     0.004501  p :     0.009878
      px      :     0.001774
      py      :     0.003603
      dz2     :     0.868722  d :     1.000838
      dxz     :     0.002911
      dyz     :     0.001900
      dx2y2   :     0.123873
      dxy     :     0.003431
      f0      :     0.001278  f :     0.002577
      f+1     :     0.000624
      f-1     :     0.000905
      f+2     :    -0.000139
      f-2     :    -0.000268
      f+3     :     0.000089
      f-3     :     0.000089
      g0      :     0.000132  g :     0.000542
      g+1     :     0.000098
      g-1     :     0.000116
      g+2     :     0.000054
      g-2     :     0.000043
      g+3     :     0.000002
      g-3     :     0.000002
      g+4     :     0.000047
      g-4     :     0.000047


                     *******************************
                     * LOEWDIN POPULATION ANALYSIS *
                     *******************************

-----------------------------------------
LOEWDIN ATOMIC CHARGES AND SPIN DENSITIES
-----------------------------------------
   0 Ni:    0.000000    2.000000

--------------------------------------------------
LOEWDIN REDUCED ORBITAL CHARGES AND SPIN DENSITIES
--------------------------------------------------
CHARGE
  0 Nis       :     6.987907  s :     6.987907
      pz      :     4.002844  p :    12.014441
      px      :     4.007297
      py      :     4.004300
      dz2     :     1.122735  d :     8.955891
      dxz     :     1.988372
      dyz     :     1.989181
      dx2y2   :     1.867640
      dxy     :     1.987962
      f0      :     0.004538  f :     0.036984
      f+1     :     0.005092
      f-1     :     0.004776
      f+2     :     0.005662
      f-2     :     0.005758
      f+3     :     0.005579
      f-3     :     0.005580
      g0      :     0.000488  g :     0.004777
      g+1     :     0.000513
      g-1     :     0.000487
      g+2     :     0.000529
      g-2     :     0.000533
      g+3     :     0.000560
      g-3     :     0.000561
      g+4     :     0.000553
      g-4     :     0.000553

SPIN
  0 Nis       :     0.986165  s :     0.986165
      pz      :     0.004501  p :     0.009878
      px      :     0.001774
      py      :     0.003603
      dz2     :     0.868722  d :     1.000838
      dxz     :     0.002911
      dyz     :     0.001900
      dx2y2   :     0.123873
      dxy     :     0.003431
      f0      :     0.001278  f :     0.002577
      f+1     :     0.000624
      f-1     :     0.000905
      f+2     :    -0.000139
      f-2     :    -0.000268
      f+3     :     0.000089
      f-3     :     0.000089
      g0      :     0.000132  g :     0.000542
      g+1     :     0.000098
      g-1     :     0.000116
      g+2     :     0.000054
      g-2     :     0.000043
      g+3     :     0.000002
      g-3     :     0.000002
      g+4     :     0.000047
      g-4     :     0.000047


                      *****************************
                      * MAYER POPULATION ANALYSIS *
                      *****************************

  NA   - Mulliken gross atomic population
  ZA   - Total nuclear charge
  QA   - Mulliken gross atomic charge
  VA   - Mayer's total valence
  BVA  - Mayer's bonded valence
  FA   - Mayer's free valence

  ATOM       NA         ZA         QA         VA         BVA        FA
  0 Ni    28.0000    28.0000     0.0000     2.6803     0.0000     2.6803





------------------------------------------------------------------------------- 
                                     TIMINGS                                   
------------------------------------------------------------------------------- 


Total execution time                   ...      156.850 sec

Fock Matrix Formation                  ...        8.548 sec (  5.5%)
Initial Guess                          ...        0.026 sec (  0.0%)
DIIS Solver                            ...        0.660 sec (  0.4%)
State Vector Update                    ...        0.031 sec (  0.0%)
Sigma-vector construction              ...       90.690 sec ( 57.8%)
  <0|H|D>                              ...        0.002 sec (  0.0% of sigma)
  <D|H|D>(0-ext Fock)                  ...        0.011 sec (  0.0% of sigma)
  <D|H|D>(0-ext)                       ...        0.042 sec (  0.0% of sigma)
  <D|H|D>(2-ext Fock)                  ...        0.004 sec (  0.0% of sigma)
  <D|H|D>(2-ext)                       ...        0.167 sec (  0.2% of sigma)
  <D|H|D>(4-ext)                       ...        3.328 sec (  3.7% of sigma)
  <S|H|0>                              ...        0.469 sec (  0.5% of sigma)
  <S|H|S>                              ...        0.001 sec (  0.0% of sigma)
  <S|H|D>(1-ext)                       ...        0.004 sec (  0.0% of sigma)
  <D|H|S>(1-ext)                       ...        0.065 sec (  0.1% of sigma)
  Fock-dressing                        ...       84.596 sec ( 93.3% of sigma)
  (ik|jl)-dressing                     ...        0.050 sec (  0.1% of sigma)
  (ij|ab),(ia|jb)-dressing             ...        1.518 sec (  1.7% of sigma)
  Pair energies                        ...        0.003 sec (  0.0% of sigma)
Total Time for computing (T)           ...        1.426 sec (  0.9% of ALL)
  I/O of integral and amplitudes       ...        0.263 sec ( 18.5% of (T))
  External N**7 contributions          ...        0.374 sec ( 26.2% of (T))
  Internal N**7 contributions          ...        0.196 sec ( 13.8% of (T))
  N**6 triples energy contributions    ...        0.525 sec ( 36.9% of (T))


-------------------------   --------------------
FINAL SINGLE POINT ENERGY     -1507.571160469729
-------------------------   --------------------


                            ***************************************
                            *     ORCA property calculations      *
                            ***************************************

                                    ---------------------
                                    Active property flags
                                    ---------------------
   (+) Dipole Moment


------------------------------------------------------------------------------
                       ORCA ELECTRIC PROPERTIES CALCULATION
------------------------------------------------------------------------------

Dipole Moment Calculation                       ... on
Quadrupole Moment Calculation                   ... off
Polarizability Calculation                      ... off
GBWName                                         ... 28_Ni.gbw
Electron density file                           ... 28_Ni.scfp
The origin for moment calculation is the CENTER OF MASS  = ( 0.000000,  0.000000  0.000000)

-------------
DIPOLE MOMENT
-------------
                                X             Y             Z
Electronic contribution:     -0.00000      -0.00000      -0.00000
Nuclear contribution   :      0.00000       0.00000       0.00000
                        -----------------------------------------
Total Dipole Moment    :     -0.00000      -0.00000      -0.00000
                        -----------------------------------------
Magnitude (a.u.)       :      0.00000
Magnitude (Debye)      :      0.00000



--------------------
Rotational spectrum 
--------------------
 
Rotational constants in cm-1:     0.000000     0.000000     0.000000 
Rotational constants in MHz :     0.000000     0.000000     0.000000 

 Dipole components along the rotational axes: 
x,y,z [a.u.] :    -0.000000    -0.000000    -0.000000 
x,y,z [Debye]:    -0.000000    -0.000000    -0.000000 

 

                           *** MDCI DENSITY ***

------------------------------------------------------------------------------
                       ORCA ELECTRIC PROPERTIES CALCULATION
------------------------------------------------------------------------------

Dipole Moment Calculation                       ... on
Quadrupole Moment Calculation                   ... off
Polarizability Calculation                      ... off
GBWName                                         ... 28_Ni.gbw
Electron density file                           ... 28_Ni.mdcip
The origin for moment calculation is the CENTER OF MASS  = ( 0.000000,  0.000000  0.000000)

-------------
DIPOLE MOMENT
-------------
                                X             Y             Z
Electronic contribution:     -0.00000      -0.00000      -0.00000
Nuclear contribution   :      0.00000       0.00000       0.00000
                        -----------------------------------------
Total Dipole Moment    :     -0.00000      -0.00000      -0.00000
                        -----------------------------------------
Magnitude (a.u.)       :      0.00000
Magnitude (Debye)      :      0.00000



--------------------
Rotational spectrum 
--------------------
 
Rotational constants in cm-1:     0.000000     0.000000     0.000000 
Rotational constants in MHz :     0.000000     0.000000     0.000000 

 Dipole components along the rotational axes: 
x,y,z [a.u.] :    -0.000000    -0.000000    -0.000000 
x,y,z [Debye]:    -0.000000    -0.000000    -0.000000 

 

Timings for individual modules:

Sum of individual times         ...      235.104 sec (=   3.918 min)
GTO integral calculation        ...        2.983 sec (=   0.050 min)   1.3 %
SCF iterations                  ...       74.556 sec (=   1.243 min)  31.7 %
MDCI module                     ...      157.565 sec (=   2.626 min)  67.0 %
                             ****ORCA TERMINATED NORMALLY****
TOTAL RUN TIME: 0 days 0 hours 3 minutes 55 seconds 884 msec
