
                                 *****************
                                 * O   R   C   A *
                                 *****************

           --- An Ab Initio, DFT and Semiempirical electronic structure package ---

                  #######################################################
                  #                        -***-                        #
                  #          Department of theory and spectroscopy      #
                  #               Directorship: Frank Neese             #
                  #        Max Planck Institute fuer Kohlenforschung    #
                  #                Kaiser Wilhelm Platz 1               #
                  #                 D-45470 Muelheim/Ruhr               #
                  #                      Germany                        #
                  #                                                     #
                  #                  All rights reserved                #
                  #                        -***-                        #
                  #######################################################


                         Program Version 4.2.0 -  RELEASE  -


 With contributions from (in alphabetic order):
   Daniel Aravena         : Magnetic Suceptibility
   Michael Atanasov       : Ab Initio Ligand Field Theory (pilot matlab implementation)
   Alexander A. Auer      : GIAO ZORA, VPT2
   Ute Becker             : Parallelization
   Giovanni Bistoni       : ED, misc. LED, open-shell LED, HFLED
   Martin Brehm           : Molecular dynamics
   Dmytro Bykov           : SCF Hessian
   Vijay G. Chilkuri      : MRCI spin determinant printing, contributions to CSF-ICE
   Dipayan Datta          : RHF DLPNO-CCSD density
   Achintya Kumar Dutta   : EOM-CC, STEOM-CC
   Dmitry Ganyushin       : Spin-Orbit,Spin-Spin,Magnetic field MRCI
   Miquel Garcia          : C-PCM Hessian, Gaussian charge scheme
   Yang Guo               : DLPNO-NEVPT2, CIM, IAO-localization
   Andreas Hansen         : Spin unrestricted coupled pair/coupled cluster methods
   Benjamin Helmich-Paris : CASSCF linear response (MC-RPA)
   Lee Huntington         : MR-EOM, pCC
   Robert Izsak           : Overlap fitted RIJCOSX, COSX-SCS-MP3, EOM
   Christian Kollmar      : KDIIS, OOCD, Brueckner-CCSD(T), CCSD density
   Simone Kossmann        : Meta GGA functionals, TD-DFT gradient, OOMP2, MP2 Hessian
   Martin Krupicka        : AUTO-CI
   Lucas Lang             : DCDCAS
   Dagmar Lenk            : GEPOL surface, SMD
   Dimitrios Liakos       : Extrapolation schemes; Compound Job, initial MDCI parallelization
   Dimitrios Manganas     : Further ROCIS development; embedding schemes
   Dimitrios Pantazis     : SARC Basis sets
   Taras Petrenko         : DFT Hessian,TD-DFT gradient, ASA, ECA, R-Raman, ABS, FL, XAS/XES, NRVS
   Peter Pinski           : DLPNO-MP2, DLPNO-MP2 Gradient
   Christoph Reimann      : Effective Core Potentials
   Marius Retegan         : Local ZFS, SOC
   Christoph Riplinger    : Optimizer, TS searches, QM/MM, DLPNO-CCSD(T), (RO)-DLPNO pert. Triples
   Tobias Risthaus        : Range-separated hybrids, TD-DFT gradient, RPA, STAB
   Michael Roemelt        : Original ROCIS implementation
   Masaaki Saitow         : Open-shell DLPNO-CCSD energy and density
   Barbara Sandhoefer     : DKH picture change effects
   Avijit Sen             : IP-ROCIS
   Kantharuban Sivalingam : CASSCF convergence, NEVPT2, FIC-MRCI
   Bernardo de Souza      : ESD, SOC TD-DFT
   Georgi Stoychev        : AutoAux, RI-MP2 NMR
   Willem Van den Heuvel  : Paramagnetic NMR
   Boris Wezisla          : Elementary symmetry handling
   Frank Wennmohs         : Technical directorship


 We gratefully acknowledge several colleagues who have allowed us to
 interface, adapt or use parts of their codes:
   Stefan Grimme, W. Hujo, H. Kruse,             : VdW corrections, initial TS optimization,
                  C. Bannwarth                     DFT functionals, gCP, sTDA/sTD-DF
   Ed Valeev, F. Pavosevic, A. Kumar             : LibInt (2-el integral package), F12 methods
   Garnet Chan, S. Sharma, J. Yang, R. Olivares  : DMRG
   Ulf Ekstrom                                   : XCFun DFT Library
   Mihaly Kallay                                 : mrcc  (arbitrary order and MRCC methods)
   Andreas Klamt, Michael Diedenhofen            : otool_cosmo (COSMO solvation model)
   Jiri Pittner, Ondrej Demel                    : Mk-CCSD
   Frank Weinhold                                : gennbo (NPA and NBO analysis)
   Christopher J. Cramer and Donald G. Truhlar   : smd solvation model
   Lars Goerigk                                  : TD-DFT with DH, B97 family of functionals
   V. Asgeirsson, H. Jonsson                     : NEB implementation
   FAccTs GmbH                                   : IRC, NEB, NEB-TS, Multilevel, MM, QM/MM, CI optimization
   S Lehtola, MJT Oliveira, MAL Marques          : LibXC Library


 Your calculation uses the libint2 library for the computation of 2-el integrals
 For citations please refer to: http://libint.valeyev.net

 Your ORCA version has been built with support for libXC version: 4.2.3
 For citations please refer to: https://tddft.org/programs/libxc/

 This ORCA versions uses:
   CBLAS   interface :  Fast vector & matrix operations
   LAPACKE interface :  Fast linear algebra routines
   SCALAPACK package :  Parallel linear algebra routines


----- Orbital basis set information -----
Your calculation utilizes the basis: aug-cc-pVTZ 
    H, B-Ne : Obtained from the ccRepo (grant-hill.group.shef.ac.uk/ccrepo) Feb. 2017
              R. A. Kendall, T. H. Dunning, Jr., R. J. Harrison, J. Chem. Phys. 96, 6796 (1992)
         He : Obtained from the ccRepo (grant-hill.group.shef.ac.uk/ccrepo) Feb. 2017
              D. E. Woon, T. H. Dunning, Jr., J. Chem. Phys. 100, 2975 (1994)
  Li-Be, Na : Obtained from the ccRepo (grant-hill.group.shef.ac.uk/ccrepo) Feb. 2017
              B. P. Prascher, D. E. Woon, K. A. Peterson, T. H. Dunning, Jr., A. K. Wilson, Theor. Chem. Acc. 128, 69 (2011)
         Mg : Obtained from the Peterson Research Group Website (tyr0.chem.wsu.edu/~kipeters) Feb. 2017
              B. P. Prascher, D. E. Woon, K. A. Peterson, T. H. Dunning, Jr., A. K. Wilson, Theor. Chem. Acc. 128, 69 (2011)
      Al-Ar : Obtained from the ccRepo (grant-hill.group.shef.ac.uk/ccrepo) Feb. 2017
              D. E. Woon, T. H. Dunning, Jr., J. Chem. Phys. 98, 1358 (1993)
      Sc-Zn : Obtained from the ccRepo (grant-hill.group.shef.ac.uk/ccrepo) Feb. 2017
              N. B. Balabanov, K. A. Peterson, J. Chem. Phys. 123, 064107 (2005)
              N. B. Balabanov, K. A. Peterson, J. Chem. Phys. 125, 074110 (2006)
      Ga-Kr : Obtained from the ccRepo (grant-hill.group.shef.ac.uk/ccrepo) Feb. 2017
              A. K. Wilson, D. E. Woon, K. A. Peterson, T. H. Dunning, Jr., J. Chem. Phys. 110, 7667 (1999)
     Ag, Au : Obtained from the Peterson Research Group Website (tyr0.chem.wsu.edu/~kipeters) Feb. 2017
              K. A. Peterson, C. Puzzarini, Theor. Chem. Acc. 114, 283 (2005)

================================================================================
                                        WARNINGS
                       Please study these warnings very carefully!
================================================================================


WARNING: your system is open-shell and RHF/RKS was chosen
  ===> : WILL SWITCH to UHF/UKS


WARNING: MDCI localization with Augmented Hessian Foster-Boys
  ===> : Switching off randomization!

WARNING: Post HF methods need fully converged wavefunctions
  ===> : Setting SCFConvForced true
         You can overwrite this default with %scf ConvForced false 


INFO   : the flag for use of LIBINT has been found!

================================================================================
                                       INPUT FILE
================================================================================
NAME = 35_Br.in
|  1> #
|  2> # 35_Br CCSD(T)/aug-cc-pVTZ
|  3> #
|  4> ! CCSD(T) aug-cc-pVTZ tightscf
|  5> 
|  6> *xyz 0 2
|  7>  Br 0.0 0.0 0.0
|  8> *
|  9> 
| 10> %maxcore 5000 
| 11> 
| 12> %pal
| 13> nprocs 24
| 14> end
| 15> 
| 16> 
| 17>                          ****END OF INPUT****
================================================================================

                       ****************************
                       * Single Point Calculation *
                       ****************************

---------------------------------
CARTESIAN COORDINATES (ANGSTROEM)
---------------------------------
  Br     0.000000    0.000000    0.000000

----------------------------
CARTESIAN COORDINATES (A.U.)
----------------------------
  NO LB      ZA    FRAG     MASS         X           Y           Z
   0 Br   35.0000    0    79.900    0.000000    0.000000    0.000000

--------------------------------
INTERNAL COORDINATES (ANGSTROEM)
--------------------------------
 Br     0   0   0     0.000000000000     0.00000000     0.00000000

---------------------------
INTERNAL COORDINATES (A.U.)
---------------------------
 Br     0   0   0     0.000000000000     0.00000000     0.00000000

---------------------
BASIS SET INFORMATION
---------------------
There are 1 groups of distinct atoms

 Group   1 Type Br  : 75s36p10d2f contracted to 7s6p4d2f pattern {18181818111/111111111/7111/11}

Atom   0Br   basis set group =>   1


           ************************************************************
           *        Program running with 24 parallel MPI-processes    *
           *              working on a common directory               *
           ************************************************************
------------------------------------------------------------------------------
                           ORCA GTO INTEGRAL CALCULATION
------------------------------------------------------------------------------

                         BASIS SET STATISTICS AND STARTUP INFO

 # of primitive gaussian shells          ...  123
 # of primitive gaussian functions       ...  247
 # of contracted shells                  ...   19
 # of contracted basis functions         ...   59
 Highest angular momentum                ...    3
 Maximum contraction depth               ...   18
 Integral package used                   ... LIBINT
 Integral threshhold            Thresh   ...  2.500e-11
 Primitive cut-off              TCut     ...  2.500e-12


------------------------------ INTEGRAL EVALUATION ----------------------------


 * One electron integrals 
 Pre-screening matrix                    ... done
 Shell pair data                         ... done (   0.000 sec)



           ************************************************************
           *        Program running with 24 parallel MPI-processes    *
           *              working on a common directory               *
           ************************************************************
-------------------------------------------------------------------------------
                                 ORCA SCF
-------------------------------------------------------------------------------

------------
SCF SETTINGS
------------
Hamiltonian:
 Ab initio Hamiltonian  Method          .... Hartree-Fock(GTOs)


General Settings:
 Integral files         IntName         .... 35_Br
 Hartree-Fock type      HFTyp           .... UHF
 Total Charge           Charge          ....    0
 Multiplicity           Mult            ....    2
 Number of Electrons    NEL             ....   35
 Basis Dimension        Dim             ....   59
 Nuclear Repulsion      ENuc            ....      0.0000000000 Eh

Convergence Acceleration:
 DIIS                   CNVDIIS         .... on
   Start iteration      DIISMaxIt       ....    12
   Startup error        DIISStart       ....  0.200000
   # of expansion vecs  DIISMaxEq       ....     5
   Bias factor          DIISBfac        ....   1.050
   Max. coefficient     DIISMaxC        ....  10.000
 Newton-Raphson         CNVNR           .... off
 SOSCF                  CNVSOSCF        .... off
 Level Shifting         CNVShift        .... on
   Level shift para.    LevelShift      ....    0.2500
   Turn off err/grad.   ShiftErr        ....    0.0010
 Zerner damping         CNVZerner       .... off
 Static damping         CNVDamp         .... on
   Fraction old density DampFac         ....    0.7000
   Max. Damping (<1)    DampMax         ....    0.9800
   Min. Damping (>=0)   DampMin         ....    0.0000
   Turn off err/grad.   DampErr         ....    0.1000
 Fernandez-Rico         CNVRico         .... off

SCF Procedure:
 Maximum # iterations   MaxIter         ....   125
 SCF integral mode      SCFMode         .... Direct
   Integral package                     .... LIBINT
 Reset frequency        DirectResetFreq ....    20
 Integral Threshold     Thresh          ....  2.500e-11 Eh
 Primitive CutOff       TCut            ....  2.500e-12 Eh

Convergence Tolerance:
 Convergence Check Mode ConvCheckMode   .... Total+1el-Energy
 Convergence forced     ConvForced      .... 1
 Energy Change          TolE            ....  1.000e-08 Eh
 1-El. energy change                    ....  1.000e-05 Eh
 DIIS Error             TolErr          ....  5.000e-07


Diagonalization of the overlap matrix:
Smallest eigenvalue                        ... 7.625e-03
Time for diagonalization                   ...    0.002 sec
Threshold for overlap eigenvalues          ... 1.000e-08
Number of eigenvalues below threshold      ... 0
Time for construction of square roots      ...    0.011 sec
Total time needed                          ...    0.014 sec

-------------------
DFT GRID GENERATION
-------------------

General Integration Accuracy     IntAcc      ...  4.340
Radial Grid Type                 RadialGrid  ... Gauss-Chebyshev
Angular Grid (max. acc.)         AngularGrid ... Lebedev-110
Angular grid pruning method      GridPruning ... 3 (G Style)
Weight generation scheme         WeightScheme... Becke
Basis function cutoff            BFCut       ...    1.0000e-11
Integration weight cutoff        WCut        ...    1.0000e-14
Grids for H and He will be reduced by one unit

# of grid points (after initial pruning)     ...   2890 (   0.0 sec)
# of grid points (after weights+screening)   ...   2890 (   0.0 sec)
Grid point division into batches done        ...    0.0 sec
Reduced shell lists constructed in    0.0 sec

Total number of grid points                  ...     2890
Total number of batches                      ...       46
Average number of points per batch           ...       62
Average number of grid points per atom       ...     2890
Average number of shells per batch           ...    12.00 (63.16%)
Average number of basis functions per batch  ...    36.00 (61.02%)
Average number of large shells per batch     ...     8.00 (66.67%)
Average number of large basis fcns per batch ...    26.67 (74.07%)
Maximum spatial batch extension              ...  14.66, 21.55, 21.55 au
Average spatial batch extension              ...   0.64,  0.94,  0.94 au

Time for grid setup =    0.064 sec

------------------------------
INITIAL GUESS: MODEL POTENTIAL
------------------------------
Loading Hartree-Fock densities                     ... done
Calculating cut-offs                               ... done
Setting up the integral package                    ... done
Initializing the effective Hamiltonian             ... done
Starting the Coulomb interaction                   ... done (   0.0 sec)
Reading the grid                                   ... done
Mapping shells                                     ... done
Starting the XC term evaluation                    ... done (   0.0 sec)
Transforming the Hamiltonian                       ... done (   0.0 sec)
Diagonalizing the Hamiltonian                      ... done (   0.0 sec)
Back transforming the eigenvectors                 ... done (   0.0 sec)
Now organizing SCF variables                       ... done
                      ------------------
                      INITIAL GUESS DONE (   0.2 sec)
                      ------------------
--------------
SCF ITERATIONS
--------------
ITER       Energy         Delta-E        Max-DP      RMS-DP      [F,P]     Damp
               ***  Starting incremental Fock matrix formation  ***
  0  -2572.4125142485   0.000000000000 0.02854866  0.00081289  0.1584375 0.7000
  1  -2572.4221490786  -0.009634830169 0.01899496  0.00059139  0.1031484 0.7000
                               ***Turning on DIIS***
  2  -2572.4288289118  -0.006679833172 0.04095257  0.00140683  0.0662621 0.0000
  3  -2572.4924648406  -0.063635928759 0.01071796  0.00034028  0.0107924 0.0000
  4  -2572.4185625597   0.073902280894 0.00463547  0.00009411  0.0035837 0.0000
  5  -2572.4473638955  -0.028801335796 0.00272445  0.00005290  0.0014396 0.0000
  6  -2572.4456083593   0.001755536133 0.00127854  0.00002420  0.0006306 0.0000
  7  -2572.4454408385   0.000167520837 0.00016029  0.00000401  0.0001015 0.0000
  8  -2572.4455140382  -0.000073199725 0.00002842  0.00000105  0.0000173 0.0000
  9  -2572.4455594024  -0.000045364130 0.00000877  0.00000035  0.0000028 0.0000
                            ***DIIS convergence achieved***

               *****************************************************
               *                     SUCCESS                       *
               *           SCF CONVERGED AFTER  10 CYCLES          *
               *****************************************************


----------------
TOTAL SCF ENERGY
----------------

Total Energy       :        -2572.44555515 Eh          -69999.80228 eV

Components:
Nuclear Repulsion  :            0.00000000 Eh               0.00000 eV
Electronic Energy  :        -2572.44555515 Eh          -69999.80228 eV
One Electron Energy:        -3581.95673686 Eh          -97469.99809 eV
Two Electron Energy:         1009.51118171 Eh           27470.19581 eV

Virial components:
Potential Energy   :        -5144.88911880 Eh         -139999.55036 eV
Kinetic Energy     :         2572.44356366 Eh           69999.74809 eV
Virial Ratio       :            2.00000077


---------------
SCF CONVERGENCE
---------------

  Last Energy change         ...    4.2571e-06  Tolerance :   1.0000e-08
  Last MAX-Density change    ...    4.0597e-06  Tolerance :   1.0000e-07
  Last RMS-Density change    ...    1.6447e-07  Tolerance :   5.0000e-09
  Last DIIS Error            ...    7.4761e-07  Tolerance :   5.0000e-07

             **** THE GBW FILE WAS UPDATED (35_Br.gbw) ****
             **** DENSITY FILE WAS UPDATED (35_Br.scfp) ****
             **** ENERGY FILE WAS UPDATED (35_Br.en.tmp) ****
----------------------
UHF SPIN CONTAMINATION
----------------------

Expectation value of <S**2>     :     0.759574
Ideal value S*(S+1) for S=0.5   :     0.750000
Deviation                       :     0.009574

             **** THE GBW FILE WAS UPDATED (35_Br.gbw) ****
             **** DENSITY FILE WAS UPDATED (35_Br.scfp) ****
----------------
ORBITAL ENERGIES
----------------
                 SPIN UP ORBITALS
  NO   OCC          E(Eh)            E(eV) 
   0   1.0000    -490.061773    -13335.2588 
   1   1.0000     -65.200196     -1774.1875 
   2   1.0000     -58.560438     -1593.5105 
   3   1.0000     -58.553143     -1593.3120 
   4   1.0000     -58.553143     -1593.3120 
   5   1.0000      -9.875456      -268.7248 
   6   1.0000      -7.498792      -204.0525 
   7   1.0000      -7.475404      -203.4161 
   8   1.0000      -7.475404      -203.4161 
   9   1.0000      -3.233427       -87.9860 
  10   1.0000      -3.227891       -87.8354 
  11   1.0000      -3.227891       -87.8354 
  12   1.0000      -3.211499       -87.3893 
  13   1.0000      -3.211499       -87.3893 
  14   1.0000      -1.048218       -28.5235 
  15   1.0000      -0.524174       -14.2635 
  16   1.0000      -0.454378       -12.3643 
  17   1.0000      -0.454378       -12.3643 
  18   0.0000       0.088048         2.3959 
  19   0.0000       0.089647         2.4394 
  20   0.0000       0.095192         2.5903 
  21   0.0000       0.095192         2.5903 
  22   0.0000       0.247740         6.7414 
  23   0.0000       0.252735         6.8773 
  24   0.0000       0.252735         6.8773 
  25   0.0000       0.269940         7.3454 
  26   0.0000       0.269940         7.3454 
  27   0.0000       0.469720        12.7817 
  28   0.0000       0.497374        13.5342 
  29   0.0000       0.497374        13.5342 
  30   0.0000       0.640897        17.4397 
  31   0.0000       0.714357        19.4386 
  32   0.0000       0.723982        19.7006 
  33   0.0000       0.723982        19.7006 
  34   0.0000       0.758012        20.6266 
  35   0.0000       0.758012        20.6266 
  36   0.0000       0.912337        24.8259 
  37   0.0000       0.916238        24.9321 
  38   0.0000       0.916238        24.9321 
  39   0.0000       0.928121        25.2555 
  40   0.0000       0.928121        25.2555 
  41   0.0000       0.948881        25.8204 
  42   0.0000       0.948881        25.8204 
  43   0.0000       2.058044        56.0022 
  44   0.0000       2.102784        57.2197 
  45   0.0000       2.102784        57.2197 
  46   0.0000       2.218099        60.3575 
  47   0.0000       2.228802        60.6488 
  48   0.0000       2.228802        60.6488 
  49   0.0000       2.231926        60.7338 
  50   0.0000       2.237868        60.8955 
  51   0.0000       2.237868        60.8955 
  52   0.0000       2.255955        61.3876 
  53   0.0000       2.255955        61.3876 
  54   0.0000       2.263737        61.5994 
  55   0.0000       2.263737        61.5994 
  56   0.0000       2.287466        62.2451 
  57   0.0000       2.287466        62.2451 
  58   0.0000       3.416313        92.9626 

                 SPIN DOWN ORBITALS
  NO   OCC          E(Eh)            E(eV) 
   0   1.0000    -490.057629    -13335.1460 
   1   1.0000     -65.198074     -1774.1298 
   2   1.0000     -58.551918     -1593.2787 
   3   1.0000     -58.551918     -1593.2787 
   4   1.0000     -58.549132     -1593.2029 
   5   1.0000      -9.867375      -268.5049 
   6   1.0000      -7.473330      -203.3597 
   7   1.0000      -7.473330      -203.3597 
   8   1.0000      -7.470003      -203.2691 
   9   1.0000      -3.222956       -87.7011 
  10   1.0000      -3.219899       -87.6179 
  11   1.0000      -3.219899       -87.6179 
  12   1.0000      -3.211042       -87.3769 
  13   1.0000      -3.211042       -87.3769 
  14   1.0000      -0.941257       -25.6129 
  15   1.0000      -0.434238       -11.8162 
  16   1.0000      -0.434238       -11.8162 
  17   0.0000      -0.049524        -1.3476 
  18   0.0000       0.094047         2.5591 
  19   0.0000       0.095870         2.6088 
  20   0.0000       0.095870         2.6088 
  21   0.0000       0.103435         2.8146 
  22   0.0000       0.269828         7.3424 
  23   0.0000       0.269828         7.3424 
  24   0.0000       0.275775         7.5042 
  25   0.0000       0.275775         7.5042 
  26   0.0000       0.278084         7.5671 
  27   0.0000       0.502084        13.6624 
  28   0.0000       0.502084        13.6624 
  29   0.0000       0.521261        14.1842 
  30   0.0000       0.658622        17.9220 
  31   0.0000       0.761186        20.7129 
  32   0.0000       0.761186        20.7129 
  33   0.0000       0.778972        21.1969 
  34   0.0000       0.778972        21.1969 
  35   0.0000       0.785795        21.3826 
  36   0.0000       0.938547        25.5392 
  37   0.0000       0.939692        25.5703 
  38   0.0000       0.939692        25.5703 
  39   0.0000       0.943046        25.6616 
  40   0.0000       0.943046        25.6616 
  41   0.0000       0.948338        25.8056 
  42   0.0000       0.948338        25.8056 
  43   0.0000       2.109765        57.4096 
  44   0.0000       2.109765        57.4096 
  45   0.0000       2.117456        57.6189 
  46   0.0000       2.262564        61.5675 
  47   0.0000       2.263705        61.5985 
  48   0.0000       2.263705        61.5985 
  49   0.0000       2.267205        61.6938 
  50   0.0000       2.267205        61.6938 
  51   0.0000       2.275230        61.9122 
  52   0.0000       2.276787        61.9545 
  53   0.0000       2.276787        61.9545 
  54   0.0000       2.281365        62.0791 
  55   0.0000       2.281365        62.0791 
  56   0.0000       2.288700        62.2787 
  57   0.0000       2.288700        62.2787 
  58   0.0000       3.432132        93.3931 

                    ********************************
                    * MULLIKEN POPULATION ANALYSIS *
                    ********************************

--------------------------------------------
MULLIKEN ATOMIC CHARGES AND SPIN POPULATIONS
--------------------------------------------
   0 Br:   -0.000000    1.000000
Sum of atomic charges         :   -0.0000000
Sum of atomic spin populations:    1.0000000

-----------------------------------------------------
MULLIKEN REDUCED ORBITAL CHARGES AND SPIN POPULATIONS
-----------------------------------------------------
CHARGE
  0 Brs       :     7.996136  s :     7.996136
      pz      :     5.999457  p :    16.998224
      px      :     5.999457
      py      :     4.999310
      dz2     :     2.000966  d :    10.003864
      dxz     :     2.000000
      dyz     :     2.000000
      dx2y2   :     2.002898
      dxy     :     2.000000
      f0      :     0.000204  f :     0.001776
      f+1     :     0.000034
      f-1     :     0.000259
      f+2     :     0.000339
      f-2     :     0.000000
      f+3     :     0.000509
      f-3     :     0.000431

SPIN
  0 Brs       :     0.000936  s :     0.000936
      pz      :    -0.000482  p :     0.998346
      px      :    -0.000482
      py      :     0.999310
      dz2     :    -0.000234  d :    -0.000936
      dxz     :     0.000000
      dyz     :    -0.000000
      dx2y2   :    -0.000702
      dxy     :    -0.000000
      f0      :     0.000181  f :     0.001654
      f+1     :     0.000030
      f-1     :     0.000259
      f+2     :     0.000301
      f-2     :     0.000000
      f+3     :     0.000452
      f-3     :     0.000431


                     *******************************
                     * LOEWDIN POPULATION ANALYSIS *
                     *******************************

-------------------------------------------
LOEWDIN ATOMIC CHARGES AND SPIN POPULATIONS
-------------------------------------------
   0 Br:    0.000000    1.000000

----------------------------------------------------
LOEWDIN REDUCED ORBITAL CHARGES AND SPIN POPULATIONS
----------------------------------------------------
CHARGE
  0 Brs       :     7.996136  s :     7.996136
      pz      :     5.999457  p :    16.998224
      px      :     5.999457
      py      :     4.999310
      dz2     :     2.000966  d :    10.003864
      dxz     :     2.000000
      dyz     :     2.000000
      dx2y2   :     2.002898
      dxy     :     2.000000
      f0      :     0.000204  f :     0.001776
      f+1     :     0.000034
      f-1     :     0.000259
      f+2     :     0.000339
      f-2     :     0.000000
      f+3     :     0.000509
      f-3     :     0.000431

SPIN
  0 Brs       :     0.000936  s :     0.000936
      pz      :    -0.000482  p :     0.998346
      px      :    -0.000482
      py      :     0.999310
      dz2     :    -0.000234  d :    -0.000936
      dxz     :     0.000000
      dyz     :    -0.000000
      dx2y2   :    -0.000702
      dxy     :    -0.000000
      f0      :     0.000181  f :     0.001654
      f+1     :     0.000030
      f-1     :     0.000259
      f+2     :     0.000301
      f-2     :     0.000000
      f+3     :     0.000452
      f-3     :     0.000431


                      *****************************
                      * MAYER POPULATION ANALYSIS *
                      *****************************

  NA   - Mulliken gross atomic population
  ZA   - Total nuclear charge
  QA   - Mulliken gross atomic charge
  VA   - Mayer's total valence
  BVA  - Mayer's bonded valence
  FA   - Mayer's free valence

  ATOM       NA         ZA         QA         VA         BVA        FA
  0 Br    35.0000    35.0000     0.0000     1.0191     0.0000     1.0191

  Mayer bond orders larger than 0.100000


-------
TIMINGS
-------

Total SCF time: 0 days 0 hours 0 min 8 sec 

Total time                  ....       8.048 sec
Sum of individual times     ....       7.379 sec  ( 91.7%)

Fock matrix formation       ....       6.830 sec  ( 84.9%)
Diagonalization             ....       0.061 sec  (  0.8%)
Density matrix formation    ....       0.005 sec  (  0.1%)
Population analysis         ....       0.073 sec  (  0.9%)
Initial guess               ....       0.124 sec  (  1.5%)
Orbital Transformation      ....       0.000 sec  (  0.0%)
Orbital Orthonormalization  ....       0.000 sec  (  0.0%)
DIIS solution               ....       0.221 sec  (  2.8%)


           ************************************************************
           *        Program running with 24 parallel MPI-processes    *
           *              working on a common directory               *
           ************************************************************


------------------------------------------------------------------------------- 
                              ORCA-MATRIX DRIVEN CI                            
------------------------------------------------------------------------------- 

--------------------------------
AUTOMATIC CHOICE OF INCORE LEVEL
--------------------------------

Memory available                           ...   2500.00 MB
Memory needed for S+T                      ...      1.73 MB
Memory needed for J+K                      ...      3.49 MB
Memory needed for DIIS                     ...     24.24 MB
Memory needed for 3-ext                    ...      4.73 MB
Memory needed for 4-ext                    ...     11.04 MB
Memory needed for triples                  ...      2.63 MB
 -> Final InCoreLevel    ... 5
 -> check shows that triples correction can be computed


Wavefunction type
-----------------
Correlation treatment                      ...      CCSD     
Single excitations                         ... ON
Orbital optimization                       ... OFF
Calculation of Z vector                    ... OFF
Calculation of Brueckner orbitals          ... OFF
Perturbative triple excitations            ... ON
Calculation of F12 correction              ... OFF
Frozen core treatment                      ... chemical core (18 el)
Reference Wavefunction                     ... UHF
  Alpha-MOs occ    :     9 ...   17 (  9 MO's/  9 electrons)
  Beta-MOs occ     :     9 ...   16 (  8 MO's/  8 electrons)
  Alpha-MOs virt   :    18 ...   58 ( 41 MO's              )
  Beta-MOs virt    :    17 ...   58 ( 42 MO's              )
Number of AO's                             ...     59
Number of electrons                        ...     35
Number of correlated electrons             ...     17

Algorithmic settings
--------------------
Integral transformation                    ... AO direct full transformation
K(C) Formation                             ... FULL-MO TRAFO
Maximum number of iterations               ...        50
Convergence tolerance (max. residuum)      ... 1.000e-05
Level shift for amplitude update           ... 2.000e-01
Maximum number of DIIS vectors             ...         7
DIIS turned on at iteration                ...         0
Damping before turning on DIIS             ...     0.500
Damping after turning on DIIS              ...     0.000
Pair specific amplitude update             ... OFF
Natural orbital iterations                 ... OFF
Perturbative natural orbital generation    ... OFF
Printlevel                                 ... 2

Memory handling:
----------------
Maximum memory for working arrays          ...   2500 MB
Data storage in matrix containers          ... UNCOMPRESSED
Data type for integral storage             ... DOUBLE
In-Core Storage of quantities:
   Amplitudes+Sigma Vector      ... YES
   J+K operators                ... YES
   DIIS vectors                 ... YES
   3-external integrals         ... YES
   4-external integrals         ... YES


Initializing the integral package          ... done
Warning: reference  - re-canonicalizations have been set to INT 1 VIRT 1

--------------------------
UNRESTRICTED FOCK OPERATOR
--------------------------

<ss|ss>:          406 b            0 skpd (  0.0%)    0.037 s ( 0.092 ms/b)
<ss|sp>:         1176 b            0 skpd (  0.0%)    0.172 s ( 0.146 ms/b)
<ss|sd>:          784 b            1 skpd (  0.1%)    0.079 s ( 0.101 ms/b)
<ss|sf>:          392 b            2 skpd (  0.5%)    0.007 s ( 0.018 ms/b)
<ss|pp>:          588 b            0 skpd (  0.0%)    0.086 s ( 0.147 ms/b)
<ss|pd>:          672 b            0 skpd (  0.0%)    0.056 s ( 0.084 ms/b)
<ss|pf>:          336 b            0 skpd (  0.0%)    0.007 s ( 0.020 ms/b)
<ss|dd>:          280 b            0 skpd (  0.0%)    0.032 s ( 0.116 ms/b)
<ss|df>:          224 b            0 skpd (  0.0%)    0.007 s ( 0.030 ms/b)
<ss|ff>:           84 b            0 skpd (  0.0%)    0.001 s ( 0.017 ms/b)
<sp|sp>:          903 b            1 skpd (  0.1%)    0.106 s ( 0.118 ms/b)
<sp|sd>:         1176 b           13 skpd (  1.1%)    0.075 s ( 0.065 ms/b)
<sp|sf>:          588 b            9 skpd (  1.5%)    0.008 s ( 0.015 ms/b)
<sp|pp>:          882 b            0 skpd (  0.0%)    0.081 s ( 0.091 ms/b)
<sp|pd>:         1008 b            2 skpd (  0.2%)    0.057 s ( 0.057 ms/b)
<sp|pf>:          504 b            2 skpd (  0.4%)    0.012 s ( 0.023 ms/b)
<sp|dd>:          420 b            0 skpd (  0.0%)    0.051 s ( 0.120 ms/b)
<sp|df>:          336 b            0 skpd (  0.0%)    0.011 s ( 0.033 ms/b)
<sp|ff>:          126 b            0 skpd (  0.0%)    0.003 s ( 0.021 ms/b)
<sd|sd>:          406 b            6 skpd (  1.5%)    0.024 s ( 0.059 ms/b)
<sd|sf>:          392 b           17 skpd (  4.3%)    0.005 s ( 0.014 ms/b)
<sd|pp>:          588 b            3 skpd (  0.5%)    0.033 s ( 0.056 ms/b)
<sd|pd>:          672 b            8 skpd (  1.2%)    0.030 s ( 0.045 ms/b)
<sd|pf>:          336 b            8 skpd (  2.4%)    0.007 s ( 0.020 ms/b)
<sd|dd>:          280 b            0 skpd (  0.0%)    0.032 s ( 0.115 ms/b)
<sd|df>:          224 b            0 skpd (  0.0%)    0.008 s ( 0.037 ms/b)
<sd|ff>:           84 b            0 skpd (  0.0%)    0.002 s ( 0.028 ms/b)
<sf|sf>:          105 b            9 skpd (  8.6%)    0.002 s ( 0.020 ms/b)
<sf|pp>:          294 b            2 skpd (  0.7%)    0.011 s ( 0.037 ms/b)
<sf|pd>:          336 b           11 skpd (  3.3%)    0.012 s ( 0.038 ms/b)
<sf|pf>:          168 b            7 skpd (  4.2%)    0.003 s ( 0.018 ms/b)
<sf|dd>:          140 b            0 skpd (  0.0%)    0.015 s ( 0.106 ms/b)
<sf|df>:          112 b            1 skpd (  0.9%)    0.004 s ( 0.037 ms/b)
<sf|ff>:           42 b            0 skpd (  0.0%)    0.001 s ( 0.032 ms/b)
<pp|pp>:          231 b            0 skpd (  0.0%)    0.034 s ( 0.145 ms/b)
<pp|pd>:          504 b            0 skpd (  0.0%)    0.035 s ( 0.070 ms/b)
<pp|pf>:          252 b            0 skpd (  0.0%)    0.008 s ( 0.031 ms/b)
<pp|dd>:          210 b            0 skpd (  0.0%)    0.038 s ( 0.180 ms/b)
<pp|df>:          168 b            0 skpd (  0.0%)    0.010 s ( 0.058 ms/b)
<pp|ff>:           63 b            0 skpd (  0.0%)    0.003 s ( 0.043 ms/b)
<pd|pd>:          300 b            0 skpd (  0.0%)    0.031 s ( 0.104 ms/b)
<pd|pf>:          288 b            0 skpd (  0.0%)    0.008 s ( 0.026 ms/b)
<pd|dd>:          240 b            0 skpd (  0.0%)    0.037 s ( 0.155 ms/b)
<pd|df>:          192 b            0 skpd (  0.0%)    0.010 s ( 0.054 ms/b)
<pd|ff>:           72 b            0 skpd (  0.0%)    0.003 s ( 0.046 ms/b)
<pf|pf>:           78 b            0 skpd (  0.0%)    0.003 s ( 0.040 ms/b)
<pf|dd>:          120 b            0 skpd (  0.0%)    0.015 s ( 0.122 ms/b)
<pf|df>:           96 b            0 skpd (  0.0%)    0.005 s ( 0.047 ms/b)
<pf|ff>:           36 b            0 skpd (  0.0%)    0.002 s ( 0.053 ms/b)
<dd|dd>:           55 b            0 skpd (  0.0%)    0.016 s ( 0.286 ms/b)
<dd|df>:           80 b            0 skpd (  0.0%)    0.005 s ( 0.060 ms/b)
<dd|ff>:           30 b            0 skpd (  0.0%)    0.002 s ( 0.058 ms/b)
<df|df>:           36 b            0 skpd (  0.0%)    0.002 s ( 0.048 ms/b)
<df|ff>:           24 b            0 skpd (  0.0%)    0.002 s ( 0.068 ms/b)
<ff|ff>:            6 b            0 skpd (  0.0%)    0.001 s ( 0.108 ms/b)
Recanonicalizing the internal orbitals
Recanonicalizing the virtual orbitals
Time needed for Fock operator              ...            1.403 sec
Reference energy                           ...  -2572.445558389
Warning: for UHF the TrafoType has to be JK
Warning: for UHF the K(C)-option cannot be MO but must be AOX

-------------------------------
PARTIAL EXCHANGE TRANSFORMATION
-------------------------------

Transformation type                        ... two-operators
Generation of integrals (i,mue|j,nue)      ... ON
Generation of integrals (mue,kappa|nue,tau)... ON
Generation of integrals (i,mue|a,nue)      ... ON
Dimension of the basis                     ...   59
Number of internal alpha-MOs               ...    9 (   9-  17)
Number of internal beta-MOs                ...    8 (   9-  16)
Number of external alpha-MOs               ...   41 (  18-  58)
Number of external beta-MOs                ...   42 (  17-  58)
Pair cutoff                                ... 0.000e+00 Eh
Number of AO pairs in the trafo            ... 1770
Total Number of distinct AO pairs          ... 1770
Memory devoted for trafo                   ... 2500.0 MB 
Max. Number of MO pairs treated together   ... 94133      
Number Format for Storage                  ... Double (8 Byte)
Integral package used                      ... LIBINT

Starting integral evaluation:
    ... done with AO integral generation
Closing buffer AOK[aa] ( 0.00 GB; CompressionRatio= 0.00)
Closing buffer AOK[bb] ( 0.00 GB; CompressionRatio= 0.00)
Closing buffer AOK[ab] ( 0.00 GB; CompressionRatio= 0.00)
Closing buffer AOK[ba] ( 0.00 GB; CompressionRatio= 0.00)
Collecting buffer AOK 
Closing buffer IAAO1[aa] ( 0.00 GB; CompressionRatio= 0.00)
Closing buffer IAAO1[bb] ( 0.00 GB; CompressionRatio= 0.00)
Closing buffer IAAO1[ab] ( 0.00 GB; CompressionRatio= 0.00)
Closing buffer IAAO1[ba] ( 0.00 GB; CompressionRatio= 0.00)
Closing buffer IAAO2[aa] ( 0.00 GB; CompressionRatio= 0.00)
Closing buffer IAAO2[bb] ( 0.00 GB; CompressionRatio= 0.00)
Closing buffer IAAO2[ab] ( 0.00 GB; CompressionRatio= 0.00)
Closing buffer IAAO2[ba] ( 0.00 GB; CompressionRatio= 0.00)
Collecting buffer IAAO 
Closing buffer PRQS    ( 0.00 GB; CompressionRatio= 0.00)
Collecting buffer PRQS 
Number of alpha/alpha MO pairs in trafo    ...   45
Number of beta /beta  MO pairs in trafo    ...   36
Number of alpha/ beta MO pairs in trafo    ...   72
------------------------
SORTING OF (i,mue|j,nue)
------------------------

SORTING OF ALPHA/ALPHA PAIRS
IBATCH = 1 of  1
Closing buffer KAO[aa] ( 0.00 GB; CompressionRatio= 1.00)
Collecting buffer KAO 
SORTING OF BETA /BETA  PAIRS
IBATCH = 1 of  1
Closing buffer KAO[bb] ( 0.00 GB; CompressionRatio= 1.00)
Collecting buffer KAO 
SORTING OF ALPHA/BETA  PAIRS
IBATCH = 1 of  1
Closing buffer KAO[ab] ( 0.00 GB; CompressionRatio= 0.999569274946)
Collecting buffer KAO[ab] 
------------------------
SORTING OF (i,mue|a,nue)
------------------------

Number of alpha/alpha (i,a) pairs in trafo  ...  369
Number of beta /beta  (i,a) pairs in trafo  ...  336
Number of alpha/ beta (i,a) pairs in trafo  ...  378
Number of beta /alpha (i,a) pairs in trafo  ...  328
Setting up the alpha/alpha list             ... done
Setting up the beta /beta  list             ... done
Setting up the alpha/beta  list             ... done
Setting up the beta /alpha list             ... done
    ... Now sorting (i,mue|a,nue)integrals
    ... Integrals (i,b|a,c) will be made on the fly
SORTING OF ALPHA/ALPHA PAIRS
IBATCH = 1 of  1
Closing buffer IPAQ[aa]  0.00 GB; CompressionRatio= 1.00)
SORTING OF BETA /BETA  PAIRS
IBATCH = 1 of  1
Closing buffer IPAQ[bb]( 0.00 GB; CompressionRatio= 1.00)
SORTING OF ALPHA/BETA  PAIRS (NMatSort_ab=16)
IBATCH = 1 of  1
Closing buffer IPAQ[ab]( 0.00 GB; CompressionRatio= 1.00)
SORTING OF BETA/ALPHA  PAIRS
IBATCH = 1 of  1
Closing buffer IPAQ[ba]( 0.00 GB; CompressionRatio= 1.00)
N(AO-Batches) Done                         ...         0 
N(AO-Batches) Skipped                      ...         0 
N(IJ)-pairs Skipped                        ...         0 
TOTAL TIME for half transformation         ...     6.227 sec
AO-integral generation                     ...     0.000 sec
Half transformation                        ...     0.000 sec
K-integral sorting                         ...     0.939 sec
<ss|**>: 
------------------------------
PARTIAL COULOMB TRANSFORMATION
------------------------------

Transformation type                        ... two-operators
Dimension of the basis                     ...   59
Number of internal alpha-MOs               ...    9 (9-17)
Number of internal beta-MOs                ...    8 (9-16)
Pair cutoff                                ... 0.000e+00 Eh
Number of AO pairs included in the trafo   ... 1770
Total Number of distinct AO pairs          ... 1770
Memory devoted for trafo                   ... 2500.0 MB 
Max. Number of MO pairs treated together   ... 185129      
Max. Number of MOs treated per batch       ... 3137      
Number Format for Storage                  ... Double (8 Byte)
AO-integral source                         ... DIRECT
Integral package used                      ... LIBINT

Starting integral evaluation:
<sp|**>:         5320 b        0 skpd     0.284 s (  0.053 ms/b)
<sd|**>:         7980 b        0 skpd     0.530 s (  0.066 ms/b)
<sf|**>:         5320 b        0 skpd     0.303 s (  0.057 ms/b)
<pp|**>:         2660 b        0 skpd     0.052 s (  0.020 ms/b)
        3990 b        0 skpd     0.293 s (  0.073 ms/b)
<pd|**>:         4560 b        0 skpd     0.262 s (  0.057 ms/b)
<pf|**>:         2280 b        0 skpd     0.072 s (  0.032 ms/b)
<dd|**>:         1900 b        0 skpd     0.257 s (  0.135 ms/b)
<df|**>:         1520 b        0 skpd     0.087 s (  0.057 ms/b)
<ff|**>:          570 b        0 skpd     0.051 s (  0.090 ms/b)
Closing buffer AOJ[aa] ( 0.00 GB; CompressionRatio= 0.97)
Closing buffer AOJ[bb] ( 0.00 GB; CompressionRatio= 0.00)
Collecting buffer AOJ 
    ... done with AO integral generation
Number of Alpha-MO pairs included          ...   45
Number of Beta-MO pairs included           ...   36
    ... Now sorting integrals
SORTING ALPHA/ALPHA PAIRS
IBATCH = 1 of  1
Closing buffer JAO[aa] ( 0.00 GB; CompressionRatio= 1.00)
SORTING BETA/BETA PAIRS
IBATCH = 1 of  1
Closing buffer JAO[bb] ( 0.00 GB; CompressionRatio= 1.00)
Collecting buffer JAO 
TOTAL TIME for half transformation         ...     2.353 sec
AO-integral generation                     ...     2.100 sec
Half transformation                        ...     0.092 sec
J-integral sorting                         ...     0.104 sec

-------------------------- SECOND HALF TRANSFORMATION -------------------------
Formation of (ij|kl),(ij|ka), (ij|ab)      ... ok (     0.141 sec)
Formation of (ik|jl),(ik|ja), (ia|jb)      ... ok (     0.235 sec)


-----------------------
SPIN UNRESTRICTED GUESS
-----------------------

Entering MDCI_UHF_Guess, Tailored=0
Spin-components of the MP2 energy:
EMP2(aa)=     -0.035279492
EMP2(bb)=     -0.022343295
EMP2(ab)=     -0.143564217

Initial guess performed in     0.010 sec
E(0)                                       ...  -2572.445558389
E(MP2)                                     ...     -0.201187004
Initial E(tot)                             ...  -2572.646745393
<T|T>                                      ...      0.060511086
Number of pairs included                   ... 136

------------------------------------------------
                  UHF COUPLED CLUSTER ITERATIONS
------------------------------------------------

Number of amplitudes to be optimized       ...       179272

Iter       E(tot)           E(Corr)          Delta-E          Residual     Time      <S|S>**1/2
  0  -2572.646745393     -0.201187004     -0.000000000      0.020368578    1.19      0.000002222
                           *** Turning on DIIS ***
  1  -2572.655284419     -0.209726030     -0.008539027      0.006996470    1.26      0.014490105
  2  -2572.660219194     -0.214660805     -0.004934775      0.003066281    1.27      0.017585373
  3  -2572.661463789     -0.215905400     -0.001244595      0.000894771    1.27      0.019663345
  4  -2572.661626805     -0.216068416     -0.000163016      0.000164148    1.28      0.020404922
  5  -2572.661638899     -0.216080510     -0.000012094      0.000056877    1.27      0.020518239
  6  -2572.661640545     -0.216082156     -0.000001646      0.000023710    1.26      0.020539308
  7  -2572.661640314     -0.216081925      0.000000231      0.000007119    1.26      0.020540691
               --- The Coupled-Cluster iterations have converged ---

----------------------
COUPLED CLUSTER ENERGY
----------------------

E(0)                                       ...  -2572.445558389
E(CORR)                                    ...     -0.216081925
E(TOT)                                     ...  -2572.661640314
Singles norm <S|S>**1/2                    ...      0.020540691 ( 0.008054872, 0.012485819)  
T1 diagnostic                              ...      0.004981849                              

------------------
LARGEST AMPLITUDES
------------------
  15a-> 31a  14b-> 17b       0.035783
  15a-> 22a  14b-> 17b       0.031555
  17a-> 32a  14b-> 17b       0.030987
  16a-> 33a  14b-> 17b       0.030987
  16a-> 24a  14b-> 17b       0.026960
  17a-> 23a  14b-> 17b       0.026960
  17a-> 32a  16b-> 33b       0.023001
  16a-> 33a  15b-> 34b       0.023001
  17a-> 29a  16b-> 27b       0.021697
  16a-> 28a  15b-> 28b       0.021697
  17a-> 34a  16a-> 35a       0.021437
  17a-> 35a  16a-> 34a       0.021437
  16a-> 34a  15b-> 31b       0.021301
  16a-> 35a  15b-> 32b       0.021301
  17a-> 35a  16b-> 32b       0.021301
  17a-> 34a  16b-> 31b       0.021301

----------------------
UHF TRIPLES CORRECTION (Algorithm 1)
----------------------

Multiplier for the singles contribution    ...      1.000000000

SPIN-CASE Alpha-Alpha-Alpha:
10% done
20% done
30% done
40% done
50% done
60% done
70% done
80% done
90% done


SPIN-CASE Beta-Beta-Beta:
10% done
20% done
30% done
40% done
50% done
60% done
70% done
80% done
90% done


SPIN-CASE Alpha-Alpha-Beta:
10% done
20% done
30% done
40% done
50% done
60% done
70% done
80% done
90% done


SPIN-CASE Beta-Beta-Alpha:
10% done
20% done
30% done
40% done
50% done
60% done
70% done
80% done
90% done


Triples Correction (T)                     ...     -0.006877790
    alpha-alpha-alpha ... -0.000320230 (  4.7%)
    alpha-alpha-beta  ... -0.003710266 ( 53.9%)
    alpha-beta -beta  ... -0.002699756 ( 39.3%)
    beta -beta -beta  ... -0.000147538 (  2.1%)
Scaling of triples based on CCSD energies (Peterson et al. Molecular Physics 113, 1551 (2015))
E(T*) = f*E(T) where f = E(F12-CCSD)/E(CCSD) 
f = CCSD (with F12)/ CCSD (without F12)    ...      1.000000000
Scaled triples correction (T)              ...     -0.006877790

Final correlation energy                   ...     -0.222959714
E(CCSD)                                    ...  -2572.661640314
E(CCSD(T))                                 ...  -2572.668518103



        !!!!!!!!!!!!!!!!!!!!!!!!!!!!!!!!!!!!!!!!!!!!!!!!!!!!!!!!!!!!!!!!!!!!!!!!!! 
        !  Warning: Densities are linearized densities                           !
        !!!!!!!!!!!!!!!!!!!!!!!!!!!!!!!!!!!!!!!!!!!!!!!!!!!!!!!!!!!!!!!!!!!!!!!!!! 

NORM  =      1.077012278 sqrt=     1.037792021
W(HF) =      0.928494522
------------------------------------------------------------------------------
                           ORCA POPULATION ANALYSIS
------------------------------------------------------------------------------
Input electron density              ... 35_Br.mdcip
Input spin density                  ... 35_Br.mdcir
BaseName (.gbw .S,...)              ... 35_Br

                    ********************************
                    * MULLIKEN POPULATION ANALYSIS *
                    ********************************

------------------------------------------
MULLIKEN ATOMIC CHARGES AND SPIN DENSITIES
------------------------------------------
   0 Br:   -0.000000    1.000000
Sum of atomic charges       :   -0.0000000
Sum of atomic spin densities:    1.0000000

---------------------------------------------------
MULLIKEN REDUCED ORBITAL CHARGES AND SPIN DENSITIES
---------------------------------------------------
CHARGE
  0 Brs       :     7.975719  s :     7.975719
      pz      :     5.962043  p :    16.922857
      px      :     5.962043
      py      :     4.998771
      dz2     :     2.017704  d :    10.084291
      dxz     :     2.018519
      dyz     :     2.015996
      dx2y2   :     2.016074
      dxy     :     2.015996
      f0      :     0.002403  f :     0.017133
      f+1     :     0.002344
      f-1     :     0.002483
      f+2     :     0.002450
      f-2     :     0.002420
      f+3     :     0.002508
      f-3     :     0.002525

SPIN
  0 Brs       :     0.008288  s :     0.008288
      pz      :    -0.000294  p :     0.970413
      px      :    -0.000294
      py      :     0.971001
      dz2     :     0.001340  d :     0.016498
      dxz     :    -0.000677
      dyz     :     0.005231
      dx2y2   :     0.005373
      dxy     :     0.005231
      f0      :     0.000402  f :     0.004801
      f+1     :     0.000046
      f-1     :     0.000899
      f+2     :     0.000688
      f-2     :     0.000671
      f+3     :     0.001044
      f-3     :     0.001051


                     *******************************
                     * LOEWDIN POPULATION ANALYSIS *
                     *******************************

-----------------------------------------
LOEWDIN ATOMIC CHARGES AND SPIN DENSITIES
-----------------------------------------
   0 Br:    0.000000    1.000000

--------------------------------------------------
LOEWDIN REDUCED ORBITAL CHARGES AND SPIN DENSITIES
--------------------------------------------------
CHARGE
  0 Brs       :     7.975719  s :     7.975719
      pz      :     5.962043  p :    16.922857
      px      :     5.962043
      py      :     4.998771
      dz2     :     2.017704  d :    10.084291
      dxz     :     2.018519
      dyz     :     2.015996
      dx2y2   :     2.016074
      dxy     :     2.015996
      f0      :     0.002403  f :     0.017133
      f+1     :     0.002344
      f-1     :     0.002483
      f+2     :     0.002450
      f-2     :     0.002420
      f+3     :     0.002508
      f-3     :     0.002525

SPIN
  0 Brs       :     0.008288  s :     0.008288
      pz      :    -0.000294  p :     0.970413
      px      :    -0.000294
      py      :     0.971001
      dz2     :     0.001340  d :     0.016498
      dxz     :    -0.000677
      dyz     :     0.005231
      dx2y2   :     0.005373
      dxy     :     0.005231
      f0      :     0.000402  f :     0.004801
      f+1     :     0.000046
      f-1     :     0.000899
      f+2     :     0.000688
      f-2     :     0.000671
      f+3     :     0.001044
      f-3     :     0.001051


                      *****************************
                      * MAYER POPULATION ANALYSIS *
                      *****************************

  NA   - Mulliken gross atomic population
  ZA   - Total nuclear charge
  QA   - Mulliken gross atomic charge
  VA   - Mayer's total valence
  BVA  - Mayer's bonded valence
  FA   - Mayer's free valence

  ATOM       NA         ZA         QA         VA         BVA        FA
  0 Br    35.0000    35.0000    -0.0000     1.5484     0.0000     1.5484





------------------------------------------------------------------------------- 
                                     TIMINGS                                   
------------------------------------------------------------------------------- 


Total execution time                   ...       21.283 sec

Fock Matrix Formation                  ...        1.403 sec (  6.6%)
Initial Guess                          ...        0.010 sec (  0.0%)
DIIS Solver                            ...        0.107 sec (  0.5%)
State Vector Update                    ...        0.007 sec (  0.0%)
Sigma-vector construction              ...        9.957 sec ( 46.8%)
  <D|H|D>(0-ext Fock)                  ...        0.002 sec (  0.0% of sigma)
  <D|H|D>(0-ext)                       ...        0.005 sec (  0.0% of sigma)
  <D|H|D>(2-ext)                       ...        0.023 sec (  0.2% of sigma)
  <D|H|D>(4-ext)                       ...        0.699 sec (  7.0% of sigma)
  <S|H|0>                              ...        0.039 sec (  0.4% of sigma)
  <D|H|S>(1-ext)                       ...        0.011 sec (  0.1% of sigma)
  Fock-dressing                        ...        8.799 sec ( 88.4% of sigma)
  (ik|jl)-dressing                     ...        0.007 sec (  0.1% of sigma)
  (ij|ab),(ia|jb)-dressing             ...        0.274 sec (  2.8% of sigma)
  Pair energies                        ...        0.001 sec (  0.0% of sigma)
Total Time for computing (T)           ...        0.128 sec (  0.6% of ALL)
  I/O of integral and amplitudes       ...        0.031 sec ( 24.1% of (T))
  External N**7 contributions          ...        0.030 sec ( 23.6% of (T))
  Internal N**7 contributions          ...        0.010 sec (  8.2% of (T))
  N**6 triples energy contributions    ...        0.052 sec ( 40.9% of (T))


-------------------------   --------------------
FINAL SINGLE POINT ENERGY     -2572.668518103221
-------------------------   --------------------


                            ***************************************
                            *     ORCA property calculations      *
                            ***************************************

                                    ---------------------
                                    Active property flags
                                    ---------------------
   (+) Dipole Moment


------------------------------------------------------------------------------
                       ORCA ELECTRIC PROPERTIES CALCULATION
------------------------------------------------------------------------------

Dipole Moment Calculation                       ... on
Quadrupole Moment Calculation                   ... off
Polarizability Calculation                      ... off
GBWName                                         ... 35_Br.gbw
Electron density file                           ... 35_Br.scfp
The origin for moment calculation is the CENTER OF MASS  = ( 0.000000,  0.000000  0.000000)

-------------
DIPOLE MOMENT
-------------
                                X             Y             Z
Electronic contribution:     -0.00000       0.00000      -0.00000
Nuclear contribution   :      0.00000       0.00000       0.00000
                        -----------------------------------------
Total Dipole Moment    :     -0.00000       0.00000      -0.00000
                        -----------------------------------------
Magnitude (a.u.)       :      0.00000
Magnitude (Debye)      :      0.00000



--------------------
Rotational spectrum 
--------------------
 
Rotational constants in cm-1:     0.000000     0.000000     0.000000 
Rotational constants in MHz :     0.000000     0.000000     0.000000 

 Dipole components along the rotational axes: 
x,y,z [a.u.] :    -0.000000     0.000000    -0.000000 
x,y,z [Debye]:    -0.000000     0.000000    -0.000000 

 

                           *** MDCI DENSITY ***

------------------------------------------------------------------------------
                       ORCA ELECTRIC PROPERTIES CALCULATION
------------------------------------------------------------------------------

Dipole Moment Calculation                       ... on
Quadrupole Moment Calculation                   ... off
Polarizability Calculation                      ... off
GBWName                                         ... 35_Br.gbw
Electron density file                           ... 35_Br.mdcip
The origin for moment calculation is the CENTER OF MASS  = ( 0.000000,  0.000000  0.000000)

-------------
DIPOLE MOMENT
-------------
                                X             Y             Z
Electronic contribution:     -0.00000       0.00000      -0.00000
Nuclear contribution   :      0.00000       0.00000       0.00000
                        -----------------------------------------
Total Dipole Moment    :     -0.00000       0.00000      -0.00000
                        -----------------------------------------
Magnitude (a.u.)       :      0.00000
Magnitude (Debye)      :      0.00000



--------------------
Rotational spectrum 
--------------------
 
Rotational constants in cm-1:     0.000000     0.000000     0.000000 
Rotational constants in MHz :     0.000000     0.000000     0.000000 

 Dipole components along the rotational axes: 
x,y,z [a.u.] :    -0.000000     0.000000    -0.000000 
x,y,z [Debye]:    -0.000000     0.000000    -0.000000 

 

Timings for individual modules:

Sum of individual times         ...       31.880 sec (=   0.531 min)
GTO integral calculation        ...        1.465 sec (=   0.024 min)   4.6 %
SCF iterations                  ...        8.586 sec (=   0.143 min)  26.9 %
MDCI module                     ...       21.830 sec (=   0.364 min)  68.5 %
                             ****ORCA TERMINATED NORMALLY****
TOTAL RUN TIME: 0 days 0 hours 0 minutes 32 seconds 796 msec
