
                                 *****************
                                 * O   R   C   A *
                                 *****************

           --- An Ab Initio, DFT and Semiempirical electronic structure package ---

                  #######################################################
                  #                        -***-                        #
                  #          Department of theory and spectroscopy      #
                  #               Directorship: Frank Neese             #
                  #        Max Planck Institute fuer Kohlenforschung    #
                  #                Kaiser Wilhelm Platz 1               #
                  #                 D-45470 Muelheim/Ruhr               #
                  #                      Germany                        #
                  #                                                     #
                  #                  All rights reserved                #
                  #                        -***-                        #
                  #######################################################


                         Program Version 4.2.0 -  RELEASE  -


 With contributions from (in alphabetic order):
   Daniel Aravena         : Magnetic Suceptibility
   Michael Atanasov       : Ab Initio Ligand Field Theory (pilot matlab implementation)
   Alexander A. Auer      : GIAO ZORA, VPT2
   Ute Becker             : Parallelization
   Giovanni Bistoni       : ED, misc. LED, open-shell LED, HFLED
   Martin Brehm           : Molecular dynamics
   Dmytro Bykov           : SCF Hessian
   Vijay G. Chilkuri      : MRCI spin determinant printing, contributions to CSF-ICE
   Dipayan Datta          : RHF DLPNO-CCSD density
   Achintya Kumar Dutta   : EOM-CC, STEOM-CC
   Dmitry Ganyushin       : Spin-Orbit,Spin-Spin,Magnetic field MRCI
   Miquel Garcia          : C-PCM Hessian, Gaussian charge scheme
   Yang Guo               : DLPNO-NEVPT2, CIM, IAO-localization
   Andreas Hansen         : Spin unrestricted coupled pair/coupled cluster methods
   Benjamin Helmich-Paris : CASSCF linear response (MC-RPA)
   Lee Huntington         : MR-EOM, pCC
   Robert Izsak           : Overlap fitted RIJCOSX, COSX-SCS-MP3, EOM
   Christian Kollmar      : KDIIS, OOCD, Brueckner-CCSD(T), CCSD density
   Simone Kossmann        : Meta GGA functionals, TD-DFT gradient, OOMP2, MP2 Hessian
   Martin Krupicka        : AUTO-CI
   Lucas Lang             : DCDCAS
   Dagmar Lenk            : GEPOL surface, SMD
   Dimitrios Liakos       : Extrapolation schemes; Compound Job, initial MDCI parallelization
   Dimitrios Manganas     : Further ROCIS development; embedding schemes
   Dimitrios Pantazis     : SARC Basis sets
   Taras Petrenko         : DFT Hessian,TD-DFT gradient, ASA, ECA, R-Raman, ABS, FL, XAS/XES, NRVS
   Peter Pinski           : DLPNO-MP2, DLPNO-MP2 Gradient
   Christoph Reimann      : Effective Core Potentials
   Marius Retegan         : Local ZFS, SOC
   Christoph Riplinger    : Optimizer, TS searches, QM/MM, DLPNO-CCSD(T), (RO)-DLPNO pert. Triples
   Tobias Risthaus        : Range-separated hybrids, TD-DFT gradient, RPA, STAB
   Michael Roemelt        : Original ROCIS implementation
   Masaaki Saitow         : Open-shell DLPNO-CCSD energy and density
   Barbara Sandhoefer     : DKH picture change effects
   Avijit Sen             : IP-ROCIS
   Kantharuban Sivalingam : CASSCF convergence, NEVPT2, FIC-MRCI
   Bernardo de Souza      : ESD, SOC TD-DFT
   Georgi Stoychev        : AutoAux, RI-MP2 NMR
   Willem Van den Heuvel  : Paramagnetic NMR
   Boris Wezisla          : Elementary symmetry handling
   Frank Wennmohs         : Technical directorship


 We gratefully acknowledge several colleagues who have allowed us to
 interface, adapt or use parts of their codes:
   Stefan Grimme, W. Hujo, H. Kruse,             : VdW corrections, initial TS optimization,
                  C. Bannwarth                     DFT functionals, gCP, sTDA/sTD-DF
   Ed Valeev, F. Pavosevic, A. Kumar             : LibInt (2-el integral package), F12 methods
   Garnet Chan, S. Sharma, J. Yang, R. Olivares  : DMRG
   Ulf Ekstrom                                   : XCFun DFT Library
   Mihaly Kallay                                 : mrcc  (arbitrary order and MRCC methods)
   Andreas Klamt, Michael Diedenhofen            : otool_cosmo (COSMO solvation model)
   Jiri Pittner, Ondrej Demel                    : Mk-CCSD
   Frank Weinhold                                : gennbo (NPA and NBO analysis)
   Christopher J. Cramer and Donald G. Truhlar   : smd solvation model
   Lars Goerigk                                  : TD-DFT with DH, B97 family of functionals
   V. Asgeirsson, H. Jonsson                     : NEB implementation
   FAccTs GmbH                                   : IRC, NEB, NEB-TS, Multilevel, MM, QM/MM, CI optimization
   S Lehtola, MJT Oliveira, MAL Marques          : LibXC Library


 Your calculation uses the libint2 library for the computation of 2-el integrals
 For citations please refer to: http://libint.valeyev.net

 Your ORCA version has been built with support for libXC version: 4.2.3
 For citations please refer to: https://tddft.org/programs/libxc/

 This ORCA versions uses:
   CBLAS   interface :  Fast vector & matrix operations
   LAPACKE interface :  Fast linear algebra routines
   SCALAPACK package :  Parallel linear algebra routines


----- Orbital basis set information -----
Your calculation utilizes the basis: def2-SVP
   F. Weigend and R. Ahlrichs, Phys. Chem. Chem. Phys. 7, 3297 (2005).

----- AuxJ basis set information -----
Your calculation utilizes the auxiliary basis: def2/J
   F. Weigend, Phys. Chem. Chem. Phys. 8, 1057 (2006).

================================================================================
                                        WARNINGS
                       Please study these warnings very carefully!
================================================================================


INFO   : the flag for use of LIBINT has been found!

================================================================================
                                       INPUT FILE
================================================================================
NAME = 39_Y_atom39.inp
|  1> # input to generate an atomic fitting density for  Y
|  2> # this file is use internally by ORCA
|  3> #
|  4> # atomic ground state (S=2): 1s2 2s2 2p6 3s2 3p6 4s2 3d10 4p6 4d1 5s2 
|  5> #
|  6> ! RHF AllowRHF def2-SVP def2/J  NoMulliken NoLoewdin NoMayer NoPrintMOs 
|  7> 
|  8> %output print[p_atomdensfit] 2 end
|  9> 
| 10> %scf
| 11>   guess hcore
| 12>   maxiter 1000
| 13>   maxdisk 500000
| 14>   SCFMode Conventional
| 15>   lshift 0.600000
| 16>   hftyp rohf
| 17>   rohf_case sahf
| 18>   rohf_numop   3
| 19>   rohf_norb[1] 5,1
| 20>   rohf_nel[1]  1,2
| 21> end
| 22> 
| 23> %basis
| 24>   NewECP 39
| 25>     N_core 28
| 26>     lmax g
| 27>     s 2
| 28>       1       7.8582750000    135.1349740000  2
| 29>       2       3.3821280000     15.4116320000  2
| 30>     p 4
| 31>       1       6.8497910000     29.2514370000  2
| 32>       2       6.7100920000     58.5083630000  2
| 33>       3       3.0421590000      3.7802430000  2
| 34>       4       2.9373300000      7.6765470000  2
| 35>     d 4
| 36>       1       5.4163150000     11.8499110000  2
| 37>       2       5.3334160000     17.7781030000  2
| 38>       3       1.9762120000      2.0623830000  2
| 39>       4       1.9611110000      3.0756500000  2
| 40>     f 2
| 41>       1       5.0285900000     -6.9280780000  2
| 42>       2       5.0055820000     -9.1550990000  2
| 43>     g 1
| 44>       1       1.0000000000      0.0000000000  2
| 45>   end
| 46>   NewGTO 39
| 47>     s 9 
| 48>      1     121.5550000000      0.0003996053
| 49>      2      13.3508000000     -0.0374306935
| 50>      3       8.3430400000      0.2107271726
| 51>      4       5.2126200000     -0.1745233374
| 52>      5       2.8482200000     -0.4497401877
| 53>      6       0.7360920000      0.7526860371
| 54>      7       0.3395250000      0.5046773970
| 55>      8       0.0850000000      0.0382479313
| 56>      9       0.0457190000     -0.0168445131
| 57>     s 9 
| 58>      1     121.5550000000     -0.0001787250
| 59>      2      13.3508000000      0.0163895992
| 60>      3       8.3430400000     -0.0939950963
| 61>      4       5.2126200000      0.0892925570
| 62>      5       2.8482200000      0.1827087397
| 63>      6       0.7360920000     -0.4011844934
| 64>      7       0.3395250000     -0.4715373824
| 65>      8       0.0850000000      0.4001574723
| 66>      9       0.0457190000      0.8008822022
| 67>     s 9 
| 68>      1     121.5550000000     -0.0000263354
| 69>      2      13.3508000000      0.0026461842
| 70>      3       8.3430400000     -0.0519408458
| 71>      4       5.2126200000     -0.0038670948
| 72>      5       2.8482200000      0.3919913174
| 73>      6       0.7360920000     -1.0576804588
| 74>      7       0.3395250000     -0.0487331902
| 75>      8       0.0850000000      2.9491638692
| 76>      9       0.0457190000     -1.9980639570
| 77>     s 9 
| 78>      1     121.5550000000      0.0001481255
| 79>      2      13.3508000000     -0.0133251214
| 80>      3       8.3430400000      0.0253885311
| 81>      4       5.2126200000     -0.0970772961
| 82>      5       2.8482200000      0.3581841647
| 83>      6       0.7360920000     -1.2854739207
| 84>      7       0.3395250000      1.3049727005
| 85>      8       0.0850000000      0.1365818328
| 86>      9       0.0457190000     -1.3292088506
| 87>     s 1 
| 88>      1       0.0217750000      1.0000000000
| 89>     s 1 
| 90>      1       0.0104000000      1.0000000000
| 91>     p 8 
| 92>      1      15.7057000000     -0.0010080767
| 93>      2       9.8143400000      0.0184524032
| 94>      3       3.9515200000     -0.1533246591
| 95>      4       1.0287300000      0.3883165283
| 96>      5       0.5203410000      0.4715848602
| 97>      6       0.2628060000      0.2442435727
| 98>      7       0.1191270000      0.0374578484
| 99>      8       0.0532630000      0.0009170697
|100>     p 8 
|101>      1      15.7057000000     -0.0001805709
|102>      2       9.8143400000     -0.0056125387
|103>      3       3.9515200000      0.0576503457
|104>      4       1.0287300000     -0.1702659727
|105>      5       0.5203410000     -0.2335387515
|106>      6       0.2628060000     -0.1436255839
|107>      7       0.1191270000      0.3997109597
|108>      8       0.0532630000      0.7501409104
|109>     p 8 
|110>      1      15.7057000000     -0.0007298410
|111>      2       9.8143400000      0.0141706104
|112>      3       3.9515200000     -0.1235309271
|113>      4       1.0287300000      0.3589614328
|114>      5       0.5203410000      0.9046407030
|115>      6       0.2628060000     -0.9847230384
|116>      7       0.1191270000     -1.1462101946
|117>      8       0.0532630000      1.0585809211
|118>     p 8 
|119>      1      15.7057000000      0.0006910244
|120>      2       9.8143400000     -0.0128484404
|121>      3       3.9515200000      0.1185666248
|122>      4       1.0287300000     -0.5154230212
|123>      5       0.5203410000     -0.7028879343
|124>      6       0.2628060000      2.2700466042
|125>      7       0.1191270000     -1.5453824339
|126>      8       0.0532630000     -0.3565702745
|127>     p 1 
|128>      1       0.0233840000      1.0000000000
|129>     p 1 
|130>      1       0.0103000000      1.0000000000
|131>     d 7 
|132>      1      15.8535000000      0.0010211501
|133>      2       5.0818300000     -0.0053878023
|134>      3       1.4509500000      0.0893393145
|135>      4       0.6892770000      0.2364590511
|136>      5       0.3133420000      0.3351750356
|137>      6       0.1383830000      0.3533735371
|138>      7       0.0595550000      0.2577457082
|139>     d 7 
|140>      1      15.8535000000     -0.0014060533
|141>      2       5.0818300000      0.0072905989
|142>      3       1.4509500000     -0.1416376370
|143>      4       0.6892770000     -0.3740140400
|144>      5       0.3133420000     -0.4596080169
|145>      6       0.1383830000      0.0295760924
|146>      7       0.0595550000      0.7246857911
|147>     d 7 
|148>      1      15.8535000000      0.0014621721
|149>      2       5.0818300000     -0.0076455088
|150>      3       1.4509500000      0.1664317140
|151>      4       0.6892770000      0.5049568211
|152>      5       0.3133420000      0.1701314359
|153>      6       0.1383830000     -0.9860890950
|154>      7       0.0595550000     -0.0675322292
|155>     d 1 
|156>      1       0.0245030000      1.0000000000
|157>     d 1 
|158>      1       0.0101000000      1.0000000000
|159>   end
|160>   NewAuxGTO 39
|161>     S 1
|162>      1 1310.72 1.0
|163>     S 1
|164>      1  655.36 1.0
|165>     S 1
|166>      1  327.68 1.0
|167>     S 1
|168>      1  163.84 1.0
|169>     S 1
|170>      1   81.82 1.0
|171>     S 1
|172>      1   40.96 1.0
|173>     S 1
|174>      1   20.48 1.0
|175>     S 1
|176>      1   10.24 1.0
|177>     S 1
|178>      1    5.12 1.0
|179>     S 1
|180>      1    2.56 1.0
|181>     S 1
|182>      1    1.28 1.0
|183>     S 1
|184>      1    0.64 1.0
|185>     S 1
|186>      1    0.32 1.0
|187>     S 1
|188>      1    0.16 1.0
|189>     S 1
|190>      1    0.08 1.0
|191>     S 1
|192>      1    0.04 1.0
|193>     S 1
|194>      1    0.02 1.0
|195>     S 1
|196>      1    0.01 1.0
|197>   end
|198> end
|199> 
|200> * xyz 0 2
|201> 39  0.0 0.0 0.0
|202> *
|203> 
|204> 
|205>                          ****END OF INPUT****
================================================================================

                       ****************************
                       * Single Point Calculation *
                       ****************************

---------------------------------
CARTESIAN COORDINATES (ANGSTROEM)
---------------------------------
   Y     0.000000    0.000000    0.000000

----------------------------
CARTESIAN COORDINATES (A.U.)
----------------------------
  NO LB      ZA    FRAG     MASS         X           Y           Z
   0  Y   11.0000*   0    88.910    0.000000    0.000000    0.000000
* core charge reduced due to ECP

--------------------------------
INTERNAL COORDINATES (ANGSTROEM)
--------------------------------
  Y     0   0   0     0.000000000000     0.00000000     0.00000000

---------------------------
INTERNAL COORDINATES (A.U.)
---------------------------
  Y     0   0   0     0.000000000000     0.00000000     0.00000000

---------------------
BASIS SET INFORMATION
---------------------
There are 1 groups of distinct atoms

 Group   1 Type  Y  : 38s34p23d contracted to 6s6p5d pattern {999911/888811/77711}

Atom   0 Y   basis set group =>   1
---------------------------------
AUXILIARY/J BASIS SET INFORMATION
---------------------------------
There are 1 groups of distinct atoms

 Group   1 Type  Y  : 18s contracted to 18s pattern {111111111111111111}

Atom   0 Y   basis set group =>   1
-------------------------
ECP PARAMETER INFORMATION
-------------------------

 Group 1, Type  Y ECP (replacing 28 core electrons, lmax=4)

Atom   0 Y   ECP group =>   1

------------------------------------------------------------------------------
                           ORCA GTO INTEGRAL CALCULATION
------------------------------------------------------------------------------

                         BASIS SET STATISTICS AND STARTUP INFO

 # of primitive gaussian shells          ...   95
 # of primitive gaussian functions       ...  255
 # of contracted shells                  ...   17
 # of contracted basis functions         ...   49
 Highest angular momentum                ...    2
 Maximum contraction depth               ...    9
 Integral package used                   ... LIBINT
 Integral threshhold            Thresh   ...  1.000e-10
 Primitive cut-off              TCut     ...  1.000e-11
 Storage cut-off                TCutStore... -1.000e+00
 Buffer length                           ... 1048576 integrals/buffer
 Generate file with integrals 4 distinct ...false


------------------------------ INTEGRAL EVALUATION ----------------------------


 * One electron integrals 

   ECP integrals                         ... done
 Pre-screening matrix                    ... done
 Shell pair data                         ... done (   0.000 sec)
 Statistics run                          ... done
 Maximum amount of storage needed        ...     8 MB
 Maximum amount of storage dedicated     ... 500000 MB
 Beginning two electron integral evaluation:
 Starting repulsion integrals
  <ss|ss>  ...          231 b.         0 skpd (  0.0%)     0.013 s. (  0.055 ms/b)
  <ss|sp>  ...          756 b.         0 skpd (  0.0%)     0.033 s. (  0.044 ms/b)
  <ss|sd>  ...          630 b.         0 skpd (  0.0%)     0.062 s. (  0.099 ms/b)
  <ss|pp>  ...          441 b.         0 skpd (  0.0%)     0.052 s. (  0.117 ms/b)
  <ss|pd>  ...          630 b.         0 skpd (  0.0%)     0.077 s. (  0.121 ms/b)
  <ss|dd>  ...          315 b.         0 skpd (  0.0%)     0.051 s. (  0.162 ms/b)
  <sp|sp>  ...          666 b.         0 skpd (  0.0%)     0.073 s. (  0.110 ms/b)
  <sp|sd>  ...         1080 b.         0 skpd (  0.0%)     0.129 s. (  0.120 ms/b)
  <sp|pp>  ...          756 b.         0 skpd (  0.0%)     0.117 s. (  0.155 ms/b)
  <sp|pd>  ...         1080 b.         0 skpd (  0.0%)     0.222 s. (  0.206 ms/b)
  <sp|dd>  ...          540 b.         0 skpd (  0.0%)     0.169 s. (  0.313 ms/b)
  <sd|sd>  ...          465 b.         0 skpd (  0.0%)     0.090 s. (  0.194 ms/b)
  <sd|pp>  ...          630 b.         0 skpd (  0.0%)     0.164 s. (  0.261 ms/b)
  <sd|pd>  ...          900 b.         0 skpd (  0.0%)     0.335 s. (  0.373 ms/b)
  <sd|dd>  ...          450 b.         0 skpd (  0.0%)     0.267 s. (  0.593 ms/b)
  <pp|pp>  ...          231 b.         0 skpd (  0.0%)     0.079 s. (  0.343 ms/b)
  <pp|pd>  ...          630 b.         0 skpd (  0.0%)     0.281 s. (  0.447 ms/b)
  <pp|dd>  ...          315 b.         0 skpd (  0.0%)     0.230 s. (  0.729 ms/b)
  <pd|pd>  ...          465 b.         0 skpd (  0.0%)     0.379 s. (  0.815 ms/b)
  <pd|dd>  ...          450 b.         0 skpd (  0.0%)     0.565 s. (  1.255 ms/b)
  <dd|dd>  ...          120 b.         0 skpd (  0.0%)     0.279 s. (  2.326 ms/b)


                                      INTEGRAL STATISTICS

Integral type statistics:
 Number of integrals retained            ...     750925 
 One   Center Integrals retained         ...     750925 (100.0%)
 Two   Center Integrals retained         ...          0 (  0.0%)
 Three Center Integrals retained         ...          0 (  0.0%)
 Four  Center Integrals retained         ...          0 (  0.0%)

Storage statistics:
 Number of char integrals                ...          0 (  0.0%)
 Number of short int integrals           ...          0 (  0.0%)
 Number of double/float integrals        ...     750925 (100.0%)
 Amount of memory used                   ...          9 MB
 Amount of memory estimated              ...          8 MB ( 95.6%)

Prescreening statistics:
 Total number of shell quadruples        ...      11781 
 Number of skipped shell quadruples      ...          0 (  0.0%)
 # of negligible batches done            ...          0 (  0.0%)

Timings:
 Total evaluation time               ...     3.997 sec (   0.067 min)
 One electron matrix time            ...     0.022 sec (   0.000 min) =  0.5%
 Schwartz matrix evaluation time     ...     0.221 sec (   0.004 min) =  5.5%
 Statistics run                      ...     0.006 sec (   0.000 min) =  0.1%
 Repulsion integral time             ...     3.668 sec (   0.061 min) = 91.8%

-------------------------------------------------------------------------------
                                 ORCA SCF
-------------------------------------------------------------------------------

------------
SCF SETTINGS
------------
Hamiltonian:
 Ab initio Hamiltonian  Method          .... Hartree-Fock(GTOs)


General Settings:
 Integral files         IntName         .... 39_Y_atom39
 Hartree-Fock type      HFTyp           .... ROHF
 Total Charge           Charge          ....    0
 Multiplicity           Mult            ....    2
 Number of Electrons    NEL             ....   11
 Basis Dimension        Dim             ....   49
 Nuclear Repulsion      ENuc            ....      0.0000000000 Eh

Convergence Acceleration:
 DIIS                   CNVDIIS         .... on
   Start iteration      DIISMaxIt       ....    12
   Startup error        DIISStart       ....  0.200000
   # of expansion vecs  DIISMaxEq       ....     5
   Bias factor          DIISBfac        ....   1.050
   Max. coefficient     DIISMaxC        ....  10.000
 Newton-Raphson         CNVNR           .... off
 SOSCF                  CNVSOSCF        .... off
 Level Shifting         CNVShift        .... on
   Level shift para.    LevelShift      ....    0.6000
   Turn off err/grad.   ShiftErr        ....    0.0010
 Zerner damping         CNVZerner       .... off
 Static damping         CNVDamp         .... on
   Fraction old density DampFac         ....    0.7000
   Max. Damping (<1)    DampMax         ....    0.9800
   Min. Damping (>=0)   DampMin         ....    0.0000
   Turn off err/grad.   DampErr         ....    0.1000
 Fernandez-Rico         CNVRico         .... off

SCF Procedure:
 Maximum # iterations   MaxIter         ....  1000
 SCF integral mode      SCFMode         .... Conventional
 Integral Threshold     Thresh          ....  1.000e-10 Eh
 Primitive CutOff       TCut            ....  1.000e-11 Eh
 Integral Buffer length BufferLength    .... 1048576
 Integral index format  IndFormat       ....     0
 Integral value format  ValFormat       ....     0
 Integral Storage       Thresh          ....  1.000e-10 Eh

Convergence Tolerance:
 Convergence Check Mode ConvCheckMode   .... Total+1el-Energy
 Convergence forced     ConvForced      .... 0
 Energy Change          TolE            ....  1.000e-06 Eh
 1-El. energy change                    ....  1.000e-03 Eh
 DIIS Error             TolErr          ....  1.000e-06


Diagonalization of the overlap matrix:
Smallest eigenvalue                        ... 4.007e-03
Time for diagonalization                   ...    0.002 sec
Threshold for overlap eigenvalues          ... 1.000e-08
Number of eigenvalues below threshold      ... 0
Time for construction of square roots      ...    0.004 sec
Total time needed                          ...    0.005 sec

--------------------
INITIAL GUESS: HCORE
--------------------
AVERAGE-CONFIGURATION (SAHF) CASE FOUND

-------------------
FINAL ROHF SETTINGS
-------------------
Number of operators             ... 3
  operator   0:   4 orbitals   8 electrons n(mue)= 2.000
  operator   1:   5 orbitals   1 electrons n(mue)= 0.200
  operator   2:   1 orbitals   2 electrons n(mue)= 2.000
Vector coupling coefficients a and b (Zerner convention):
   1.000    1.000    1.000           1.000    1.000    1.000 
   1.000    0.000    1.000           1.000    0.000    1.000 
   1.000    1.000    1.000           1.000    1.000    1.000 

                      -----------------
                      INTIAL GUESS DONE 
                      -----------------

 InCore treatment chosen:
   Memory dedicated               ...    1024 MB
   Memory needed                  ...      9 MB
   Number of tiny    integrals    ...       0
   Number of small   integrals    ...       0
   Number of regular integrals    ...  750925

--------------
SCF ITERATIONS
--------------
ITER       Energy         Delta-E        Max-DP      RMS-DP      [F,P]     Damp
  0    -34.7227729474   0.000000000000 0.75231673  0.01688201  0.9094462 0.7000
  1    -35.1472676177  -0.424494670310 0.62802976  0.01481061  0.4830168 0.7000
                            ****Activating DIIS****
  2    -36.6469936470  -1.499726029270 2.01891496  0.04558280  0.0921877 0.0000
  3    -36.8301098895  -0.183116242573 0.00371566  0.00008048  0.3741478 0.7000
  4    -36.8410740861  -0.010964196569 0.00313608  0.00006727  0.3686010 0.7000
  5    -36.8446870605  -0.003612974388 0.00615173  0.00017319  0.3681991 0.7000
  6    -36.8364026602   0.008284400342 0.00565187  0.00015794  0.3714285 0.7000
  7    -36.8469936843  -0.010591024173 0.10159988  0.00197959  0.3667129 0.7000
  8    -37.0878104463  -0.240816761947 0.27049119  0.00702184  0.1601023 0.7000
  9    -36.7637979847   0.324012461625 0.18931680  0.00491079  0.3646596 0.7000
 10    -36.8485500906  -0.084752105952 0.13246765  0.00343260  0.3501637 0.7000
 11    -36.9102210286  -0.061670937982 0.09268224  0.00240025  0.3382164 0.7000
 12    -36.9528329378  -0.042611909202 0.06444776  0.00168351  0.3304607 0.7000
 13    -37.0049364676  -0.052103529843 0.22284915  0.00648688  0.3086145 0.7000
 14    -36.7532973423   0.251639125331 0.15379815  0.00435450  0.3714408 0.7000
 15    -36.9288465561  -0.175549213789 0.10784082  0.00300776  0.3110626 0.7000
 16    -37.0564373648  -0.127590808704 0.07614113  0.00222766  0.2613816 0.7000
 17    -37.2200717758  -0.163634410987 0.05260160  0.00201252  0.1364586 0.7000
 18    -37.3293742401  -0.109302464320 0.15101092  0.00580598  0.0377652 0.0000
 19    -37.4991045198  -0.169730279741 0.00776720  0.00016933  0.0405696 0.0000
 20    -37.4981330199   0.000971499980 0.00046718  0.00001386  0.0403530 0.0000
 21    -37.4978810858   0.000251934065 0.00194175  0.00005958  0.0406100 0.0000
 22    -37.4985525293  -0.000671443538 0.01891970  0.00061320  0.0399686 0.0000
 23    -37.4994672139  -0.000914684558 0.04122089  0.00117898  0.0337602 0.0000
 24    -37.5082332840  -0.008766070099 0.02855163  0.00086398  0.0200729 0.0000
 25    -37.5168991559  -0.008665871946 0.04279603  0.00115530  0.0193053 0.0000
 26    -37.5271600374  -0.010260881479 0.02322704  0.00064684  0.0199735 0.0000
 27    -37.5325347669  -0.005374729470 0.00124462  0.00002993  0.0211326 0.0000
 28    -37.5323921775   0.000142589363 0.00179704  0.00005208  0.0211479 0.0000
 29    -37.5326446135  -0.000252436002 0.00210475  0.00007430  0.0211531 0.0000
 30    -37.5321286899   0.000515923595 0.01426505  0.00042841  0.0210542 0.0000
 31    -37.5356906573  -0.003561967319 0.01227316  0.00037676  0.0217524 0.0000
 32    -37.5387839067  -0.003093249485 0.01572801  0.00047917  0.0223880 0.0000
 33    -37.5348817167   0.003902190030 0.00464266  0.00014238  0.0215894 0.0000
 34    -37.5360827765  -0.001201059831 0.00796037  0.00024856  0.0218126 0.0000
 35    -37.5381441053  -0.002061328714 0.01503216  0.00044554  0.0222190 0.0000
 36    -37.5418034456  -0.003659340349 0.01156059  0.00034029  0.0229184 0.0000
 37    -37.5390061792   0.002797266451 0.00064862  0.00001874  0.0223942 0.0000
 38    -37.5388932411   0.000112938095 0.01370134  0.00040382  0.0223633 0.0000
 39    -37.5422233143  -0.003330073220 0.01368833  0.00038563  0.0229921 0.0000
 40    -37.5453816729  -0.003158358609 0.01535606  0.00043102  0.0235699 0.0000
 41    -37.5418749106   0.003506762295 0.00087583  0.00002553  0.0229198 0.0000
 42    -37.5416935427   0.000181367855 0.00954367  0.00027287  0.0228786 0.0000
 43    -37.5439351510  -0.002241608269 0.01912326  0.00052710  0.0232851 0.0000
 44    -37.5482527516  -0.004317600639 0.01597531  0.00043716  0.0240466 0.0000
 45    -37.5446811063   0.003571645310 0.00264985  0.00007345  0.0234278 0.0000
 46    -37.5440974100   0.000583696374 0.00847819  0.00023576  0.0233159 0.0000
 47    -37.5460271640  -0.001929754071 0.01763793  0.00047758  0.0236570 0.0000
 48    -37.5499335526  -0.003906388559 0.00278344  0.00007403  0.0243263 0.0000
 49    -37.5493305134   0.000603039223 0.00084028  0.00002259  0.0242288 0.0000
 50    -37.5495157906  -0.000185277233 0.01272627  0.00033683  0.0242594 0.0000
 51    -37.5522729494  -0.002757158775 0.00746089  0.00019488  0.0247078 0.0000
 52    -37.5538779953  -0.001605045892 0.01152600  0.00029811  0.0249619 0.0000
 53    -37.5563282257  -0.002450230423 0.01378345  0.00035740  0.0253392 0.0000
 54    -37.5534026460   0.002925579689 0.01758550  0.00045415  0.0248877 0.0000
 55    -37.5571289001  -0.003726254103 0.01901781  0.00048245  0.0254563 0.0000
 56    -37.5611041981  -0.003975298019 0.02039953  0.00051982  0.0260242 0.0000
 57    -37.5568394227   0.004264775463 0.01296956  0.00033034  0.0254133 0.0000
 58    -37.5595578039  -0.002718381220 0.00772832  0.00019514  0.0258079 0.0000
 59    -37.5611648980  -0.001607094134 0.02796912  0.00069767  0.0260309 0.0000
 60    -37.5669289149  -0.005764016877 0.03696447  0.00092890  0.0267818 0.0000
 61    -37.5592749595   0.007653955369 0.00889060  0.00023139  0.0257656 0.0000
 62    -37.5573913985   0.001883561008 0.00206935  0.00005506  0.0254838 0.0000
 63    -37.5577876381  -0.000396239573 0.01146841  0.00031123  0.0255304 0.0000
 64    -37.5552871555   0.002500482622 0.03280287  0.00091052  0.0251246 0.0000
 65    -37.5479656729   0.007321482546 0.01584850  0.00041812  0.0238078 0.0000
 66    -37.5511721247  -0.003206451758 0.00770464  0.00023398  0.0242716 0.0000
 67    -37.5495932029   0.001578921810 0.02662704  0.00081918  0.0238854 0.0000
 68    -37.5435740922   0.006019110658 0.03233011  0.00097158  0.0224631 0.0000
 69    -37.5374457477   0.006128344469 0.04872477  0.00132399  0.0205648 0.0000
 70    -37.5299811919   0.007464555828 0.09015383  0.00223995  0.0176949 0.0000
 71    -37.5187438795   0.011237312432 0.03111021  0.00081971  0.0131347 0.0000
 72    -37.5164308970   0.002312982459 0.01599127  0.00058694  0.0139140 0.0000
 73    -37.5167092113  -0.000278314309 0.03776016  0.00117207  0.0125207 0.0000
 74    -37.5164274622   0.000281749145 0.02441906  0.00097598  0.0111041 0.0000
 75    -37.5179183662  -0.001490903974 0.02215404  0.00076922  0.0080032 0.0000
 76    -37.5192617899  -0.001343423773 0.02969203  0.00092599  0.0078115 0.0000
 77    -37.5210442352  -0.001782445312 0.02452458  0.00072222  0.0077101 0.0000
 78    -37.5224310522  -0.001386816920 0.02201850  0.00063445  0.0075244 0.0000
 79    -37.5235734890  -0.001142436832 0.02608111  0.00076646  0.0072893 0.0000
 80    -37.5248215041  -0.001248015112 0.03495198  0.00101988  0.0069526 0.0000
 81    -37.5263375875  -0.001516083418 0.03653412  0.00101181  0.0064651 0.0000
 82    -37.5278099738  -0.001472386315 0.00997331  0.00026534  0.0059593 0.0000
 83    -37.5282716027  -0.000461628893 0.01429414  0.00039464  0.0058398 0.0000
 84    -37.5277151650   0.000556437723 0.00304370  0.00008582  0.0060423 0.0000
 85    -37.5276032361   0.000111928871 0.00305111  0.00008498  0.0060841 0.0000
 86    -37.5277221073  -0.000118871137 0.01677997  0.00044876  0.0060410 0.0000
 87    -37.5284291729  -0.000707065587 0.01009214  0.00029108  0.0058143 0.0000
 88    -37.5280657085   0.000363464373 0.00163877  0.00004524  0.0059635 0.0000
 89    -37.5281471523  -0.000081443857 0.00675937  0.00018366  0.0059424 0.0000
 90    -37.5284265470  -0.000279394676 0.00695644  0.00018899  0.0058481 0.0000
 91    -37.5286984604  -0.000271913389 0.00341322  0.00011576  0.0057504 0.0000
 92    -37.5287612221  -0.000062761689 0.01156910  0.00032112  0.0057824 0.0000
 93    -37.5281439939   0.000617228197 0.00096407  0.00003375  0.0059277 0.0000
 94    -37.5281540736  -0.000010079695 0.00277084  0.00006471  0.0059132 0.0000
 95    -37.5280533183   0.000100755326 0.00640139  0.00017445  0.0059186 0.0000
 96    -37.5277503639   0.000302954414 0.00940589  0.00025263  0.0059714 0.0000
 97    -37.5273687835   0.000381580402 0.00466079  0.00014169  0.0060467 0.0000
 98    -37.5274544934  -0.000085709900 0.00670450  0.00015541  0.0059935 0.0000
 99    -37.5274468976   0.000007595796 0.00466754  0.00012552  0.0059692 0.0000
100    -37.5275573850  -0.000110487467 0.00626156  0.00015036  0.0059200 0.0000
101    -37.5277246739  -0.000167288860 0.01766695  0.00042360  0.0058523 0.0000
102    -37.5282053091  -0.000480635173 0.02034925  0.00045968  0.0056623 0.0000
103    -37.5287656318  -0.000560322720 0.01855086  0.00040891  0.0054465 0.0000
104    -37.5292700417  -0.000504409927 0.01170489  0.00024982  0.0052535 0.0000
105    -37.5295768215  -0.000306779774 0.00769281  0.00016025  0.0051367 0.0000
106    -37.5297697390  -0.000192917564 0.00681938  0.00014315  0.0050641 0.0000
107    -37.5299455689  -0.000175829811 0.00277727  0.00005934  0.0050003 0.0000
108    -37.5300196274  -0.000074058529 0.00151339  0.00003443  0.0049755 0.0000
109    -37.5300639558  -0.000044328437 0.00226574  0.00004887  0.0049608 0.0000
110    -37.5301262613  -0.000062305495 0.00346808  0.00007328  0.0049385 0.0000
111    -37.5302189068  -0.000092645476 0.00370033  0.00007865  0.0049059 0.0000
112    -37.5303197185  -0.000100811683 0.00188591  0.00004102  0.0048717 0.0000
113    -37.5303734460  -0.000053727505 0.00165516  0.00003649  0.0048546 0.0000
114    -37.5304219168  -0.000048470815 0.00225583  0.00004885  0.0048390 0.0000
115    -37.5304866396  -0.000064722766 0.00265944  0.00005728  0.0048179 0.0000
116    -37.5305628808  -0.000076241282 0.00220441  0.00004791  0.0047934 0.0000
117    -37.5306276058  -0.000064724977 0.00149790  0.00003324  0.0047733 0.0000
118    -37.5306733676  -0.000045761785 0.00199406  0.00004418  0.0047596 0.0000
119    -37.5307346505  -0.000061282905 0.00192781  0.00004237  0.0047412 0.0000
120    -37.5307936647  -0.000059014151 0.00211174  0.00004666  0.0047236 0.0000
121    -37.5308594541  -0.000065789465 0.00142479  0.00003183  0.0047044 0.0000
122    -37.5309050042  -0.000045550026 0.00189775  0.00004295  0.0046914 0.0000
123    -37.5309674058  -0.000062401613 0.00151477  0.00003400  0.0046742 0.0000
124    -37.5310170559  -0.000049650152 0.00200928  0.00004549  0.0046604 0.0000
125    -37.5310844352  -0.000067379260 0.00121080  0.00002734  0.0046423 0.0000
126    -37.5311252555  -0.000040820344 0.00203988  0.00004724  0.0046313 0.0000
127    -37.5311973569  -0.000072101375 0.00089236  0.00002017  0.0046130 0.0000
128    -37.5312280470  -0.000030690107 0.00257225  0.00006021  0.0046049 0.0000
129    -37.5313223025  -0.000094255450 0.00027975  0.00000721  0.0045818 0.0000
130    -37.5313105803   0.000011722142 0.00358938  0.00008571  0.0045837 0.0000
131    -37.5314484540  -0.000137873679 0.00181624  0.00004573  0.0045517 0.0000
132    -37.5313733290   0.000075124945 0.00347180  0.00008328  0.0045677 0.0000
133    -37.5315089844  -0.000135655317 0.00129992  0.00003149  0.0045367 0.0000
134    -37.5315614153  -0.000052430907 0.00012906  0.00000273  0.0045252 0.0000
135    -37.5315631381  -0.000001722833 0.00420446  0.00010361  0.0045239 0.0000
136    -37.5317406694  -0.000177531333 0.00720754  0.00018490  0.0045399 0.0000
137    -37.5314254806   0.000315188807 0.00185551  0.00003842  0.0045500 0.0000
138    -37.5314801386  -0.000054657992 0.00176721  0.00003782  0.0045330 0.0000
139    -37.5314235233   0.000056615298 0.00485154  0.00010995  0.0045369 0.0000
140    -37.5312592926   0.000164230745 0.01060456  0.00023581  0.0045560 0.0000
141    -37.5309698229   0.000289469702 0.00919322  0.00020497  0.0045895 0.0000
142    -37.5309219055   0.000047917345 0.01019816  0.00023006  0.0045543 0.0000
143    -37.5309356405  -0.000013734999 0.00550940  0.00013145  0.0045145 0.0000
144    -37.5310414003  -0.000105759766 0.00540984  0.00010859  0.0044635 0.0000
145    -37.5311479414  -0.000106541143 0.01273994  0.00025765  0.0044155 0.0000
146    -37.5314014289  -0.000253487488 0.01785087  0.00034433  0.0043031 0.0000
147    -37.5317480067  -0.000346577782 0.02402242  0.00046289  0.0041501 0.0000
148    -37.5322181087  -0.000470102001 0.01201243  0.00022782  0.0039459 0.0000
149    -37.5324523992  -0.000234290520 0.00080749  0.00001744  0.0038486 0.0000
150    -37.5324665014  -0.000014102143 0.00062789  0.00001400  0.0038470 0.0000
151    -37.5324546987   0.000011802717 0.00131941  0.00002527  0.0038544 0.0000
152    -37.5324810052  -0.000026306531 0.00467886  0.00009012  0.0038431 0.0000
153    -37.5325768119  -0.000095806710 0.00459832  0.00008830  0.0038051 0.0000
154    -37.5326718212  -0.000095009302 0.00044065  0.00000922  0.0037688 0.0000
155    -37.5326812870  -0.000009465810 0.00143561  0.00002834  0.0037667 0.0000
156    -37.5327126266  -0.000031339598 0.00204286  0.00003984  0.0037561 0.0000
157    -37.5327567350  -0.000044108352 0.00347290  0.00006789  0.0037399 0.0000
158    -37.5328328170  -0.000076082048 0.00140835  0.00002737  0.0037126 0.0000
159    -37.5328637154  -0.000030898438 0.00142798  0.00002870  0.0037019 0.0000
160    -37.5328969107  -0.000033195215 0.00178873  0.00003580  0.0036914 0.0000
161    -37.5329386215  -0.000041710841 0.00203772  0.00004054  0.0036777 0.0000
162    -37.5329861056  -0.000047484106 0.00213299  0.00004263  0.0036617 0.0000
163    -37.5330367122  -0.000050606570 0.00066286  0.00001327  0.0036453 0.0000
164    -37.5330526259  -0.000015913702 0.00269315  0.00005548  0.0036404 0.0000
165    -37.5331206998  -0.000068073963 0.00009519  0.00000219  0.0036200 0.0000
166    -37.5331191561   0.000001543761 0.00375785  0.00007815  0.0036197 0.0000
167    -37.5332173658  -0.000098209736 0.00195852  0.00004302  0.0035910 0.0000
168    -37.5331620542   0.000055311599 0.00321595  0.00006769  0.0036058 0.0000
169    -37.5332482436  -0.000086189352 0.00223624  0.00004765  0.0035814 0.0000
170    -37.5333104527  -0.000062209138 0.00145695  0.00003356  0.0035644 0.0000
171    -37.5332656658   0.000044786950 0.00408246  0.00008736  0.0035753 0.0000
172    -37.5333810716  -0.000115405888 0.00291354  0.00006426  0.0035443 0.0000
173    -37.5332950063   0.000086065316 0.00474043  0.00010236  0.0035663 0.0000
174    -37.5334320586  -0.000137052270 0.00067493  0.00001575  0.0036084 0.0000
175    -37.5334101794   0.000021879162 0.00158978  0.00003395  0.0035553 0.0000
176    -37.5334562541  -0.000046074669 0.00289543  0.00006440  0.0036537 0.0000
177    -37.5335467093  -0.000090455238 0.00497713  0.00011552  0.0038556 0.0000
178    -37.5333845609   0.000162148452 0.00409905  0.00008684  0.0035388 0.0000
179    -37.5335017646  -0.000117203707 0.00127139  0.00002602  0.0037181 0.0000
180    -37.5335368213  -0.000035056663 0.00229501  0.00005049  0.0037863 0.0000
181    -37.5336083786  -0.000071557345 0.00144042  0.00002814  0.0039420 0.0000
182    -37.5335713870   0.000036991595 0.00017476  0.00000319  0.0038789 0.0000
183    -37.5335750180  -0.000003630986 0.00639666  0.00014309  0.0038829 0.0000
184    -37.5337854499  -0.000210431857 0.01083157  0.00026091  0.0043381 0.0000
185    -37.5334057965   0.000379653358 0.00525499  0.00014226  0.0035230 0.0000
186    -37.5332215098   0.000184286722 0.00993193  0.00025449  0.0035584 0.0000
187    -37.5329490732   0.000272436604 0.00769122  0.00017325  0.0036145 0.0000
188    -37.5328399174   0.000109155783 0.00281619  0.00007539  0.0036322 0.0000
189    -37.5328630289  -0.000023111513 0.00439589  0.00008180  0.0036145 0.0000
190    -37.5329274483  -0.000064419399 0.00402506  0.00007358  0.0035827 0.0000
191    -37.5329868925  -0.000059444236 0.01382781  0.00025434  0.0035539 0.0000
192    -37.5331915656  -0.000204673060 0.02406517  0.00043267  0.0034554 0.0000
193    -37.5335515117  -0.000359946139 0.02449319  0.00043406  0.0034266 0.0000
194    -37.5339177503  -0.000366238545 0.01108856  0.00019192  0.0034115 0.0000
195    -37.5340796051  -0.000161854810 0.00432739  0.00007243  0.0034050 0.0000
196    -37.5341389973  -0.000059392207 0.00328978  0.00005510  0.0034028 0.0000
197    -37.5341843742  -0.000045376872 0.00324891  0.00005550  0.0034011 0.0000
198    -37.5342312156  -0.000046841384 0.00433665  0.00007563  0.0033991 0.0000
199    -37.5342964193  -0.000065203717 0.00332333  0.00005818  0.0033961 0.0000
200    -37.5343470472  -0.000050627946 0.00224173  0.00003873  0.0033937 0.0000
201    -37.5343806295  -0.000033582311 0.00253278  0.00004366  0.0033922 0.0000
202    -37.5344185851  -0.000037955548 0.00272247  0.00004736  0.0033905 0.0000
203    -37.5344602830  -0.000041697924 0.00269417  0.00004733  0.0033886 0.0000
204    -37.5345025346  -0.000042251603 0.00206369  0.00003637  0.0033866 0.0000
205    -37.5345352889  -0.000032754290 0.00202832  0.00003562  0.0033851 0.0000
206    -37.5345674902  -0.000032201276 0.00225396  0.00003968  0.0033835 0.0000
207    -37.5346036609  -0.000036170756 0.00211720  0.00003751  0.0033818 0.0000
208    -37.5346382667  -0.000034605728 0.00196042  0.00003495  0.0033802 0.0000
209    -37.5346708728  -0.000032606164 0.00175306  0.00003132  0.0033787 0.0000
210    -37.5347003565  -0.000029483687 0.00196285  0.00003515  0.0033773 0.0000
211    -37.5347337354  -0.000033378872 0.00180300  0.00003239  0.0033757 0.0000
212    -37.5347648131  -0.000031077695 0.00178116  0.00003221  0.0033742 0.0000
213    -37.5347961015  -0.000031288390 0.00162736  0.00002956  0.0033727 0.0000
214    -37.5348251195  -0.000029018070 0.00171594  0.00003130  0.0033714 0.0000
215    -37.5348561876  -0.000031068017 0.00165168  0.00003021  0.0033699 0.0000
216    -37.5348864838  -0.000030296296 0.00157093  0.00002890  0.0033685 0.0000
217    -37.5349158135  -0.000029329656 0.00159914  0.00002961  0.0033671 0.0000
218    -37.5349462482  -0.000030434671 0.00143814  0.00002671  0.0033657 0.0000
219    -37.5349739926  -0.000027744414 0.00170102  0.00003184  0.0033644 0.0000
220    -37.5350075295  -0.000033536927 0.00114903  0.00002142  0.0033629 0.0000
221    -37.5350302214  -0.000022691895 0.00200217  0.00003809  0.0033619 0.0000
222    -37.5350714774  -0.000041256014 0.00041586  0.00000741  0.0033600 0.0000
223    -37.5350791517  -0.000007674237 0.00312420  0.00006053  0.0033597 0.0000
224    -37.5351466787  -0.000067526992 0.00205615  0.00004193  0.0033567 0.0000
225    -37.5350988426   0.000047836066 0.00347036  0.00006753  0.0033588 0.0000
226    -37.5351748374  -0.000075994800 0.00144060  0.00002876  0.0033555 0.0000
227    -37.5352082029  -0.000033365557 0.00020717  0.00000477  0.0033540 0.0000
228    -37.5352025463   0.000005656659 0.00357941  0.00007131  0.0033542 0.0000
229    -37.5352866989  -0.000084152596 0.00525698  0.00010840  0.0033507 0.0000
230    -37.5351583123   0.000128386572 0.00357378  0.00006841  0.0033561 0.0000
231    -37.5352358357  -0.000077523362 0.00192848  0.00003672  0.0033527 0.0000
232    -37.5352780757  -0.000042240078 0.00123984  0.00002372  0.0033509 0.0000
233    -37.5353057354  -0.000027659640 0.00122950  0.00002841  0.0033497 0.0000
234    -37.5353414796  -0.000035744218 0.00325656  0.00006992  0.0034005 0.0000
235    -37.5352556552   0.000085824436 0.00537330  0.00010634  0.0033518 0.0000
236    -37.5353830324  -0.000127377200 0.00022408  0.00000467  0.0034720 0.0000
237    -37.5353873196  -0.000004287256 0.00164659  0.00003158  0.0034935 0.0000
238    -37.5354255533  -0.000038233646 0.00098726  0.00001956  0.0035735 0.0000
239    -37.5354013499   0.000024203390 0.00116334  0.00002260  0.0035201 0.0000
240    -37.5354289980  -0.000027648121 0.00649599  0.00013620  0.0035791 0.0000
241    -37.5356082010  -0.000179202972 0.01591197  0.00034719  0.0039881 0.0000
242    -37.5351701870   0.000438013980 0.01095769  0.00027485  0.0033553 0.0000
243    -37.5348857511   0.000284435911 0.01181602  0.00029448  0.0033691 0.0000
244    -37.5346742797   0.000211471391 0.00396254  0.00008593  0.0033841 0.0000
245    -37.5346780568  -0.000003777075 0.00340282  0.00005965  0.0033871 0.0000
246    -37.5347192870  -0.000041230204 0.00396780  0.00006550  0.0033862 0.0000
247    -37.5347678609  -0.000048573916 0.00371873  0.00006104  0.0033845 0.0000
248    -37.5348131937  -0.000045332773 0.01446977  0.00023958  0.0033828 0.0000
249    -37.5349893078  -0.000176114145 0.02956151  0.00048431  0.0033769 0.0000
250    -37.5353474103  -0.000358102461 0.03785181  0.00061618  0.0033632 0.0000
251    -37.5358068904  -0.000459480092 0.00959864  0.00015536  0.0033442 0.0000
252    -37.5359252923  -0.000118401980 0.00387983  0.00006458  0.0033392 0.0000
253    -37.5358786389   0.000046653488 0.00138017  0.00002259  0.0033415 0.0000
254    -37.5358957477  -0.000017108863 0.00265993  0.00004326  0.0033407 0.0000
255    -37.5359286083  -0.000032860560 0.00515620  0.00008427  0.0033393 0.0000
256    -37.5359946758  -0.000066067479 0.00296912  0.00004901  0.0033369 0.0000
257    -37.5360338495  -0.000039173767 0.00073123  0.00001220  0.0033355 0.0000
258    -37.5360252747   0.000008574846 0.00269541  0.00004427  0.0033360 0.0000
259    -37.5360607212  -0.000035446568 0.00208443  0.00003445  0.0033347 0.0000
260    -37.5360886969  -0.000027975646 0.00335134  0.00005582  0.0033338 0.0000
261    -37.5361347956  -0.000046098727 0.00026383  0.00000469  0.0033324 0.0000
262    -37.5361387169  -0.000003921262 0.00191676  0.00003261  0.0033323 0.0000
263    -37.5361663679  -0.000027651058 0.00185676  0.00003100  0.0033316 0.0000
264    -37.5361924885  -0.000026120528 0.00209873  0.00003553  0.0033308 0.0000
265    -37.5362230479  -0.000030559401 0.00155611  0.00002649  0.0033300 0.0000
266    -37.5362461282  -0.000023080308 0.00076820  0.00001330  0.0033294 0.0000
267    -37.5362579053  -0.000011777146 0.00269822  0.00004663  0.0033292 0.0000
268    -37.5362995504  -0.000041645045 0.00008293  0.00000198  0.0033282 0.0000
269    -37.5362989308   0.000000619587 0.00350959  0.00006162  0.0033281 0.0000
270    -37.5363554344  -0.000056503614 0.00187800  0.00003403  0.0033270 0.0000
271    -37.5363236417   0.000031792721 0.00319326  0.00005649  0.0033275 0.0000
272    -37.5363760679  -0.000052426254 0.00187078  0.00003302  0.0033266 0.0000
273    -37.5364071908  -0.000031122895 0.00061852  0.00001209  0.0033260 0.0000
274    -37.5363953470   0.000011843826 0.00379161  0.00006834  0.0033261 0.0000
275    -37.5364614106  -0.000066063641 0.00403891  0.00007496  0.0033251 0.0000
276    -37.5363882669   0.000073143749 0.00405742  0.00007238  0.0033260 0.0000
277    -37.5364575435  -0.000069276574 0.00236042  0.00004294  0.0033248 0.0000
278    -37.5365000348  -0.000042491308 0.00213142  0.00003909  0.0033243 0.0000
279    -37.5364611814   0.000038853409 0.00289298  0.00005225  0.0033248 0.0000
280    -37.5365128596  -0.000051678279 0.00063844  0.00001229  0.0033240 0.0000
281    -37.5365002957   0.000012563926 0.00550414  0.00010220  0.0033241 0.0000
282    -37.5366056040  -0.000105308329 0.00844886  0.00016318  0.0033230 0.0000
283    -37.5364380395   0.000167564554 0.00329086  0.00007375  0.0033242 0.0000
284    -37.5363668467   0.000071192748 0.00472018  0.00012147  0.0033239 0.0000
285    -37.5362620206   0.000104826150 0.00633149  0.00015728  0.0033226 0.0000
286    -37.5361547256   0.000107295028 0.00378444  0.00008132  0.0033200 0.0000
287    -37.5361352738   0.000019451754 0.00425598  0.00007076  0.0033163 0.0000
288    -37.5361769160  -0.000041642174 0.00340319  0.00005586  0.0033118 0.0000
289    -37.5362108073  -0.000033891300 0.00379257  0.00005949  0.0033083 0.0000
290    -37.5362498583  -0.000039051058 0.01332051  0.00021041  0.0033049 0.0000
291    -37.5363864771  -0.000136618738 0.02351971  0.00036753  0.0032922 0.0000
292    -37.5366291833  -0.000242706212 0.03044148  0.00047305  0.0032697 0.0000
293    -37.5369444695  -0.000315286252 0.01778322  0.00027460  0.0032390 0.0000
294    -37.5371290663  -0.000184596803 0.00416244  0.00006374  0.0032203 0.0000
295    -37.5371718308  -0.000042764432 0.00075015  0.00001228  0.0032161 0.0000
296    -37.5371792925  -0.000007461689 0.00064838  0.00001035  0.0032155 0.0000
297    -37.5371859817  -0.000006689265 0.00357737  0.00005534  0.0032148 0.0000
298    -37.5372237602  -0.000037778492 0.00495734  0.00007673  0.0032109 0.0000
299    -37.5372764382  -0.000052677958 0.00311663  0.00004835  0.0032053 0.0000
300    -37.5373098768  -0.000033438664 0.00168518  0.00002632  0.0032018 0.0000
301    -37.5373281886  -0.000018311795 0.00187136  0.00002928  0.0031999 0.0000
302    -37.5373486715  -0.000020482832 0.00271067  0.00004235  0.0031978 0.0000
303    -37.5373784526  -0.000029781086 0.00280825  0.00004392  0.0031946 0.0000
304    -37.5374095451  -0.000031092552 0.00195083  0.00003065  0.0031913 0.0000
305    -37.5374314307  -0.000021885593 0.00177187  0.00002801  0.0031890 0.0000
306    -37.5374515950  -0.000020164262 0.00199875  0.00003165  0.0031869 0.0000
307    -37.5374745311  -0.000022936121 0.00214615  0.00003399  0.0031845 0.0000
308    -37.5374993203  -0.000024789236 0.00189534  0.00003009  0.0031818 0.0000
309    -37.5375214337  -0.000022113419 0.00165308  0.00002642  0.0031795 0.0000
310    -37.5375410370  -0.000019603300 0.00176980  0.00002842  0.0031774 0.0000
311    -37.5375623140  -0.000021276958 0.00174016  0.00002798  0.0031752 0.0000
312    -37.5375834201  -0.000021106104 0.00172375  0.00002777  0.0031730 0.0000
313    -37.5376045346  -0.000021114542 0.00153816  0.00002490  0.0031708 0.0000
314    -37.5376236462  -0.000019111568 0.00160858  0.00002622  0.0031689 0.0000
315    -37.5376439841  -0.000020337922 0.00153332  0.00002506  0.0031668 0.0000
316    -37.5376635910  -0.000019606905 0.00154112  0.00002526  0.0031648 0.0000
317    -37.5376835294  -0.000019938369 0.00145274  0.00002390  0.0031627 0.0000
318    -37.5377025813  -0.000019051843 0.00144665  0.00002396  0.0031608 0.0000
319    -37.5377218936  -0.000019312315 0.00144189  0.00002399  0.0031589 0.0000
320    -37.5377414284  -0.000019534820 0.00134706  0.00002247  0.0031569 0.0000
321    -37.5377598938  -0.000018465387 0.00144840  0.00002431  0.0031551 0.0000
322    -37.5377801009  -0.000020207098 0.00119537  0.00002011  0.0031531 0.0000
323    -37.5377969698  -0.000016868964 0.00157102  0.00002674  0.0031515 0.0000
324    -37.5378197203  -0.000022750437 0.00085505  0.00001438  0.0031493 0.0000
325    -37.5378319681  -0.000012247874 0.00202623  0.00003501  0.0031481 0.0000
326    -37.5378625091  -0.000030540955 0.00015317  0.00000357  0.0031453 0.0000
327    -37.5378592683   0.000003240825 0.00317484  0.00005577  0.0031456 0.0000
328    -37.5379091070  -0.000049838689 0.00221087  0.00004045  0.0031410 0.0000
329    -37.5378723274   0.000036779536 0.00288132  0.00005052  0.0031443 0.0000
330    -37.5379176116  -0.000045284195 0.00237607  0.00004288  0.0031401 0.0000
331    -37.5379573436  -0.000039732005 0.00310369  0.00005808  0.0031366 0.0000
332    -37.5379031832   0.000054160426 0.00282477  0.00004917  0.0031413 0.0000
333    -37.5379476296  -0.000044446392 0.00095082  0.00001647  0.0031373 0.0000
334    -37.5379626764  -0.000015046854 0.00377394  0.00006934  0.0031359 0.0000
335    -37.5380290734  -0.000066396990 0.00704975  0.00013228  0.0031303 0.0000
336    -37.5379037961   0.000125277341 0.00322595  0.00006910  0.0031410 0.0000
337    -37.5378416516   0.000062144499 0.00455345  0.00011259  0.0031465 0.0000
338    -37.5377503587   0.000091292906 0.00788696  0.00019475  0.0031550 0.0000
339    -37.5376242016   0.000126157080 0.00526315  0.00011214  0.0031696 0.0000
340    -37.5375912757   0.000032925879 0.00400196  0.00006519  0.0031764 0.0000
341    -37.5376284028  -0.000037127069 0.00315345  0.00004884  0.0031735 0.0000
342    -37.5376583923  -0.000029989485 0.00307990  0.00004625  0.0031708 0.0000
343    -37.5376879035  -0.000029511212 0.00978434  0.00014842  0.0031678 0.0000
344    -37.5377820970  -0.000094193515 0.01434958  0.00021561  0.0031588 0.0000
345    -37.5379210449  -0.000138947908 0.01742019  0.00026114  0.0031447 0.0000
346    -37.5380911608  -0.000170115919 0.01287421  0.00019273  0.0031271 0.0000
347    -37.5382182689  -0.000127108053 0.00463038  0.00006944  0.0031137 0.0000
348    -37.5382646758  -0.000046406911 0.00155565  0.00002374  0.0031089 0.0000
349    -37.5382808031  -0.000016127322 0.00125154  0.00001917  0.0031073 0.0000
350    -37.5382938862  -0.000013083050 0.00310797  0.00004687  0.0031061 0.0000
351    -37.5383256715  -0.000031785329 0.00402361  0.00006066  0.0031029 0.0000
352    -37.5383670321  -0.000041360575 0.00278904  0.00004223  0.0030988 0.0000
353    -37.5383961454  -0.000029113329 0.00178103  0.00002722  0.0030959 0.0000
354    -37.5384151556  -0.000019010221 0.00184427  0.00002825  0.0030942 0.0000
355    -37.5384350056  -0.000019849940 0.00238803  0.00003647  0.0030923 0.0000
356    -37.5384607040  -0.000025698384 0.00240934  0.00003682  0.0030899 0.0000
357    -37.5384868126  -0.000026108692 0.00182474  0.00002804  0.0030875 0.0000
358    -37.5385069138  -0.000020101151 0.00168932  0.00002615  0.0030857 0.0000
359    -37.5385258670  -0.000018953162 0.00181155  0.00002810  0.0030841 0.0000
360    -37.5385463795  -0.000020512515 0.00189350  0.00002936  0.0030823 0.0000
361    -37.5385679459  -0.000021566405 0.00169996  0.00002643  0.0030805 0.0000
362    -37.5385875211  -0.000019575226 0.00154089  0.00002413  0.0030788 0.0000
363    -37.5386056000  -0.000018078905 0.00159581  0.00002513  0.0030773 0.0000
364    -37.5386246152  -0.000019015184 0.00155827  0.00002457  0.0030758 0.0000
365    -37.5386433555  -0.000018740332 0.00154241  0.00002437  0.0030744 0.0000
366    -37.5386621014  -0.000018745848 0.00139774  0.00002220  0.0030729 0.0000
367    -37.5386793575  -0.000017256136 0.00145743  0.00002332  0.0030716 0.0000
368    -37.5386976960  -0.000018338499 0.00135594  0.00002176  0.0030703 0.0000
369    -37.5387149583  -0.000017262268 0.00140754  0.00002267  0.0030690 0.0000
370    -37.5387331174  -0.000018159145 0.00126689  0.00002048  0.0030678 0.0000
371    -37.5387496789  -0.000016561497 0.00135956  0.00002217  0.0030666 0.0000
372    -37.5387678319  -0.000018152960 0.00119508  0.00001954  0.0030654 0.0000
373    -37.5387839799  -0.000016148059 0.00134781  0.00002219  0.0030644 0.0000
374    -37.5388025356  -0.000018555622 0.00107281  0.00001765  0.0030632 0.0000
375    -37.5388174127  -0.000014877104 0.00142984  0.00002387  0.0030623 0.0000
376    -37.5388378532  -0.000020440574 0.00078921  0.00001302  0.0030611 0.0000
377    -37.5388490164  -0.000011163187 0.00182045  0.00003092  0.0030604 0.0000
378    -37.5388761715  -0.000027155069 0.00014098  0.00000340  0.0030589 0.0000
379    -37.5388731143   0.000003057192 0.00292857  0.00005063  0.0030589 0.0000
380    -37.5389186656  -0.000045551296 0.00222458  0.00004018  0.0030566 0.0000
381    -37.5388819897   0.000036675948 0.00256559  0.00004405  0.0030582 0.0000
382    -37.5389215807  -0.000039591008 0.00268497  0.00004787  0.0030562 0.0000
383    -37.5389662285  -0.000044647867 0.00436926  0.00008051  0.0030542 0.0000
384    -37.5388913375   0.000074891005 0.00137827  0.00002119  0.0030572 0.0000
385    -37.5389086203  -0.000017282826 0.00066600  0.00001522  0.0030558 0.0000
386    -37.5388961486   0.000012471738 0.00118594  0.00001999  0.0030555 0.0000
387    -37.5389016897  -0.000005541051 0.00192092  0.00004089  0.0030535 0.0000
388    -37.5388776722   0.000024017510 0.00637699  0.00009990  0.0030514 0.0000
389    -37.5389591970  -0.000081524822 0.00865533  0.00012779  0.0030450 0.0000
390    -37.5390503857  -0.000091188735 0.00534359  0.00007983  0.0030343 0.0000
391    -37.5390072711   0.000043114609 0.00034873  0.00000577  0.0030420 0.0000
392    -37.5390021841   0.000005087007 0.00179021  0.00002640  0.0030423 0.0000
393    -37.5390184442  -0.000016260133 0.01145112  0.00017211  0.0030399 0.0000
394    -37.5391542065  -0.000135762241 0.01745894  0.00025872  0.0030267 0.0000
395    -37.5389623663   0.000191840189 0.00382454  0.00005865  0.0030480 0.0000
396    -37.5389354412   0.000026925127 0.00064366  0.00001458  0.0030538 0.0000
397    -37.5389490495  -0.000013608389 0.00448354  0.00006840  0.0030536 0.0000
398    -37.5390052952  -0.000056245667 0.00890124  0.00013248  0.0030488 0.0000
399    -37.5391069923  -0.000101697141 0.02193108  0.00033051  0.0030382 0.0000
400    -37.5388444965   0.000262495823 0.01099087  0.00016248  0.0030628 0.0000
401    -37.5387332494   0.000111247089 0.01708105  0.00025468  0.0030763 0.0000
402    -37.5385486576   0.000184591841 0.02829047  0.00042408  0.0030957 0.0000
403    -37.5382443312   0.000304326407 0.03128085  0.00047137  0.0031260 0.0000
404    -37.5379154184   0.000328912797 0.00877934  0.00013259  0.0031575 0.0000
405    -37.5378304620   0.000084956398 0.01357200  0.00020598  0.0031669 0.0000
406    -37.5376907677   0.000139694335 0.00537458  0.00008216  0.0031797 0.0000
407    -37.5376360963   0.000054671368 0.00307680  0.00004735  0.0031847 0.0000
408    -37.5376682598  -0.000032163472 0.01906506  0.00028861  0.0031821 0.0000
409    -37.5378630458  -0.000194786055 0.00800697  0.00012170  0.0031639 0.0000
410    -37.5377830540   0.000079991793 0.00004481  0.00000107  0.0031720 0.0000
                 **** Energy Check signals convergence ****

               *****************************************************
               *                     SUCCESS                       *
               *           SCF CONVERGED AFTER 411 CYCLES          *
               *****************************************************


----------------
TOTAL SCF ENERGY
----------------

Total Energy       :          -37.53778263 Eh           -1021.45500 eV

Components:
Nuclear Repulsion  :            0.00000000 Eh               0.00000 eV
Electronic Energy  :          -37.53778263 Eh           -1021.45500 eV
One Electron Energy:          -62.87752336 Eh           -1710.98440 eV
Two Electron Energy:           25.33974073 Eh             689.52940 eV

Virial components:
Potential Energy   :          -49.86975260 Eh           -1357.02496 eV
Kinetic Energy     :           12.33196996 Eh             335.56996 eV
Virial Ratio       :            4.04394049


---------------
SCF CONVERGENCE
---------------

  Last Energy change         ...    4.2117e-07  Tolerance :   1.0000e-06
  Last MAX-Density change    ...    2.8225e-03  Tolerance :   1.0000e-05
  Last RMS-Density change    ...    4.2829e-05  Tolerance :   1.0000e-06
  Last DIIS Error            ...    3.1721e-03  Tolerance :   1.0000e-06

             **** THE GBW FILE WAS UPDATED (39_Y_atom39.gbw) ****
             **** DENSITY FILE WAS UPDATED (39_Y_atom39.scfp) ****
             **** ENERGY FILE WAS UPDATED (39_Y_atom39.en.tmp) ****
             **** THE GBW FILE WAS UPDATED (39_Y_atom39.gbw) ****
             **** DENSITY FILE WAS UPDATED (39_Y_atom39.scfp) ****
----------------
ORBITAL ENERGIES
----------------

  NO   OCC          E(Eh)            E(eV) 
   0   2.0000      -2.158350       -58.7317 
   1   2.0000      -1.254463       -34.1357 
   2   2.0000      -1.250673       -34.0325 
   3   2.0000      -1.233748       -33.5720 
   4   0.2000      -0.208100        -5.6627 
   5   0.2000      -0.138404        -3.7662 
   6   0.2000      -0.111992        -3.0475 
   7   0.2000      -0.106512        -2.8983 
   8   0.2000      -0.093548        -2.5456 
   9   2.0000      -0.135852        -3.6967 
  10   0.0000       0.011719         0.3189 
  11   0.0000       0.012720         0.3461 
  12   0.0000       0.021809         0.5934 
  13   0.0000       0.027176         0.7395 
  14   0.0000       0.029747         0.8095 
  15   0.0000       0.032087         0.8731 
  16   0.0000       0.032996         0.8979 
  17   0.0000       0.033895         0.9223 
  18   0.0000       0.049978         1.3600 
  19   0.0000       0.051605         1.4042 
  20   0.0000       0.056895         1.5482 
  21   0.0000       0.072314         1.9678 
  22   0.0000       0.108569         2.9543 
  23   0.0000       0.113304         3.0832 
  24   0.0000       0.115480         3.1424 
  25   0.0000       0.120425         3.2769 
  26   0.0000       0.140196         3.8149 
  27   0.0000       0.167625         4.5613 
  28   0.0000       0.170435         4.6378 
  29   0.0000       0.184992         5.0339 
  30   0.0000       0.211031         5.7424 
  31   0.0000       0.331179         9.0118 
  32   0.0000       0.339661         9.2427 
  33   0.0000       0.342631         9.3235 
  34   0.0000       0.349226         9.5029 
  35   0.0000       0.355032         9.6609 
  36   0.0000       0.524947        14.2845 
  37   0.0000       0.530621        14.4389 
  38   0.0000       0.559795        15.2328 
  39   0.0000       1.055484        28.7212 
  40   0.0000       1.057051        28.7638 
  41   0.0000       1.078597        29.3501 
  42   0.0000       1.078800        29.3556 
  43   0.0000       1.084255        29.5041 
  44   0.0000       1.100349        29.9420 
  45   0.0000       1.593282        43.3554 
  46   0.0000       1.601735        43.5854 
  47   0.0000       1.638541        44.5870 
  48   0.0000       7.823092       212.8772 
CleanUpVectors: The p-vectors have cracked symmetry
CleanUpVectors: The p-vectors have cracked symmetry
CleanUpVectors: The p-vectors have cracked symmetry
CleanUpVectors: The p-vectors have cracked symmetry
CleanUpVectors: The d-vectors have cracked symmetry at i=6
CleanUpVectors: The d-vectors have cracked symmetry at i=7
CleanUpVectors: The d-vectors have cracked symmetry at i=8
CleanUpVectors: The d-vectors have cracked symmetry at i=9
CleanUpVectors: The p-vectors have cracked symmetry
CleanUpVectors: The p-vectors have cracked symmetry
CleanUpVectors: The d-vectors have cracked symmetry at i=13
CleanUpVectors: The d-vectors have cracked symmetry at i=14
CleanUpVectors: The d-vectors have cracked symmetry at i=15
CleanUpVectors: The d-vectors have cracked symmetry at i=16
CleanUpVectors: The d-vectors have cracked symmetry at i=17
CleanUpVectors: The p-vectors have cracked symmetry
CleanUpVectors: The p-vectors have cracked symmetry
CleanUpVectors: The p-vectors have cracked symmetry
CleanUpVectors: The d-vectors have cracked symmetry at i=21
CleanUpVectors: The d-vectors have cracked symmetry at i=22
CleanUpVectors: The d-vectors have cracked symmetry at i=23
CleanUpVectors: The d-vectors have cracked symmetry at i=24
CleanUpVectors: The d-vectors have cracked symmetry at i=25
CleanUpVectors: The d-vectors have cracked symmetry at i=26
CleanUpVectors: The p-vectors have cracked symmetry
CleanUpVectors: The p-vectors have cracked symmetry
CleanUpVectors: The p-vectors have cracked symmetry
CleanUpVectors: The d-vectors have cracked symmetry at i=31
CleanUpVectors: The d-vectors have cracked symmetry at i=32
CleanUpVectors: The d-vectors have cracked symmetry at i=33
CleanUpVectors: The d-vectors have cracked symmetry at i=34
CleanUpVectors: The d-vectors have cracked symmetry at i=35
CleanUpVectors: The p-vectors have cracked symmetry
CleanUpVectors: The p-vectors have cracked symmetry
CleanUpVectors: The p-vectors have cracked symmetry
CleanUpVectors: The d-vectors have cracked symmetry at i=39
CleanUpVectors: The d-vectors have cracked symmetry at i=40
CleanUpVectors: The d-vectors have cracked symmetry at i=41
CleanUpVectors: The d-vectors have cracked symmetry at i=42
CleanUpVectors: The d-vectors have cracked symmetry at i=43
CleanUpVectors: The p-vectors have cracked symmetry
CleanUpVectors: The p-vectors have cracked symmetry
--------------------------
ATOM BASIS FOR ELEMENT  Y
--------------------------
 NewGTO  Y
 S 38
    1        121.555000000000         0.000398405624
    2         13.350800000000        -0.037318320883
    3          8.343040000000         0.210094537679
    4          5.212620000000        -0.173999391881
    5          2.848220000000        -0.448389999471
    6          0.736092000000         0.750426359501
    7          0.339525000000         0.503162278939
    8          0.085000000000         0.038133105211
    9          0.045719000000        -0.016793943318
   10        121.555000000000        -0.000001006637
   11         13.350800000000         0.000092311556
   12          8.343040000000        -0.000529410971
   13          5.212620000000         0.000502924739
   14          2.848220000000         0.001029075080
   15          0.736092000000        -0.002259601622
   16          0.339525000000        -0.002655851988
   17          0.085000000000         0.002253817105
   18          0.045719000000         0.004510829190
   19        121.555000000000         0.000000005277
   20         13.350800000000        -0.000000530259
   21          8.343040000000         0.000010408236
   22          5.212620000000         0.000000774913
   23          2.848220000000        -0.000078549709
   24          0.736092000000         0.000211944726
   25          0.339525000000         0.000009765466
   26          0.085000000000        -0.000590972180
   27          0.045719000000         0.000400384741
   28        121.555000000000         0.000000678057
   29         13.350800000000        -0.000060996847
   30          8.343040000000         0.000116218105
   31          5.212620000000        -0.000444379366
   32          2.848220000000         0.001639617689
   33          0.736092000000        -0.005884363371
   34          0.339525000000         0.005973620651
   35          0.085000000000         0.000625214655
   36          0.045719000000        -0.006084563636
   37          0.021775000000         0.012160089075
   38          0.010400000000         0.000976711795
 P 95
    1         15.705700000000         0.000971581145
    2          9.814340000000        -0.017784368018
    3          3.951520000000         0.147773822962
    4          1.028730000000        -0.374258245497
    5          0.520341000000        -0.454512001212
    6          0.262806000000        -0.235401185195
    7          0.119127000000        -0.036101756172
    8          0.053263000000        -0.000883868885
    9         15.705700000000         0.000182430424
   10          9.814340000000        -0.003339309135
   11          3.951520000000         0.027746978494
   12          1.028730000000        -0.070273173428
   13          0.520341000000        -0.085342142947
   14          0.262806000000        -0.044200464549
   15          0.119127000000        -0.006778701613
   16          0.053263000000        -0.000165960997
   17         15.705700000000        -0.000199568574
   18          9.814340000000         0.003653015475
   19          3.951520000000        -0.030353626370
   20          1.028730000000         0.076874880287
   21          0.520341000000         0.093359481328
   22          0.262806000000         0.048352810256
   23          0.119127000000         0.007415516471
   24          0.053263000000         0.000181551951
   25         15.705700000000        -0.000000146837
   26          9.814340000000        -0.000004564028
   27          3.951520000000         0.000046880357
   28          1.028730000000        -0.000138457619
   29          0.520341000000        -0.000189910051
   30          0.262806000000        -0.000116794073
   31          0.119127000000         0.000325038685
   32          0.053263000000         0.000610002826
   33         15.705700000000        -0.000000027571
   34          9.814340000000        -0.000000856972
   35          3.951520000000         0.000008802562
   36          1.028730000000        -0.000025997707
   37          0.520341000000        -0.000035658752
   38          0.262806000000        -0.000021930018
   39          0.119127000000         0.000061031387
   40          0.053263000000         0.000114538116
   41         15.705700000000         0.000000030161
   42          9.814340000000         0.000000937479
   43          3.951520000000        -0.000009629506
   44          1.028730000000         0.000028440022
   45          0.520341000000         0.000039008659
   46          0.262806000000         0.000023990201
   47          0.119127000000        -0.000066764888
   48          0.053263000000        -0.000125298226
   49         15.705700000000         0.000000661570
   50          9.814340000000        -0.000012845061
   51          3.951520000000         0.000111975574
   52          1.028730000000        -0.000325383396
   53          0.520341000000        -0.000820018635
   54          0.262806000000         0.000892609894
   55          0.119127000000         0.001038991189
   56          0.053263000000        -0.000959558949
   57         15.705700000000         0.000000124221
   58          9.814340000000        -0.000002411872
   59          3.951520000000         0.000021025265
   60          1.028730000000        -0.000061096112
   61          0.520341000000        -0.000153972057
   62          0.262806000000         0.000167602266
   63          0.119127000000         0.000195087774
   64          0.053263000000        -0.000180173058
   65         15.705700000000        -0.000000135890
   66          9.814340000000         0.000002638452
   67          3.951520000000        -0.000023000452
   68          1.028730000000         0.000066835694
   69          0.520341000000         0.000168436728
   70          0.262806000000        -0.000183347407
   71          0.119127000000        -0.000213415000
   72          0.053263000000         0.000197099143
   73         15.705700000000        -0.000001980854
   74          9.814340000000         0.000036830651
   75          3.951520000000        -0.000339876736
   76          1.028730000000         0.001477484027
   77          0.520341000000         0.002014860906
   78          0.262806000000        -0.006507194013
   79          0.119127000000         0.004429910515
   80          0.053263000000         0.001022125251
   81         15.705700000000        -0.000000371938
   82          9.814340000000         0.000006915564
   83          3.951520000000        -0.000063817477
   84          1.028730000000         0.000277422054
   85          0.520341000000         0.000378323448
   86          0.262806000000        -0.001221833263
   87          0.119127000000         0.000831788942
   88          0.053263000000         0.000191920915
   89         15.705700000000         0.000000406879
   90          9.814340000000        -0.000007565236
   91          3.951520000000         0.000069812713
   92          1.028730000000        -0.000303484049
   93          0.520341000000        -0.000413864471
   94          0.262806000000         0.001336616539
   95          0.119127000000        -0.000909930094
 S 38
    1        121.555000000000        -0.000001538238
    2         13.350800000000         0.000144085438
    3          8.343040000000        -0.000811171640
    4          5.212620000000         0.000671808861
    5          2.848220000000         0.001731226596
    6          0.736092000000        -0.002897384138
    7          0.339525000000        -0.001942701489
    8          0.085000000000        -0.000147231308
    9          0.045719000000         0.000064841146
   10        121.555000000000         0.000140108881
   11         13.350800000000        -0.012848389467
   12          8.343040000000         0.073686097538
   13          5.212620000000        -0.069999609804
   14          2.848220000000        -0.143231876390
   15          0.736092000000         0.314502786582
   16          0.339525000000         0.369654917331
   17          0.085000000000        -0.313697668230
   18          0.045719000000        -0.627840029860
   19        121.555000000000         0.000001373106
   20         13.350800000000        -0.000137969879
   21          8.343040000000         0.002708153200
   22          5.212620000000         0.000201627159
   23          2.848220000000        -0.020438106546
   24          0.736092000000         0.055146593684
   25          0.339525000000         0.002540908662
   26          0.085000000000        -0.153766991013
   27          0.045719000000         0.104177419820
   28        121.555000000000         0.000006314800
   29         13.350800000000        -0.000568068846
   30          8.343040000000         0.001082349131
   31          5.212620000000        -0.004138542977
   32          2.848220000000         0.015269899543
   33          0.736092000000        -0.054801578541
   34          0.339525000000         0.055632839211
   35          0.085000000000         0.005822677471
   36          0.045719000000        -0.056666060703
   37          0.021775000000        -0.235859373032
   38          0.010400000000         0.076934746069
 P 95
    1         15.705700000000        -0.000004024741
    2          9.814340000000         0.000073671124
    3          3.951520000000        -0.000612147908
    4          1.028730000000         0.001550351730
    5          0.520341000000         0.001882800115
    6          0.262806000000         0.000975141200
    7          0.119127000000         0.000149550266
    8          0.053263000000         0.000003661396
    9         15.705700000000         0.000023588586
   10          9.814340000000        -0.000431778756
   11          3.951520000000         0.003587734878
   12          1.028730000000        -0.009086449371
   13          0.520341000000        -0.011034894587
   14          0.262806000000        -0.005715200605
   15          0.119127000000        -0.000876498470
   16          0.053263000000        -0.000021459059
   17         15.705700000000         0.000001968813
   18          9.814340000000        -0.000036038270
   19          3.951520000000         0.000299449093
   20          1.028730000000        -0.000758397460
   21          0.520341000000        -0.000921023789
   22          0.262806000000        -0.000477017309
   23          0.119127000000        -0.000073156652
   24         15.705700000000         0.000009899581
   25          9.814340000000         0.000307700629
   26          3.951520000000        -0.003160610306
   27          1.028730000000         0.009334625518
   28          0.520341000000         0.012803478902
   29          0.262806000000         0.007874098502
   30          0.119127000000        -0.021913668745
   31          0.053263000000        -0.041125565922
   32         15.705700000000        -0.000058020407
   33          9.814340000000        -0.001803401213
   34          3.951520000000         0.018524006498
   35          1.028730000000        -0.054709264037
   36          0.520341000000        -0.075039850982
   37          0.262806000000        -0.046149267922
   38          0.119127000000         0.128433720996
   39          0.053263000000         0.241032641352
   40         15.705700000000        -0.000004842654
   41          9.814340000000        -0.000150520280
   42          3.951520000000         0.001546100012
   43          1.028730000000        -0.004566290441
   44          0.520341000000        -0.006263176087
   45          0.262806000000        -0.003851833226
   46          0.119127000000         0.010719677605
   47          0.053263000000         0.020117708867
   48         15.705700000000         0.000007345393
   49          9.814340000000        -0.000142618321
   50          3.951520000000         0.001243261433
   51          1.028730000000        -0.003612722060
   52          0.520341000000        -0.009104642242
   53          0.262806000000         0.009910620805
   54          0.119127000000         0.011535887918
   55          0.053263000000        -0.010653954148
   56         15.705700000000        -0.000043050578
   57          9.814340000000         0.000835871065
   58          3.951520000000        -0.007286625252
   59          1.028730000000         0.021173786211
   60          0.520341000000         0.053361356104
   61          0.262806000000        -0.058085112180
   62          0.119127000000        -0.067610632775
   63          0.053263000000         0.062441711177
   64         15.705700000000        -0.000003593202
   65          9.814340000000         0.000069765699
   66          3.951520000000        -0.000608175742
   67          1.028730000000         0.001767262991
   68          0.520341000000         0.004453787756
   69          0.262806000000        -0.004848054478
   70          0.119127000000        -0.005643098872
   71          0.053263000000         0.005211676558
   72         15.705700000000        -0.000003448749
   73          9.814340000000         0.000064123698
   74          3.951520000000        -0.000591739560
   75          1.028730000000         0.002572361257
   76          0.520341000000         0.003507956796
   77          0.262806000000        -0.011329295930
   78          0.119127000000         0.007712658800
   79          0.053263000000         0.001779562654
   80         15.705700000000         0.000020212755
   81          9.814340000000        -0.000375822290
   82          3.951520000000         0.003468123686
   83          1.028730000000        -0.015076340335
   84          0.520341000000        -0.020559767956
   85          0.262806000000         0.066399818739
   86          0.119127000000        -0.045203086714
   87          0.053263000000        -0.010429830626
   88         15.705700000000         0.000001687051
   89          9.814340000000        -0.000031367882
   90          3.951520000000         0.000289465785
   91          1.028730000000        -0.001258341708
   92          0.520341000000        -0.001716014162
   93          0.262806000000         0.005542038683
   94          0.119127000000        -0.003772860528
   95          0.053263000000        -0.000870522328
 S 38
    1        121.555000000000         0.000179258169
    2         13.350800000000        -0.016790962479
    3          8.343040000000         0.094529695221
    4          5.212620000000        -0.078289086736
    5          2.848220000000        -0.201748081879
    6          0.736092000000         0.337645975154
    7          0.339525000000         0.226392258457
    8          0.085000000000         0.017157565605
    9          0.045719000000        -0.007556247587
   10        121.555000000000        -0.000144115461
   11         13.350800000000         0.013215804436
   12          8.343040000000        -0.075793239083
   13          5.212620000000         0.072001331851
   14          2.848220000000         0.147327762147
   15          0.736092000000        -0.323496367594
   16          0.339525000000        -0.380225639078
   17          0.085000000000         0.322668225927
   18          0.045719000000         0.645793861789
   19        121.555000000000         0.000010010549
   20         13.350800000000        -0.001005861144
   21          8.343040000000         0.019743628801
   22          5.212620000000         0.001469950731
   23          2.848220000000        -0.149002792400
   24          0.736092000000         0.402042940321
   25          0.339525000000         0.018524342505
   26          0.085000000000        -1.121029043881
   27          0.045719000000         0.759499243403
   28        121.555000000000        -0.000343899966
   29         13.350800000000         0.030936663819
   30          8.343040000000        -0.058944037201
   31          5.212620000000         0.225382387431
   32          2.848220000000        -0.831588903103
   33          0.736092000000         2.984458703188
   34          0.339525000000        -3.029728624373
   35          0.085000000000        -0.317099268241
   36          0.045719000000         3.085997202002
   37          0.021775000000        -4.297841167810
   38          0.010400000000         1.628923331988
 D 95
    1         15.853500000000         0.000350365551
    2          5.081830000000        -0.001848602198
    3          1.450950000000         0.030653101935
    4          0.689277000000         0.081131173184
    5          0.313342000000         0.115001492790
    6          0.138383000000         0.121245558179
    7          0.059555000000         0.088434811829
    8         15.853500000000        -0.000006319628
    9          5.081830000000         0.000033343685
   10          1.450950000000        -0.000552897413
   11          0.689277000000        -0.001463382592
   12          0.313342000000        -0.002074309737
   13          0.138383000000        -0.002186935455
   14          0.059555000000        -0.001595120088
[...]
  BAS[ATNO][ 13].a[ 72] =         0.059555000000;     BAS[ATNO][ 13].d[ 72] =         0.000460470184;
  BAS[ATNO][ 13].a[ 73] =        15.853500000000;     BAS[ATNO][ 13].d[ 73] =        -0.001896072062;
  BAS[ATNO][ 13].a[ 74] =         5.081830000000;     BAS[ATNO][ 13].d[ 74] =         0.009831420255;
  BAS[ATNO][ 13].a[ 75] =         1.450950000000;     BAS[ATNO][ 13].d[ 75] =        -0.190999278983;
  BAS[ATNO][ 13].a[ 76] =         0.689277000000;     BAS[ATNO][ 13].d[ 76] =        -0.504360376822;
  BAS[ATNO][ 13].a[ 77] =         0.313342000000;     BAS[ATNO][ 13].d[ 77] =        -0.619784413959;
  BAS[ATNO][ 13].a[ 78] =         0.138383000000;     BAS[ATNO][ 13].d[ 78] =         0.039883553857;
  BAS[ATNO][ 13].a[ 79] =         0.059555000000;     BAS[ATNO][ 13].d[ 79] =         0.977243524538;
  BAS[ATNO][ 13].a[ 80] =        15.853500000000;     BAS[ATNO][ 13].d[ 80] =        -0.000477458292;
  BAS[ATNO][ 13].a[ 81] =         5.081830000000;     BAS[ATNO][ 13].d[ 81] =         0.002475693414;
  BAS[ATNO][ 13].a[ 82] =         1.450950000000;     BAS[ATNO][ 13].d[ 82] =        -0.048096373146;
  BAS[ATNO][ 13].a[ 83] =         0.689277000000;     BAS[ATNO][ 13].d[ 83] =        -0.127005217051;
  BAS[ATNO][ 13].a[ 84] =         0.313342000000;     BAS[ATNO][ 13].d[ 84] =        -0.156070654312;
  BAS[ATNO][ 13].a[ 85] =         0.138383000000;     BAS[ATNO][ 13].d[ 85] =         0.010043254084;
  BAS[ATNO][ 13].a[ 86] =         0.059555000000;     BAS[ATNO][ 13].d[ 86] =         0.246084013830;
  BAS[ATNO][ 13].a[ 87] =        15.853500000000;     BAS[ATNO][ 13].d[ 87] =         0.000944965409;
  BAS[ATNO][ 13].a[ 88] =         5.081830000000;     BAS[ATNO][ 13].d[ 88] =        -0.004899788488;
  BAS[ATNO][ 13].a[ 89] =         1.450950000000;     BAS[ATNO][ 13].d[ 89] =         0.095190322880;
  BAS[ATNO][ 13].a[ 90] =         0.689277000000;     BAS[ATNO][ 13].d[ 90] =         0.251363394527;
  BAS[ATNO][ 13].a[ 91] =         0.313342000000;     BAS[ATNO][ 13].d[ 91] =         0.308888487929;
  BAS[ATNO][ 13].a[ 92] =         0.138383000000;     BAS[ATNO][ 13].d[ 92] =        -0.019877186917;
  BAS[ATNO][ 13].a[ 93] =         0.059555000000;     BAS[ATNO][ 13].d[ 93] =        -0.487039150767;
  BAS[ATNO][ 13].a[ 94] =        15.853500000000;     BAS[ATNO][ 13].d[ 94] =        -0.001029164553;

  // Basis function  15 L = p
  InitBFNGauss(BAS[ATNO][ 14]);
  BAS[ATNO][ 14].l  = 1;
  BAS[ATNO][ 14].ng = 95;
  BAS[ATNO][ 14].a[  0] =        15.705700000000;     BAS[ATNO][ 14].d[  0] =        -0.000126952669;
  BAS[ATNO][ 14].a[  1] =         9.814340000000;     BAS[ATNO][ 14].d[  1] =         0.002323813089;
  BAS[ATNO][ 14].a[  2] =         3.951520000000;     BAS[ATNO][ 14].d[  2] =        -0.019309021473;
  BAS[ATNO][ 14].a[  3] =         1.028730000000;     BAS[ATNO][ 14].d[  3] =         0.048902845943;
  BAS[ATNO][ 14].a[  4] =         0.520341000000;     BAS[ATNO][ 14].d[  4] =         0.059389287056;
  BAS[ATNO][ 14].a[  5] =         0.262806000000;     BAS[ATNO][ 14].d[  5] =         0.030758942610;
  BAS[ATNO][ 14].a[  6] =         0.119127000000;     BAS[ATNO][ 14].d[  6] =         0.004717273812;
  BAS[ATNO][ 14].a[  7] =         0.053263000000;     BAS[ATNO][ 14].d[  7] =         0.000115491654;
  BAS[ATNO][ 14].a[  8] =        15.705700000000;     BAS[ATNO][ 14].d[  8] =         0.000027803644;
  BAS[ATNO][ 14].a[  9] =         9.814340000000;     BAS[ATNO][ 14].d[  9] =        -0.000508933547;
  BAS[ATNO][ 14].a[ 10] =         3.951520000000;     BAS[ATNO][ 14].d[ 10] =         0.004228829265;
  BAS[ATNO][ 14].a[ 11] =         1.028730000000;     BAS[ATNO][ 14].d[ 11] =        -0.010710112181;
  BAS[ATNO][ 14].a[ 12] =         0.520341000000;     BAS[ATNO][ 14].d[ 12] =        -0.013006726182;
  BAS[ATNO][ 14].a[ 13] =         0.262806000000;     BAS[ATNO][ 14].d[ 13] =        -0.006736453054;
  BAS[ATNO][ 14].a[ 14] =         0.119127000000;     BAS[ATNO][ 14].d[ 14] =        -0.001033120481;
  BAS[ATNO][ 14].a[ 15] =         0.053263000000;     BAS[ATNO][ 14].d[ 15] =        -0.000025293591;
  BAS[ATNO][ 14].a[ 16] =        15.705700000000;     BAS[ATNO][ 14].d[ 16] =        -0.000592641349;
  BAS[ATNO][ 14].a[ 17] =         9.814340000000;     BAS[ATNO][ 14].d[ 17] =         0.010848040749;
  BAS[ATNO][ 14].a[ 18] =         3.951520000000;     BAS[ATNO][ 14].d[ 18] =        -0.090138511051;
  BAS[ATNO][ 14].a[ 19] =         1.028730000000;     BAS[ATNO][ 14].d[ 19] =         0.228288612432;
  BAS[ATNO][ 14].a[ 20] =         0.520341000000;     BAS[ATNO][ 14].d[ 20] =         0.277241491240;
  BAS[ATNO][ 14].a[ 21] =         0.262806000000;     BAS[ATNO][ 14].d[ 21] =         0.143589114147;
  BAS[ATNO][ 14].a[ 22] =         0.119127000000;     BAS[ATNO][ 14].d[ 22] =         0.022021211081;
  BAS[ATNO][ 14].a[ 23] =         0.053263000000;     BAS[ATNO][ 14].d[ 23] =         0.000539138960;
  BAS[ATNO][ 14].a[ 24] =        15.705700000000;     BAS[ATNO][ 14].d[ 24] =        -0.000112060008;
  BAS[ATNO][ 14].a[ 25] =         9.814340000000;     BAS[ATNO][ 14].d[ 25] =        -0.003483070273;
  BAS[ATNO][ 14].a[ 26] =         3.951520000000;     BAS[ATNO][ 14].d[ 26] =         0.035777072738;
  BAS[ATNO][ 14].a[ 27] =         1.028730000000;     BAS[ATNO][ 14].d[ 27] =        -0.105664901333;
  BAS[ATNO][ 14].a[ 28] =         0.520341000000;     BAS[ATNO][ 14].d[ 28] =        -0.144931184683;
  BAS[ATNO][ 14].a[ 29] =         0.262806000000;     BAS[ATNO][ 14].d[ 29] =        -0.089132214211;
  BAS[ATNO][ 14].a[ 30] =         0.119127000000;     BAS[ATNO][ 14].d[ 30] =         0.248055547732;
  BAS[ATNO][ 14].a[ 31] =         0.053263000000;     BAS[ATNO][ 14].d[ 31] =         0.465527926843;
  BAS[ATNO][ 14].a[ 32] =        15.705700000000;     BAS[ATNO][ 14].d[ 32] =         0.000024542033;
  BAS[ATNO][ 14].a[ 33] =         9.814340000000;     BAS[ATNO][ 14].d[ 33] =         0.000762820090;
  BAS[ATNO][ 14].a[ 34] =         3.951520000000;     BAS[ATNO][ 14].d[ 34] =        -0.007835463461;
  BAS[ATNO][ 14].a[ 35] =         1.028730000000;     BAS[ATNO][ 14].d[ 35] =         0.023141453734;
  BAS[ATNO][ 14].a[ 36] =         0.520341000000;     BAS[ATNO][ 14].d[ 36] =         0.031741082069;
  BAS[ATNO][ 14].a[ 37] =         0.262806000000;     BAS[ATNO][ 14].d[ 37] =         0.019520663772;
  BAS[ATNO][ 14].a[ 38] =         0.119127000000;     BAS[ATNO][ 14].d[ 38] =        -0.054326137714;
  BAS[ATNO][ 14].a[ 39] =         0.053263000000;     BAS[ATNO][ 14].d[ 39] =        -0.101954318275;
  BAS[ATNO][ 14].a[ 40] =        15.705700000000;     BAS[ATNO][ 14].d[ 40] =        -0.000523119326;
  BAS[ATNO][ 14].a[ 41] =         9.814340000000;     BAS[ATNO][ 14].d[ 41] =        -0.016259693362;
  BAS[ATNO][ 14].a[ 42] =         3.951520000000;     BAS[ATNO][ 14].d[ 42] =         0.167014784820;
  BAS[ATNO][ 14].a[ 43] =         1.028730000000;     BAS[ATNO][ 14].d[ 43] =        -0.493265642165;
  BAS[ATNO][ 14].a[ 44] =         0.520341000000;     BAS[ATNO][ 14].d[ 44] =        -0.676568784721;
  BAS[ATNO][ 14].a[ 45] =         0.262806000000;     BAS[ATNO][ 14].d[ 45] =        -0.416087634836;
  BAS[ATNO][ 14].a[ 46] =         0.119127000000;     BAS[ATNO][ 14].d[ 46] =         1.157974668045;
  BAS[ATNO][ 14].a[ 47] =         0.053263000000;     BAS[ATNO][ 14].d[ 47] =         2.173180771324;
  BAS[ATNO][ 14].a[ 48] =        15.705700000000;     BAS[ATNO][ 14].d[ 48] =        -0.000207871010;
  BAS[ATNO][ 14].a[ 49] =         9.814340000000;     BAS[ATNO][ 14].d[ 49] =         0.004036028517;
  BAS[ATNO][ 14].a[ 50] =         3.951520000000;     BAS[ATNO][ 14].d[ 50] =        -0.035183688668;
  BAS[ATNO][ 14].a[ 51] =         1.028730000000;     BAS[ATNO][ 14].d[ 51] =         0.102238262046;
  BAS[ATNO][ 14].a[ 52] =         0.520341000000;     BAS[ATNO][ 14].d[ 52] =         0.257656909070;
  BAS[ATNO][ 14].a[ 53] =         0.262806000000;     BAS[ATNO][ 14].d[ 53] =        -0.280465707018;
  BAS[ATNO][ 14].a[ 54] =         0.119127000000;     BAS[ATNO][ 14].d[ 54] =        -0.326459969030;
  BAS[ATNO][ 14].a[ 55] =         0.053263000000;     BAS[ATNO][ 14].d[ 55] =         0.301501675998;
  BAS[ATNO][ 14].a[ 56] =        15.705700000000;     BAS[ATNO][ 14].d[ 56] =         0.000045525404;
  BAS[ATNO][ 14].a[ 57] =         9.814340000000;     BAS[ATNO][ 14].d[ 57] =        -0.000883922343;
  BAS[ATNO][ 14].a[ 58] =         3.951520000000;     BAS[ATNO][ 14].d[ 58] =         0.007705507631;
  BAS[ATNO][ 14].a[ 59] =         1.028730000000;     BAS[ATNO][ 14].d[ 59] =        -0.022390992479;
  BAS[ATNO][ 14].a[ 60] =         0.520341000000;     BAS[ATNO][ 14].d[ 60] =        -0.056428912206;
  BAS[ATNO][ 14].a[ 61] =         0.262806000000;     BAS[ATNO][ 14].d[ 61] =         0.061424220352;
  BAS[ATNO][ 14].a[ 62] =         0.119127000000;     BAS[ATNO][ 14].d[ 62] =         0.071497329521;
  BAS[ATNO][ 14].a[ 63] =         0.053263000000;     BAS[ATNO][ 14].d[ 63] =        -0.066031264856;
  BAS[ATNO][ 14].a[ 64] =        15.705700000000;     BAS[ATNO][ 14].d[ 64] =        -0.000970384922;
  BAS[ATNO][ 14].a[ 65] =         9.814340000000;     BAS[ATNO][ 14].d[ 65] =         0.018841016963;
  BAS[ATNO][ 14].a[ 66] =         3.951520000000;     BAS[ATNO][ 14].d[ 66] =        -0.164244745094;
  BAS[ATNO][ 14].a[ 67] =         1.028730000000;     BAS[ATNO][ 14].d[ 67] =         0.477269380331;
  BAS[ATNO][ 14].a[ 68] =         0.520341000000;     BAS[ATNO][ 14].d[ 68] =         1.202795811170;
  BAS[ATNO][ 14].a[ 69] =         0.262806000000;     BAS[ATNO][ 14].d[ 69] =        -1.309272003594;
  BAS[ATNO][ 14].a[ 70] =         0.119127000000;     BAS[ATNO][ 14].d[ 70] =        -1.523982743882;
  BAS[ATNO][ 14].a[ 71] =         0.053263000000;     BAS[ATNO][ 14].d[ 71] =         1.407472263254;
  BAS[ATNO][ 14].a[ 72] =        15.705700000000;     BAS[ATNO][ 14].d[ 72] =         0.000358775776;
  BAS[ATNO][ 14].a[ 73] =         9.814340000000;     BAS[ATNO][ 14].d[ 73] =        -0.006670834170;
  BAS[ATNO][ 14].a[ 74] =         3.951520000000;     BAS[ATNO][ 14].d[ 74] =         0.061559089472;
  BAS[ATNO][ 14].a[ 75] =         1.028730000000;     BAS[ATNO][ 14].d[ 75] =        -0.267604580391;
  BAS[ATNO][ 14].a[ 76] =         0.520341000000;     BAS[ATNO][ 14].d[ 76] =        -0.364935253148;
  BAS[ATNO][ 14].a[ 77] =         0.262806000000;     BAS[ATNO][ 14].d[ 77] =         1.178594754208;
  BAS[ATNO][ 14].a[ 78] =         0.119127000000;     BAS[ATNO][ 14].d[ 78] =        -0.802353408282;
  BAS[ATNO][ 14].a[ 79] =         0.053263000000;     BAS[ATNO][ 14].d[ 79] =        -0.185129174993;
  BAS[ATNO][ 14].a[ 80] =        15.705700000000;     BAS[ATNO][ 14].d[ 80] =        -0.000078574748;
  BAS[ATNO][ 14].a[ 81] =         9.814340000000;     BAS[ATNO][ 14].d[ 81] =         0.001460965736;
  BAS[ATNO][ 14].a[ 82] =         3.951520000000;     BAS[ATNO][ 14].d[ 82] =        -0.013481930168;
  BAS[ATNO][ 14].a[ 83] =         1.028730000000;     BAS[ATNO][ 14].d[ 83] =         0.058607531338;
  BAS[ATNO][ 14].a[ 84] =         0.520341000000;     BAS[ATNO][ 14].d[ 84] =         0.079923722732;
  BAS[ATNO][ 14].a[ 85] =         0.262806000000;     BAS[ATNO][ 14].d[ 85] =        -0.258121624416;
  BAS[ATNO][ 14].a[ 86] =         0.119127000000;     BAS[ATNO][ 14].d[ 86] =         0.175721777449;
  BAS[ATNO][ 14].a[ 87] =         0.053263000000;     BAS[ATNO][ 14].d[ 87] =         0.040544761637;
  BAS[ATNO][ 14].a[ 88] =        15.705700000000;     BAS[ATNO][ 14].d[ 88] =         0.001674839625;
  BAS[ATNO][ 14].a[ 89] =         9.814340000000;     BAS[ATNO][ 14].d[ 89] =        -0.031140835407;
  BAS[ATNO][ 14].a[ 90] =         3.951520000000;     BAS[ATNO][ 14].d[ 90] =         0.287370578276;
  BAS[ATNO][ 14].a[ 91] =         1.028730000000;     BAS[ATNO][ 14].d[ 91] =        -1.249233601016;
  BAS[ATNO][ 14].a[ 92] =         0.520341000000;     BAS[ATNO][ 14].d[ 92] =        -1.703593338210;
  BAS[ATNO][ 14].a[ 93] =         0.262806000000;     BAS[ATNO][ 14].d[ 93] =         5.501924394523;
  BAS[ATNO][ 14].a[ 94] =         0.119127000000;     BAS[ATNO][ 14].d[ 94] =        -3.745551873786;

-------------------------------------------
RADIAL EXPECTATION VALUES <R**-3> TO <R**3>
-------------------------------------------
   0 :     0.000000     0.792202     0.841429     1.317597     1.937868     3.186194
   1 :     0.636890     0.649995     0.757376     1.491244     2.505966     4.733994
   2 :     0.635975     0.649238     0.756831     1.492933     2.513154     4.759788
   3 :     0.631991     0.645865     0.754334     1.501331     2.550960     4.905761
   4 :     0.000000     0.121346     0.293044     3.896943    17.546652    87.765325
   5 :     0.010083     0.024339     0.127483     9.747475   109.912359  1378.518437
   6 :     0.000000     0.010960     0.087906    10.526752   128.225274  1645.491703
   7 :     0.000000     0.073702     0.209128     6.574522    57.621585   630.250028
   8 :     0.000000     0.380923     0.489534     4.006701    32.212143   386.234261
   9 :     0.162117     0.229124     0.420109     3.068265    11.881559   281.690604
  10 :     0.165609     0.233126     0.424642     3.017446    11.405476   261.785394
  11 :     0.153796     0.218986     0.408088     3.202808    13.088260   329.419965
  12 :     0.158922     0.227028     0.413447     3.231747    13.762207   341.851195
  13 :     0.005105     0.016943     0.111915    10.562162   125.350361  1624.959734
  14 :     0.004795     0.016220     0.109760    10.716104   128.510071  1678.388684
  15 :     0.001581     0.008278     0.081682    13.477157   193.768991 14657.930216
  16 :     0.001585     0.007285     0.076130    14.137651   209.803396 16250.967648
  17 :     0.001271     0.006814     0.075209    14.202195   211.365107 16407.148462
  18 :     0.001584     0.007176     0.075303    14.277293   213.538372 16641.106091
  19 :     0.003363     0.009986     0.080359    13.962996   206.120720 15385.887879
  20 :     0.012113     0.030542     0.141913     9.698959   118.932905  1686.022045
  21 :     0.012163     0.030737     0.142825     9.599840   116.731841  1647.465896
  22 :     0.010696     0.026585     0.129374    10.599483   137.450687  2001.096053
  23 :     0.030621     0.059298     0.190465     7.831543    83.766818  5620.954357
  24 :     0.018843     0.034211     0.137931     9.489225   107.056288  7043.766460
  25 :     0.026316     0.043327     0.149159     9.281393   104.045430  6776.080589
  26 :     0.016605     0.031371     0.134311     9.522941   106.947529  6990.052174
  27 :     0.020503     0.036315     0.140810     9.382510   104.477612  6772.066367
  28 :     0.100010     0.145491     0.299478     5.961643    56.338169  3500.507216
  29 :     0.046306     0.065758     0.195688     7.364625    72.210136   879.291358
  30 :     0.046788     0.066270     0.196534     7.326721    71.510559   868.032186
  31 :     0.047220     0.065595     0.194160     7.322663    69.911489   820.946936
  32 :     0.078562     0.119553     0.273235     5.524294    42.749765  2227.937216
  33 :     0.102299     0.147740     0.304766     5.236520    40.322098  2117.841142
  34 :     0.096919     0.141057     0.296850     5.319421    41.088713  2143.306872
  35 :     0.077374     0.118517     0.272708     5.490190    41.968231  2158.911864
  36 :     0.083170     0.125670     0.281225     5.379314    40.661398  2079.354239
  37 :     0.076195     0.121888     0.289020     4.967391    35.668635   358.242852
  38 :     0.076602     0.122379     0.289679     4.952518    35.449317   355.198495
  39 :     0.077328     0.123061     0.290468     4.925701    35.046990   350.839065
  40 :     0.435005     0.432414     0.548180     3.041630    16.377293   729.649177
  41 :     0.445225     0.441601     0.555438     3.014594    16.233080   724.411059
  42 :     0.422098     0.421249     0.538703     3.096040    16.782249   735.851898
  43 :     0.435250     0.432758     0.548715     3.028292    16.181957   716.113211
  44 :     0.437058     0.434439     0.550160     3.019140    16.102659   712.064443
  45 :     0.533960     0.471737     0.560578     2.933857    14.929773   127.319101
  46 :     0.534245     0.472018     0.560862     2.930120    14.882834   126.724035
  47 :     0.533251     0.471418     0.560672     2.921585    14.725292   124.262832
  48 :     0.000001     2.832251     0.963140     5.452712    60.687658   828.049399
Making the total density                ... o.k.
o.k.
Initializing the integrals              ... done
Making exponents                        ... done
Making rho(0)                           ... done (         0.000739109)
Integral calculation                    ... Two index integrals                     ... done
Solving the equation system             ... done
atomic density will be written to file 39_Y_atom39.adf

-------
TIMINGS
-------

Total SCF time: 0 days 0 hours 0 min 16 sec 

Total time                  ....      16.615 sec
Sum of individual times     ....      14.943 sec  ( 89.9%)

Fock matrix formation       ....      12.945 sec  ( 77.9%)
Diagonalization             ....       1.027 sec  (  6.2%)
Density matrix formation    ....       0.022 sec  (  0.1%)
Population analysis         ....       0.000 sec  (  0.0%)
Initial guess               ....       0.001 sec  (  0.0%)
Orbital Transformation      ....       0.000 sec  (  0.0%)
Orbital Orthonormalization  ....       0.000 sec  (  0.0%)
DIIS solution               ....       0.949 sec  (  5.7%)

-------------------------   --------------------
FINAL SINGLE POINT ENERGY       -37.537782632855
-------------------------   --------------------


                            ***************************************
                            *     ORCA property calculations      *
                            ***************************************

                                    ---------------------
                                    Active property flags
                                    ---------------------
   (+) Dipole Moment


------------------------------------------------------------------------------
                       ORCA ELECTRIC PROPERTIES CALCULATION
------------------------------------------------------------------------------

Dipole Moment Calculation                       ... on
Quadrupole Moment Calculation                   ... off
Polarizability Calculation                      ... off
GBWName                                         ... 39_Y_atom39.gbw
Electron density file                           ... 39_Y_atom39.scfp
The origin for moment calculation is the CENTER OF MASS  = ( 0.000000,  0.000000  0.000000)

-------------
DIPOLE MOMENT
-------------
                                X             Y             Z
Electronic contribution:     -0.00000      -0.00000       0.00000
Nuclear contribution   :      0.00000       0.00000       0.00000
                        -----------------------------------------
Total Dipole Moment    :     -0.00000      -0.00000       0.00000
                        -----------------------------------------
Magnitude (a.u.)       :      0.00000
Magnitude (Debye)      :      0.00000



--------------------
Rotational spectrum 
--------------------
 
Rotational constants in cm-1:     0.000000     0.000000     0.000000 
Rotational constants in MHz :     0.000000     0.000000     0.000000 

 Dipole components along the rotational axes: 
x,y,z [a.u.] :    -0.000000    -0.000000     0.000000 
x,y,z [Debye]:    -0.000000    -0.000000     0.000000 

 

Timings for individual modules:

Sum of individual times         ...       20.770 sec (=   0.346 min)
GTO integral calculation        ...        4.124 sec (=   0.069 min)  19.9 %
SCF iterations                  ...       16.647 sec (=   0.277 min)  80.1 %
                             ****ORCA TERMINATED NORMALLY****
TOTAL RUN TIME: 0 days 0 hours 0 minutes 21 seconds 11 msec
