
                                 *****************
                                 * O   R   C   A *
                                 *****************

           --- An Ab Initio, DFT and Semiempirical electronic structure package ---

                  #######################################################
                  #                        -***-                        #
                  #          Department of theory and spectroscopy      #
                  #               Directorship: Frank Neese             #
                  #        Max Planck Institute fuer Kohlenforschung    #
                  #                Kaiser Wilhelm Platz 1               #
                  #                 D-45470 Muelheim/Ruhr               #
                  #                      Germany                        #
                  #                                                     #
                  #                  All rights reserved                #
                  #                        -***-                        #
                  #######################################################


                         Program Version 4.2.0 -  RELEASE  -


 With contributions from (in alphabetic order):
   Daniel Aravena         : Magnetic Suceptibility
   Michael Atanasov       : Ab Initio Ligand Field Theory (pilot matlab implementation)
   Alexander A. Auer      : GIAO ZORA, VPT2
   Ute Becker             : Parallelization
   Giovanni Bistoni       : ED, misc. LED, open-shell LED, HFLED
   Martin Brehm           : Molecular dynamics
   Dmytro Bykov           : SCF Hessian
   Vijay G. Chilkuri      : MRCI spin determinant printing, contributions to CSF-ICE
   Dipayan Datta          : RHF DLPNO-CCSD density
   Achintya Kumar Dutta   : EOM-CC, STEOM-CC
   Dmitry Ganyushin       : Spin-Orbit,Spin-Spin,Magnetic field MRCI
   Miquel Garcia          : C-PCM Hessian, Gaussian charge scheme
   Yang Guo               : DLPNO-NEVPT2, CIM, IAO-localization
   Andreas Hansen         : Spin unrestricted coupled pair/coupled cluster methods
   Benjamin Helmich-Paris : CASSCF linear response (MC-RPA)
   Lee Huntington         : MR-EOM, pCC
   Robert Izsak           : Overlap fitted RIJCOSX, COSX-SCS-MP3, EOM
   Christian Kollmar      : KDIIS, OOCD, Brueckner-CCSD(T), CCSD density
   Simone Kossmann        : Meta GGA functionals, TD-DFT gradient, OOMP2, MP2 Hessian
   Martin Krupicka        : AUTO-CI
   Lucas Lang             : DCDCAS
   Dagmar Lenk            : GEPOL surface, SMD
   Dimitrios Liakos       : Extrapolation schemes; Compound Job, initial MDCI parallelization
   Dimitrios Manganas     : Further ROCIS development; embedding schemes
   Dimitrios Pantazis     : SARC Basis sets
   Taras Petrenko         : DFT Hessian,TD-DFT gradient, ASA, ECA, R-Raman, ABS, FL, XAS/XES, NRVS
   Peter Pinski           : DLPNO-MP2, DLPNO-MP2 Gradient
   Christoph Reimann      : Effective Core Potentials
   Marius Retegan         : Local ZFS, SOC
   Christoph Riplinger    : Optimizer, TS searches, QM/MM, DLPNO-CCSD(T), (RO)-DLPNO pert. Triples
   Tobias Risthaus        : Range-separated hybrids, TD-DFT gradient, RPA, STAB
   Michael Roemelt        : Original ROCIS implementation
   Masaaki Saitow         : Open-shell DLPNO-CCSD energy and density
   Barbara Sandhoefer     : DKH picture change effects
   Avijit Sen             : IP-ROCIS
   Kantharuban Sivalingam : CASSCF convergence, NEVPT2, FIC-MRCI
   Bernardo de Souza      : ESD, SOC TD-DFT
   Georgi Stoychev        : AutoAux, RI-MP2 NMR
   Willem Van den Heuvel  : Paramagnetic NMR
   Boris Wezisla          : Elementary symmetry handling
   Frank Wennmohs         : Technical directorship


 We gratefully acknowledge several colleagues who have allowed us to
 interface, adapt or use parts of their codes:
   Stefan Grimme, W. Hujo, H. Kruse,             : VdW corrections, initial TS optimization,
                  C. Bannwarth                     DFT functionals, gCP, sTDA/sTD-DF
   Ed Valeev, F. Pavosevic, A. Kumar             : LibInt (2-el integral package), F12 methods
   Garnet Chan, S. Sharma, J. Yang, R. Olivares  : DMRG
   Ulf Ekstrom                                   : XCFun DFT Library
   Mihaly Kallay                                 : mrcc  (arbitrary order and MRCC methods)
   Andreas Klamt, Michael Diedenhofen            : otool_cosmo (COSMO solvation model)
   Jiri Pittner, Ondrej Demel                    : Mk-CCSD
   Frank Weinhold                                : gennbo (NPA and NBO analysis)
   Christopher J. Cramer and Donald G. Truhlar   : smd solvation model
   Lars Goerigk                                  : TD-DFT with DH, B97 family of functionals
   V. Asgeirsson, H. Jonsson                     : NEB implementation
   FAccTs GmbH                                   : IRC, NEB, NEB-TS, Multilevel, MM, QM/MM, CI optimization
   S Lehtola, MJT Oliveira, MAL Marques          : LibXC Library


 Your calculation uses the libint2 library for the computation of 2-el integrals
 For citations please refer to: http://libint.valeyev.net

 Your ORCA version has been built with support for libXC version: 4.2.3
 For citations please refer to: https://tddft.org/programs/libxc/

 This ORCA versions uses:
   CBLAS   interface :  Fast vector & matrix operations
   LAPACKE interface :  Fast linear algebra routines
   SCALAPACK package :  Parallel linear algebra routines


----- Orbital basis set information -----
Your calculation utilizes the basis: aug-cc-pVTZ-PP 
       Ca, Sr, Ba, Ra : Obtained from the Peterson Research Group Website (tyr0.chem.wsu.edu/~kipeters) Feb. 2017
                        H. Li, H. Feng, W. Sun, Y. Zhang, Q. Fan, K. A. Peterson, Y. Xie, H. F. Schaefer III, Mol. Phys. 111, 2292 (2013)
  Cu-Zn, Ag-Cd, Au-Hg : Obtained from the ccRepo (grant-hill.group.shef.ac.uk/ccrepo) Feb. 2017
                        K. A. Peterson, C. Puzzarini, Theor. Chem. Acc. 114, 283 (2005)
  Ga-Kr, In-Xe, Tl-Rn : Obtained from the ccRepo (grant-hill.group.shef.ac.uk/ccrepo) Feb. 2017
                        K. A. Peterson, J. Chem. Phys. 119, 11099 (2003)
                        K. A. Peterson, D. Figgen, E. Goll, H. Stoll, M. Dolg, J. Chem. Phys. 119, 11113 (2003)
                 Y-Pd : Obtained from the ccRepo (grant-hill.group.shef.ac.uk/ccrepo) Feb. 2017
                        K. A. Peterson, D. Figgen, M. Dolg, H. Stoll, J. Chem. Phys. 126, 124101 (2007)
                Hf-Pt : Obtained from the ccRepo (grant-hill.group.shef.ac.uk/ccrepo) Feb. 2017
                        D. Figgen, K. A. Peterson, M. Dolg, H. Stoll, J. Chem. Phys. 130, 164108 (2009)

cite the ECPs for  Y [SK MCDHF RSC] as follows:
O: B. Metz and H. Stoll, private communication (KAP)
Tl: B. Metz, M. Schweizer, H. Stoll, M. Dolg, W. Liu, Theor. Chem. Acc. 104, 22 (2000)
Ga-As, In-Sb, Pb-Bi: B. Metz, H. Stoll, M. Dolg, J. Chem. Phys. 113, 2563 (2000)
Se-Kr, Te-Xe, Po-Rn: K.A. Peterson, D. Figgen, E. Goll, H. Stoll, and M. Dolg, J. Chem. Phys., in press (2003)
Cu-Zn, Ag-Cd, Au-Hg: D. Figgen, G. Rauhut, M. Dolg, and H. Stoll, Chem. Phys. 311, 227 (2005)
Y-Pd: K.A. Peterson, D. Figgen, M. Dolg, H. Stoll, J. Chem. Phys. 126, 124101 (2007)
I: K. A. Peterson, B. C. Shepler, D. Figgen, H. Stoll, J. Phys. Chem. A 110, 13877 (2006)
Hf-Pt: D. Figgen, K.A. Peterson, M. Dolg, H. Stoll, J. Chem. Phys. 130, 164108 (2009)
Ca, Sr, Ba, Ra: I.S. Lim, H. Stoll, P. Schwerdtfeger, J. Chem. Phys. 124, 034107 (2006)

ECP parameters for  Y [SK MCDHF RSC] have been obtained from:
cc-pVDZ-PP  EMSL  Basis Set Exchange Library   4/7/16 5:27 AM
Ca, Sr, Ba, Ra: http://www.tc.uni-koeln.de/PP/index.en.html 3/16/17 1:54 PM

================================================================================
                                        WARNINGS
                       Please study these warnings very carefully!
================================================================================


WARNING: your system is open-shell and RHF/RKS was chosen
  ===> : WILL SWITCH to UHF/UKS


WARNING: MDCI localization with Augmented Hessian Foster-Boys
  ===> : Switching off randomization!

WARNING: Post HF methods need fully converged wavefunctions
  ===> : Setting SCFConvForced true
         You can overwrite this default with %scf ConvForced false 


INFO   : the flag for use of LIBINT has been found!

================================================================================
                                       INPUT FILE
================================================================================
NAME = 39_Y.in
|  1> #
|  2> # 39_Y CCSD(T)/aug-cc-pVTZ-PP
|  3> #
|  4> ! CCSD(T) aug-cc-pVTZ-PP tightscf
|  5> 
|  6> *xyz 0 2
|  7>  Y 0.0 0.0 0.0
|  8> *
|  9> 
| 10> %maxcore 5000 
| 11> 
| 12> %pal
| 13> nprocs 24
| 14> end
| 15> 
| 16> 
| 17>                          ****END OF INPUT****
================================================================================

                       ****************************
                       * Single Point Calculation *
                       ****************************

---------------------------------
CARTESIAN COORDINATES (ANGSTROEM)
---------------------------------
   Y     0.000000    0.000000    0.000000

----------------------------
CARTESIAN COORDINATES (A.U.)
----------------------------
  NO LB      ZA    FRAG     MASS         X           Y           Z
   0  Y   11.0000*   0    88.910    0.000000    0.000000    0.000000
* core charge reduced due to ECP

--------------------------------
INTERNAL COORDINATES (ANGSTROEM)
--------------------------------
  Y     0   0   0     0.000000000000     0.00000000     0.00000000

---------------------------
INTERNAL COORDINATES (A.U.)
---------------------------
  Y     0   0   0     0.000000000000     0.00000000     0.00000000

---------------------
BASIS SET INFORMATION
---------------------
There are 1 groups of distinct atoms

 Group   1 Type  Y  : 38s34p23d3f2g contracted to 6s6p5d3f2g pattern {999911/888811/77711/111/11}

Atom   0 Y   basis set group =>   1
-------------------------
ECP PARAMETER INFORMATION
-------------------------

 Group 1, Type  Y ECP SK MCDHF RSC (replacing 28 core electrons, lmax=4)

Atom   0 Y   ECP group =>   1



           ************************************************************
           *        Program running with 24 parallel MPI-processes    *
           *              working on a common directory               *
           ************************************************************
------------------------------------------------------------------------------
                           ORCA GTO INTEGRAL CALCULATION
------------------------------------------------------------------------------

                         BASIS SET STATISTICS AND STARTUP INFO

 # of primitive gaussian shells          ...  100
 # of primitive gaussian functions       ...  294
 # of contracted shells                  ...   22
 # of contracted basis functions         ...   88
 Highest angular momentum                ...    4
 Maximum contraction depth               ...    9
 Integral package used                   ... LIBINT
 Integral threshhold            Thresh   ...  2.500e-11
 Primitive cut-off              TCut     ...  2.500e-12


------------------------------ INTEGRAL EVALUATION ----------------------------


 * One electron integrals 

   ECP integrals                         ... done
 Pre-screening matrix                    ... done
 Shell pair data                         ... done (   0.000 sec)



           ************************************************************
           *        Program running with 24 parallel MPI-processes    *
           *              working on a common directory               *
           ************************************************************
-------------------------------------------------------------------------------
                                 ORCA SCF
-------------------------------------------------------------------------------

------------
SCF SETTINGS
------------
Hamiltonian:
 Ab initio Hamiltonian  Method          .... Hartree-Fock(GTOs)


General Settings:
 Integral files         IntName         .... 39_Y
 Hartree-Fock type      HFTyp           .... UHF
 Total Charge           Charge          ....    0
 Multiplicity           Mult            ....    2
 Number of Electrons    NEL             ....   11
 Basis Dimension        Dim             ....   88
 Nuclear Repulsion      ENuc            ....      0.0000000000 Eh

Convergence Acceleration:
 DIIS                   CNVDIIS         .... on
   Start iteration      DIISMaxIt       ....    12
   Startup error        DIISStart       ....  0.200000
   # of expansion vecs  DIISMaxEq       ....     5
   Bias factor          DIISBfac        ....   1.050
   Max. coefficient     DIISMaxC        ....  10.000
 Newton-Raphson         CNVNR           .... off
 SOSCF                  CNVSOSCF        .... off
 Level Shifting         CNVShift        .... on
   Level shift para.    LevelShift      ....    0.2500
   Turn off err/grad.   ShiftErr        ....    0.0010
 Zerner damping         CNVZerner       .... off
 Static damping         CNVDamp         .... on
   Fraction old density DampFac         ....    0.7000
   Max. Damping (<1)    DampMax         ....    0.9800
   Min. Damping (>=0)   DampMin         ....    0.0000
   Turn off err/grad.   DampErr         ....    0.1000
 Fernandez-Rico         CNVRico         .... off

SCF Procedure:
 Maximum # iterations   MaxIter         ....   125
 SCF integral mode      SCFMode         .... Direct
   Integral package                     .... LIBINT
 Reset frequency        DirectResetFreq ....    20
 Integral Threshold     Thresh          ....  2.500e-11 Eh
 Primitive CutOff       TCut            ....  2.500e-12 Eh

Convergence Tolerance:
 Convergence Check Mode ConvCheckMode   .... Total+1el-Energy
 Convergence forced     ConvForced      .... 1
 Energy Change          TolE            ....  1.000e-08 Eh
 1-El. energy change                    ....  1.000e-05 Eh
 DIIS Error             TolErr          ....  5.000e-07


Diagonalization of the overlap matrix:
Smallest eigenvalue                        ... 4.007e-03
Time for diagonalization                   ...    0.003 sec
Threshold for overlap eigenvalues          ... 1.000e-08
Number of eigenvalues below threshold      ... 0
Time for construction of square roots      ...    0.013 sec
Total time needed                          ...    0.016 sec

-------------------
DFT GRID GENERATION
-------------------

General Integration Accuracy     IntAcc      ...  4.340
Radial Grid Type                 RadialGrid  ... Gauss-Chebyshev
Angular Grid (max. acc.)         AngularGrid ... Lebedev-110
Angular grid pruning method      GridPruning ... 3 (G Style)
Weight generation scheme         WeightScheme... Becke
Basis function cutoff            BFCut       ...    1.0000e-11
Integration weight cutoff        WCut        ...    1.0000e-14
Grids for H and He will be reduced by one unit

# of grid points (after initial pruning)     ...   3280 (   0.0 sec)
# of grid points (after weights+screening)   ...   3280 (   0.0 sec)
Grid point division into batches done        ...    0.0 sec
Reduced shell lists constructed in    0.0 sec

Total number of grid points                  ...     3280
Total number of batches                      ...       52
Average number of points per batch           ...       63
Average number of grid points per atom       ...     3280
Average number of shells per batch           ...    15.25 (69.32%)
Average number of basis functions per batch  ...    56.25 (63.92%)
Average number of large shells per batch     ...    14.50 (95.08%)
Average number of large basis fcns per batch ...    52.50 (93.33%)
Maximum spatial batch extension              ...  23.83, 37.49, 37.49 au
Average spatial batch extension              ...   1.37,  1.91,  2.16 au

Time for grid setup =    0.075 sec

------------------------------
INITIAL GUESS: MODEL POTENTIAL
------------------------------
Loading Hartree-Fock densities                     ... done
  calling /sw/apps/orca/orca_4_2_0_linux_x86-64_openmpi314/orca 39_Y_atom39.inp > 39_Y_atom39.out in order to generate an atomic fitting density for atom 0 ( Y with ECP) on-the-fly... 
    atom 0 ( Y), assumed electronic state with S=2: 1s2 2s2 2p6 3s2 3p6 4s2 3d10 4p6 4d1 5s2           ... done
Calculating cut-offs                               ... done
Setting up the integral package                    ... done
Initializing the effective Hamiltonian             ... done
Starting the Coulomb interaction                   ... done (   0.0 sec)
Reading the grid                                   ... done
Mapping shells                                     ... done
Starting the XC term evaluation                    ... done (   0.0 sec)
Transforming the Hamiltonian                       ... done (   0.0 sec)
Diagonalizing the Hamiltonian                      ... done (   0.0 sec)
Back transforming the eigenvectors                 ... done (   0.0 sec)
Now organizing SCF variables                       ... done
                      ------------------
                      INITIAL GUESS DONE (  21.2 sec)
                      ------------------
--------------
SCF ITERATIONS
--------------
ITER       Energy         Delta-E        Max-DP      RMS-DP      [F,P]     Damp
               ***  Starting incremental Fock matrix formation  ***
  0    -37.6734594908   0.000000000000 0.03942204  0.00118187  0.1069805 0.7000
  1    -37.6827132945  -0.009253803740 0.02854971  0.00090459  0.0779356 0.7000
                               ***Turning on DIIS***
  2    -37.6895673633  -0.006854068804 0.06719932  0.00217788  0.0557321 0.0000
  3    -37.7072970963  -0.017729732952 0.02497360  0.00028511  0.0198106 0.0000
  4    -37.6976834543   0.009613641923 0.02563358  0.00032058  0.0128938 0.0000
  5    -37.6993006136  -0.001617159257 0.01717386  0.00024596  0.0071587 0.0000
  6    -37.7050700772  -0.005769463558 0.00822784  0.00015685  0.0031530 0.0000
  7    -37.7089928094  -0.003922732230 0.00653808  0.00010960  0.0015824 0.0000
  8    -37.7104667541  -0.001473944723 0.01114399  0.00018876  0.0007966 0.0000
  9    -37.7115001328  -0.001033378673 0.00695173  0.00011574  0.0004698 0.0000
 10    -37.7111204189   0.000379713899 0.00817271  0.00013554  0.0002920 0.0000
 11    -37.7110443442   0.000076074694 0.00630325  0.00010689  0.0002131 0.0000
 12    -37.7102143558   0.000829988422 0.00787193  0.00013501  0.0001690 0.0000
 13    -37.7088957907   0.001318565037 0.01019148  0.00017625  0.0001240 0.0000
 14    -37.7099469035  -0.001051112717 0.00513857  0.00008968  0.0000666 0.0000
 15    -37.7134601284  -0.003513224962 0.00515414  0.00009057  0.0000332 0.0000
 16    -37.7118092783   0.001650850117 0.00029633  0.00000516  0.0000362 0.0000
 17    -37.7115736573   0.000235621047 0.00090678  0.00001577  0.0000154 0.0000
 18    -37.7118632030  -0.000289545758 0.00014653  0.00000261  0.0000149 0.0000
 19    -37.7119295231  -0.000066320107 0.00004502  0.00000092  0.0000142 0.0000
               *** Restarting incremental Fock matrix formation ***
                                   *** Resetting DIIS ***
 20    -37.7119175864   0.000011936701 0.00003786  0.00000048  0.0000138 0.0000
 21    -37.7119201384  -0.000002551990 0.00005641  0.00000070  0.0000134 0.0000
 22    -37.7119330829  -0.000012944470 0.00018021  0.00000221  0.0000128 0.0000
 23    -37.7119735817  -0.000040498804 0.00062870  0.00000762  0.0000109 0.0000
 24    -37.7119395653   0.000034016354 0.00027673  0.00000324  0.0000043 0.0000
 25    -37.7119166923   0.000022873012 0.00004234  0.00000062  0.0000019 0.0000
 26    -37.7119069845   0.000009707849 0.00004562  0.00000089  0.0000020 0.0000
 27    -37.7119024011   0.000004583329 0.00005207  0.00000096  0.0000017 0.0000
 28    -37.7119065798  -0.000004178710 0.00003488  0.00000064  0.0000010 0.0000
                            ***DIIS convergence achieved***

               *****************************************************
               *                     SUCCESS                       *
               *           SCF CONVERGED AFTER  29 CYCLES          *
               *****************************************************


----------------
TOTAL SCF ENERGY
----------------

Total Energy       :          -37.71191427 Eh           -1026.19336 eV

Components:
Nuclear Repulsion  :            0.00000000 Eh               0.00000 eV
Electronic Energy  :          -37.71191427 Eh           -1026.19336 eV
One Electron Energy:          -62.54279651 Eh           -1701.87601 eV
Two Electron Energy:           24.83088224 Eh             675.68266 eV

Virial components:
Potential Energy   :          -49.63648767 Eh           -1350.67750 eV
Kinetic Energy     :           11.92457340 Eh             324.48414 eV
Virial Ratio       :            4.16253781


---------------
SCF CONVERGENCE
---------------

  Last Energy change         ...   -7.6908e-06  Tolerance :   1.0000e-08
  Last MAX-Density change    ...    1.1169e-05  Tolerance :   1.0000e-07
  Last RMS-Density change    ...    1.9163e-07  Tolerance :   5.0000e-09
  Last DIIS Error            ...    3.5847e-07  Tolerance :   5.0000e-07

             **** THE GBW FILE WAS UPDATED (39_Y.gbw) ****
             **** DENSITY FILE WAS UPDATED (39_Y.scfp) ****
             **** ENERGY FILE WAS UPDATED (39_Y.en.tmp) ****
----------------------
UHF SPIN CONTAMINATION
----------------------

Expectation value of <S**2>     :     0.864516
Ideal value S*(S+1) for S=0.5   :     0.750000
Deviation                       :     0.114516

             **** THE GBW FILE WAS UPDATED (39_Y.gbw) ****
             **** DENSITY FILE WAS UPDATED (39_Y.scfp) ****
----------------
ORBITAL ENERGIES
----------------
                 SPIN UP ORBITALS
  NO   OCC          E(Eh)            E(eV) 
   0   1.0000      -2.242456       -61.0203 
   1   1.0000      -1.325429       -36.0668 
   2   1.0000      -1.325428       -36.0667 
   3   1.0000      -1.302078       -35.4313 
   4   1.0000      -0.238622        -6.4932 
   5   1.0000      -0.210280        -5.7220 
   6   0.0000       0.010299         0.2803 
   7   0.0000       0.010300         0.2803 
   8   0.0000       0.014037         0.3820 
   9   0.0000       0.024816         0.6753 
  10   0.0000       0.030529         0.8307 
  11   0.0000       0.030529         0.8307 
  12   0.0000       0.030597         0.8326 
  13   0.0000       0.030654         0.8341 
  14   0.0000       0.031557         0.8587 
  15   0.0000       0.043537         1.1847 
  16   0.0000       0.043537         1.1847 
  17   0.0000       0.049215         1.3392 
  18   0.0000       0.073374         1.9966 
  19   0.0000       0.074404         2.0246 
  20   0.0000       0.074404         2.0246 
  21   0.0000       0.077854         2.1185 
  22   0.0000       0.104190         2.8351 
  23   0.0000       0.131884         3.5887 
  24   0.0000       0.134802         3.6682 
  25   0.0000       0.134803         3.6682 
  26   0.0000       0.141607         3.8533 
  27   0.0000       0.147029         4.0009 
  28   0.0000       0.147029         4.0009 
  29   0.0000       0.147572         4.0156 
  30   0.0000       0.148029         4.0281 
  31   0.0000       0.148056         4.0288 
  32   0.0000       0.148056         4.0288 
  33   0.0000       0.148069         4.0292 
  34   0.0000       0.161911         4.4058 
  35   0.0000       0.161911         4.4058 
  36   0.0000       0.167470         4.5571 
  37   0.0000       0.198860         5.4112 
  38   0.0000       0.306334         8.3358 
  39   0.0000       0.336958         9.1691 
  40   0.0000       0.339164         9.2291 
  41   0.0000       0.339165         9.2291 
  42   0.0000       0.346077         9.4172 
  43   0.0000       0.392316        10.6755 
  44   0.0000       0.392328        10.6758 
  45   0.0000       0.392328        10.6758 
  46   0.0000       0.392454        10.6792 
  47   0.0000       0.392511        10.6808 
  48   0.0000       0.392514        10.6809 
  49   0.0000       0.392515        10.6809 
  50   0.0000       0.392515        10.6809 
  51   0.0000       0.392603        10.6833 
  52   0.0000       0.472770        12.8647 
  53   0.0000       0.472770        12.8647 
  54   0.0000       0.478710        13.0264 
  55   0.0000       0.488914        13.3040 
  56   0.0000       0.489730        13.3262 
  57   0.0000       0.489730        13.3262 
  58   0.0000       0.490826        13.3561 
  59   0.0000       0.521467        14.1898 
  60   0.0000       0.521467        14.1898 
  61   0.0000       0.522233        14.2107 
  62   0.0000       1.007891        27.4261 
  63   0.0000       1.030903        28.0523 
  64   0.0000       1.034760        28.1573 
  65   0.0000       1.034761        28.1573 
  66   0.0000       1.045583        28.4518 
  67   0.0000       1.057134        28.7661 
  68   0.0000       1.336463        36.3670 
  69   0.0000       1.336477        36.3674 
  70   0.0000       1.336575        36.3701 
  71   0.0000       1.336575        36.3701 
  72   0.0000       1.337218        36.3876 
  73   0.0000       1.339480        36.4491 
  74   0.0000       1.339742        36.4562 
  75   0.0000       1.339742        36.4562 
  76   0.0000       1.339965        36.4623 
  77   0.0000       1.440857        39.2077 
  78   0.0000       1.440858        39.2077 
  79   0.0000       1.445409        39.3316 
  80   0.0000       1.460919        39.7536 
  81   0.0000       1.465250        39.8715 
  82   0.0000       1.465251        39.8715 
  83   0.0000       1.470094        40.0033 
  84   0.0000       1.566267        42.6203 
  85   0.0000       1.574158        42.8350 
  86   0.0000       1.574159        42.8350 
  87   0.0000       7.794878       212.1094 

                 SPIN DOWN ORBITALS
  NO   OCC          E(Eh)            E(eV) 
   0   1.0000      -2.214076       -60.2481 
   1   1.0000      -1.298375       -35.3306 
   2   1.0000      -1.264467       -34.4079 
   3   1.0000      -1.264464       -34.4078 
   4   1.0000      -0.195364        -5.3161 
   5   0.0000       0.007932         0.2159 
   6   0.0000       0.015351         0.4177 
   7   0.0000       0.015351         0.4177 
   8   0.0000       0.025254         0.6872 
   9   0.0000       0.030510         0.8302 
  10   0.0000       0.030510         0.8302 
  11   0.0000       0.030606         0.8328 
  12   0.0000       0.030830         0.8389 
  13   0.0000       0.031024         0.8442 
  14   0.0000       0.042163         1.1473 
  15   0.0000       0.052946         1.4407 
  16   0.0000       0.052946         1.4407 
  17   0.0000       0.075914         2.0657 
  18   0.0000       0.077512         2.1092 
  19   0.0000       0.077512         2.1092 
  20   0.0000       0.083698         2.2775 
  21   0.0000       0.088274         2.4021 
  22   0.0000       0.134726         3.6661 
  23   0.0000       0.140962         3.8358 
  24   0.0000       0.140962         3.8358 
  25   0.0000       0.147093         4.0026 
  26   0.0000       0.147424         4.0116 
  27   0.0000       0.147424         4.0116 
  28   0.0000       0.147863         4.0236 
  29   0.0000       0.148648         4.0449 
  30   0.0000       0.149738         4.0746 
  31   0.0000       0.149738         4.0746 
  32   0.0000       0.149979         4.0811 
  33   0.0000       0.161565         4.3964 
  34   0.0000       0.162843         4.4312 
  35   0.0000       0.174915         4.7597 
  36   0.0000       0.174915         4.7597 
  37   0.0000       0.209661         5.7052 
  38   0.0000       0.340331         9.2609 
  39   0.0000       0.343634         9.3508 
  40   0.0000       0.343635         9.3508 
  41   0.0000       0.350333         9.5330 
  42   0.0000       0.362296         9.8586 
  43   0.0000       0.391718        10.6592 
  44   0.0000       0.391794        10.6612 
  45   0.0000       0.391794        10.6612 
  46   0.0000       0.391899        10.6641 
  47   0.0000       0.393840        10.7169 
  48   0.0000       0.394641        10.7387 
  49   0.0000       0.394641        10.7387 
  50   0.0000       0.397075        10.8049 
  51   0.0000       0.397235        10.8093 
  52   0.0000       0.487077        13.2540 
  53   0.0000       0.489571        13.3219 
  54   0.0000       0.489571        13.3219 
  55   0.0000       0.493067        13.4170 
  56   0.0000       0.499589        13.5945 
  57   0.0000       0.506783        13.7903 
  58   0.0000       0.506783        13.7903 
  59   0.0000       0.520742        14.1701 
  60   0.0000       0.538830        14.6623 
  61   0.0000       0.538831        14.6623 
  62   0.0000       1.036986        28.2178 
  63   0.0000       1.040472        28.3127 
  64   0.0000       1.040473        28.3127 
  65   0.0000       1.048940        28.5431 
  66   0.0000       1.064760        28.9736 
  67   0.0000       1.069520        29.1031 
  68   0.0000       1.340852        36.4864 
  69   0.0000       1.341047        36.4917 
  70   0.0000       1.341047        36.4918 
  71   0.0000       1.341310        36.4989 
  72   0.0000       1.351016        36.7630 
  73   0.0000       1.354702        36.8633 
  74   0.0000       1.354702        36.8633 
  75   0.0000       1.365554        37.1586 
  76   0.0000       1.366400        37.1816 
  77   0.0000       1.467463        39.9317 
  78   0.0000       1.469536        39.9881 
  79   0.0000       1.469536        39.9881 
  80   0.0000       1.473083        40.0846 
  81   0.0000       1.488124        40.4939 
  82   0.0000       1.500645        40.8346 
  83   0.0000       1.500645        40.8346 
  84   0.0000       1.568265        42.6747 
  85   0.0000       1.590835        43.2888 
  86   0.0000       1.590836        43.2889 
  87   0.0000       7.797936       212.1926 

                    ********************************
                    * MULLIKEN POPULATION ANALYSIS *
                    ********************************

--------------------------------------------
MULLIKEN ATOMIC CHARGES AND SPIN POPULATIONS
--------------------------------------------
   0  Y:   -0.000000    1.000000
Sum of atomic charges         :   -0.0000000
Sum of atomic spin populations:    1.0000000

-----------------------------------------------------
MULLIKEN REDUCED ORBITAL CHARGES AND SPIN POPULATIONS
-----------------------------------------------------
CHARGE
  0  Ys       :     3.938879  s :     3.938879
      pz      :     1.999405  p :     5.998712
      px      :     1.999869
      py      :     1.999438
      dz2     :     0.015236  d :     1.060919
      dxz     :     0.066571
      dyz     :     0.933356
      dx2y2   :     0.034353
      dxy     :     0.011402
      f0      :     0.000206  f :     0.001288
      f+1     :     0.000071
      f-1     :     0.000514
      f+2     :     0.000292
      f-2     :     0.000097
      f+3     :     0.000054
      f-3     :     0.000054
      g0      :     0.000088  g :     0.000202
      g+1     :     0.000000
      g-1     :     0.000004
      g+2     :     0.000056
      g-2     :     0.000019
      g+3     :     0.000014
      g-3     :     0.000014
      g+4     :     0.000002
      g-4     :     0.000005

SPIN
  0  Ys       :     0.031612  s :     0.031612
      pz      :    -0.000422  p :    -0.000756
      px      :     0.000054
      py      :    -0.000388
      dz2     :    -0.007919  d :     0.968273
      dxz     :     0.066559
      dyz     :     0.933355
      dx2y2   :    -0.017855
      dxy     :    -0.005868
      f0      :     0.000203  f :     0.000756
      f+1     :    -0.000000
      f-1     :     0.000431
      f+2     :     0.000165
      f-2     :     0.000055
      f+3     :    -0.000049
      f-3     :    -0.000048
      g0      :     0.000029  g :     0.000116
      g+1     :     0.000000
      g-1     :     0.000004
      g+2     :     0.000046
      g-2     :     0.000015
      g+3     :     0.000014
      g-3     :     0.000014
      g+4     :    -0.000002
      g-4     :    -0.000005


                     *******************************
                     * LOEWDIN POPULATION ANALYSIS *
                     *******************************

-------------------------------------------
LOEWDIN ATOMIC CHARGES AND SPIN POPULATIONS
-------------------------------------------
   0  Y:   -0.000000    1.000000

----------------------------------------------------
LOEWDIN REDUCED ORBITAL CHARGES AND SPIN POPULATIONS
----------------------------------------------------
CHARGE
  0  Ys       :     3.938879  s :     3.938879
      pz      :     1.999405  p :     5.998712
      px      :     1.999869
      py      :     1.999438
      dz2     :     0.015236  d :     1.060919
      dxz     :     0.066571
      dyz     :     0.933356
      dx2y2   :     0.034353
      dxy     :     0.011402
      f0      :     0.000206  f :     0.001288
      f+1     :     0.000071
      f-1     :     0.000514
      f+2     :     0.000292
      f-2     :     0.000097
      f+3     :     0.000054
      f-3     :     0.000054
      g0      :     0.000088  g :     0.000202
      g+1     :     0.000000
      g-1     :     0.000004
      g+2     :     0.000056
      g-2     :     0.000019
      g+3     :     0.000014
      g-3     :     0.000014
      g+4     :     0.000002
      g-4     :     0.000005

SPIN
  0  Ys       :     0.031612  s :     0.031612
      pz      :    -0.000422  p :    -0.000756
      px      :     0.000054
      py      :    -0.000388
      dz2     :    -0.007919  d :     0.968273
      dxz     :     0.066559
      dyz     :     0.933355
      dx2y2   :    -0.017855
      dxy     :    -0.005868
      f0      :     0.000203  f :     0.000756
      f+1     :    -0.000000
      f-1     :     0.000431
      f+2     :     0.000165
      f-2     :     0.000055
      f+3     :    -0.000049
      f-3     :    -0.000048
      g0      :     0.000029  g :     0.000116
      g+1     :     0.000000
      g-1     :     0.000004
      g+2     :     0.000046
      g-2     :     0.000015
      g+3     :     0.000014
      g-3     :     0.000014
      g+4     :    -0.000002
      g-4     :    -0.000005


                      *****************************
                      * MAYER POPULATION ANALYSIS *
                      *****************************

  NA   - Mulliken gross atomic population
  ZA   - Total nuclear charge
  QA   - Mulliken gross atomic charge
  VA   - Mayer's total valence
  BVA  - Mayer's bonded valence
  FA   - Mayer's free valence

  ATOM       NA         ZA         QA         VA         BVA        FA
  0  Y    11.0000    11.0000    -0.0000     1.2290     0.0000     1.2290

  Mayer bond orders larger than 0.100000


-------
TIMINGS
-------

Total SCF time: 0 days 0 hours 0 min 40 sec 

Total time                  ....      40.425 sec
Sum of individual times     ....      39.819 sec  ( 98.5%)

Fock matrix formation       ....      17.625 sec  ( 43.6%)
Diagonalization             ....       0.218 sec  (  0.5%)
Density matrix formation    ....       0.021 sec  (  0.1%)
Population analysis         ....       0.071 sec  (  0.2%)
Initial guess               ....      21.158 sec  ( 52.3%)
Orbital Transformation      ....       0.000 sec  (  0.0%)
Orbital Orthonormalization  ....       0.000 sec  (  0.0%)
DIIS solution               ....       0.652 sec  (  1.6%)


           ************************************************************
           *        Program running with 24 parallel MPI-processes    *
           *              working on a common directory               *
           ************************************************************


------------------------------------------------------------------------------- 
                              ORCA-MATRIX DRIVEN CI                            
------------------------------------------------------------------------------- 

--------------------------------
AUTOMATIC CHOICE OF INCORE LEVEL
--------------------------------

Memory available                           ...   2500.00 MB
Memory needed for S+T                      ...      3.23 MB
Memory needed for J+K                      ...      6.49 MB
Memory needed for DIIS                     ...     45.25 MB
Memory needed for 3-ext                    ...     25.24 MB
Memory needed for 4-ext                    ...    174.57 MB
Memory needed for triples                  ...     21.03 MB
 -> Final InCoreLevel    ... 5
 -> check shows that triples correction can be computed


Wavefunction type
-----------------
Correlation treatment                      ...      CCSD     
Single excitations                         ... ON
Orbital optimization                       ... OFF
Calculation of Z vector                    ... OFF
Calculation of Brueckner orbitals          ... OFF
Perturbative triple excitations            ... ON
Calculation of F12 correction              ... OFF
Frozen core treatment                      ... chemical core (0 el)
Reference Wavefunction                     ... UHF
  Alpha-MOs occ    :     0 ...    5 (  6 MO's/  6 electrons)
  Beta-MOs occ     :     0 ...    4 (  5 MO's/  5 electrons)
  Alpha-MOs virt   :     6 ...   87 ( 82 MO's              )
  Beta-MOs virt    :     5 ...   87 ( 83 MO's              )
Number of AO's                             ...     88
Number of electrons                        ...     11
Number of correlated electrons             ...     11

Algorithmic settings
--------------------
Integral transformation                    ... AO direct full transformation
K(C) Formation                             ... FULL-MO TRAFO
Maximum number of iterations               ...        50
Convergence tolerance (max. residuum)      ... 1.000e-05
Level shift for amplitude update           ... 2.000e-01
Maximum number of DIIS vectors             ...         7
DIIS turned on at iteration                ...         0
Damping before turning on DIIS             ...     0.500
Damping after turning on DIIS              ...     0.000
Pair specific amplitude update             ... OFF
Natural orbital iterations                 ... OFF
Perturbative natural orbital generation    ... OFF
Printlevel                                 ... 2

Memory handling:
----------------
Maximum memory for working arrays          ...   2500 MB
Data storage in matrix containers          ... UNCOMPRESSED
Data type for integral storage             ... DOUBLE
In-Core Storage of quantities:
   Amplitudes+Sigma Vector      ... YES
   J+K operators                ... YES
   DIIS vectors                 ... YES
   3-external integrals         ... YES
   4-external integrals         ... YES


Initializing the integral package          ... done
Warning: reference  - re-canonicalizations have been set to INT 1 VIRT 1

--------------------------
UNRESTRICTED FOCK OPERATOR
--------------------------

<ss|ss>:          231 b            0 skpd (  0.0%)    0.002 s ( 0.010 ms/b)
<ss|sp>:          756 b            0 skpd (  0.0%)    0.021 s ( 0.028 ms/b)
<ss|sd>:          630 b            0 skpd (  0.0%)    0.010 s ( 0.016 ms/b)
<ss|sf>:          378 b            0 skpd (  0.0%)    0.001 s ( 0.003 ms/b)
<ss|sg>:          252 b            0 skpd (  0.0%)    0.002 s ( 0.006 ms/b)
<ss|pp>:          441 b            0 skpd (  0.0%)    0.010 s ( 0.022 ms/b)
<ss|pd>:          630 b            0 skpd (  0.0%)    0.010 s ( 0.016 ms/b)
<ss|pf>:          378 b            0 skpd (  0.0%)    0.001 s ( 0.003 ms/b)
<ss|pg>:          252 b            0 skpd (  0.0%)    0.002 s ( 0.007 ms/b)
<ss|dd>:          315 b            0 skpd (  0.0%)    0.008 s ( 0.026 ms/b)
<ss|df>:          315 b            0 skpd (  0.0%)    0.002 s ( 0.005 ms/b)
<ss|dg>:          210 b            0 skpd (  0.0%)    0.003 s ( 0.012 ms/b)
<ss|ff>:          126 b            0 skpd (  0.0%)    0.000 s ( 0.003 ms/b)
<ss|fg>:          126 b            0 skpd (  0.0%)    0.001 s ( 0.005 ms/b)
<ss|gg>:           63 b            0 skpd (  0.0%)    0.001 s ( 0.014 ms/b)
<sp|sp>:          666 b            0 skpd (  0.0%)    0.013 s ( 0.019 ms/b)
<sp|sd>:         1080 b            0 skpd (  0.0%)    0.017 s ( 0.016 ms/b)
<sp|sf>:          648 b            0 skpd (  0.0%)    0.002 s ( 0.003 ms/b)
<sp|sg>:          432 b            0 skpd (  0.0%)    0.003 s ( 0.008 ms/b)
<sp|pp>:          756 b            0 skpd (  0.0%)    0.016 s ( 0.021 ms/b)
<sp|pd>:         1080 b            0 skpd (  0.0%)    0.021 s ( 0.019 ms/b)
<sp|pf>:          648 b            0 skpd (  0.0%)    0.004 s ( 0.006 ms/b)
<sp|pg>:          432 b            0 skpd (  0.0%)    0.005 s ( 0.012 ms/b)
<sp|dd>:          540 b            0 skpd (  0.0%)    0.025 s ( 0.046 ms/b)
<sp|df>:          540 b            0 skpd (  0.0%)    0.005 s ( 0.010 ms/b)
<sp|dg>:          360 b            0 skpd (  0.0%)    0.008 s ( 0.021 ms/b)
<sp|ff>:          216 b            0 skpd (  0.0%)    0.001 s ( 0.006 ms/b)
<sp|fg>:          216 b            0 skpd (  0.0%)    0.002 s ( 0.009 ms/b)
<sp|gg>:          108 b            0 skpd (  0.0%)    0.003 s ( 0.026 ms/b)
<sd|sd>:          465 b            0 skpd (  0.0%)    0.013 s ( 0.028 ms/b)
<sd|sf>:          540 b            0 skpd (  0.0%)    0.003 s ( 0.006 ms/b)
<sd|sg>:          360 b            0 skpd (  0.0%)    0.005 s ( 0.013 ms/b)
<sd|pp>:          630 b            0 skpd (  0.0%)    0.017 s ( 0.027 ms/b)
<sd|pd>:          900 b            0 skpd (  0.0%)    0.028 s ( 0.032 ms/b)
<sd|pf>:          540 b            0 skpd (  0.0%)    0.005 s ( 0.010 ms/b)
<sd|pg>:          360 b            0 skpd (  0.0%)    0.010 s ( 0.027 ms/b)
<sd|dd>:          450 b            0 skpd (  0.0%)    0.038 s ( 0.084 ms/b)
<sd|df>:          450 b            0 skpd (  0.0%)    0.010 s ( 0.021 ms/b)
<sd|dg>:          300 b            0 skpd (  0.0%)    0.015 s ( 0.050 ms/b)
<sd|ff>:          180 b            0 skpd (  0.0%)    0.003 s ( 0.015 ms/b)
<sd|fg>:          180 b            0 skpd (  0.0%)    0.004 s ( 0.022 ms/b)
<sd|gg>:           90 b            0 skpd (  0.0%)    0.006 s ( 0.063 ms/b)
<sf|sf>:          171 b            0 skpd (  0.0%)    0.001 s ( 0.005 ms/b)
<sf|sg>:          216 b            0 skpd (  0.0%)    0.001 s ( 0.006 ms/b)
<sf|pp>:          378 b            0 skpd (  0.0%)    0.004 s ( 0.011 ms/b)
<sf|pd>:          540 b            0 skpd (  0.0%)    0.008 s ( 0.014 ms/b)
<sf|pf>:          324 b            0 skpd (  0.0%)    0.002 s ( 0.005 ms/b)
<sf|pg>:          216 b            0 skpd (  0.0%)    0.003 s ( 0.015 ms/b)
<sf|dd>:          270 b            0 skpd (  0.0%)    0.011 s ( 0.042 ms/b)
<sf|df>:          270 b            0 skpd (  0.0%)    0.003 s ( 0.012 ms/b)
<sf|dg>:          180 b            0 skpd (  0.0%)    0.005 s ( 0.030 ms/b)
<sf|ff>:          108 b            0 skpd (  0.0%)    0.001 s ( 0.011 ms/b)
<sf|fg>:          108 b            0 skpd (  0.0%)    0.002 s ( 0.015 ms/b)
<sf|gg>:           54 b            0 skpd (  0.0%)    0.002 s ( 0.042 ms/b)
<sg|sg>:           78 b            0 skpd (  0.0%)    0.002 s ( 0.024 ms/b)
<sg|pp>:          252 b            0 skpd (  0.0%)    0.006 s ( 0.022 ms/b)
<sg|pd>:          360 b            0 skpd (  0.0%)    0.010 s ( 0.029 ms/b)
<sg|pf>:          216 b            0 skpd (  0.0%)    0.002 s ( 0.010 ms/b)
<sg|pg>:          144 b            0 skpd (  0.0%)    0.005 s ( 0.031 ms/b)
<sg|dd>:          180 b            0 skpd (  0.0%)    0.015 s ( 0.082 ms/b)
<sg|df>:          180 b            0 skpd (  0.0%)    0.004 s ( 0.024 ms/b)
<sg|dg>:          120 b            0 skpd (  0.0%)    0.007 s ( 0.062 ms/b)
<sg|ff>:           72 b            0 skpd (  0.0%)    0.001 s ( 0.018 ms/b)
<sg|fg>:           72 b            0 skpd (  0.0%)    0.002 s ( 0.029 ms/b)
<sg|gg>:           36 b            0 skpd (  0.0%)    0.003 s ( 0.087 ms/b)
<pp|pp>:          231 b            0 skpd (  0.0%)    0.014 s ( 0.059 ms/b)
<pp|pd>:          630 b            0 skpd (  0.0%)    0.025 s ( 0.039 ms/b)
<pp|pf>:          378 b            0 skpd (  0.0%)    0.005 s ( 0.013 ms/b)
<pp|pg>:          252 b            0 skpd (  0.0%)    0.008 s ( 0.033 ms/b)
<pp|dd>:          315 b            0 skpd (  0.0%)    0.033 s ( 0.103 ms/b)
<pp|df>:          315 b            0 skpd (  0.0%)    0.008 s ( 0.027 ms/b)
<pp|dg>:          210 b            0 skpd (  0.0%)    0.013 s ( 0.062 ms/b)
<pp|ff>:          126 b            0 skpd (  0.0%)    0.003 s ( 0.020 ms/b)
<pp|fg>:          126 b            0 skpd (  0.0%)    0.003 s ( 0.027 ms/b)
<pp|gg>:           63 b            0 skpd (  0.0%)    0.005 s ( 0.080 ms/b)
<pd|pd>:          465 b            0 skpd (  0.0%)    0.050 s ( 0.107 ms/b)
<pd|pf>:          540 b            0 skpd (  0.0%)    0.012 s ( 0.022 ms/b)
<pd|pg>:          360 b            0 skpd (  0.0%)    0.022 s ( 0.062 ms/b)
<pd|dd>:          450 b            0 skpd (  0.0%)    0.081 s ( 0.181 ms/b)
<pd|df>:          450 b            0 skpd (  0.0%)    0.023 s ( 0.052 ms/b)
<pd|dg>:          300 b            0 skpd (  0.0%)    0.037 s ( 0.122 ms/b)
<pd|ff>:          180 b            0 skpd (  0.0%)    0.007 s ( 0.036 ms/b)
<pd|fg>:          180 b            0 skpd (  0.0%)    0.010 s ( 0.054 ms/b)
<pd|gg>:           90 b            0 skpd (  0.0%)    0.015 s ( 0.165 ms/b)
<pf|pf>:          171 b            0 skpd (  0.0%)    0.003 s ( 0.020 ms/b)
<pf|pg>:          216 b            0 skpd (  0.0%)    0.007 s ( 0.032 ms/b)
<pf|dd>:          270 b            0 skpd (  0.0%)    0.021 s ( 0.078 ms/b)
<pf|df>:          270 b            0 skpd (  0.0%)    0.007 s ( 0.024 ms/b)
<pf|dg>:          180 b            0 skpd (  0.0%)    0.010 s ( 0.058 ms/b)
<pf|ff>:          108 b            0 skpd (  0.0%)    0.003 s ( 0.024 ms/b)
<pf|fg>:          108 b            0 skpd (  0.0%)    0.004 s ( 0.034 ms/b)
<pf|gg>:           54 b            0 skpd (  0.0%)    0.005 s ( 0.094 ms/b)
<pg|pg>:           78 b            0 skpd (  0.0%)    0.008 s ( 0.104 ms/b)
<pg|dd>:          180 b            0 skpd (  0.0%)    0.029 s ( 0.160 ms/b)
<pg|df>:          180 b            0 skpd (  0.0%)    0.008 s ( 0.046 ms/b)
<pg|dg>:          120 b            0 skpd (  0.0%)    0.013 s ( 0.111 ms/b)
<pg|ff>:           72 b            0 skpd (  0.0%)    0.003 s ( 0.036 ms/b)
<pg|fg>:           72 b            0 skpd (  0.0%)    0.004 s ( 0.058 ms/b)
<pg|gg>:           36 b            0 skpd (  0.0%)    0.006 s ( 0.178 ms/b)
<dd|dd>:          120 b            0 skpd (  0.0%)    0.070 s ( 0.586 ms/b)
<dd|df>:          225 b            0 skpd (  0.0%)    0.021 s ( 0.095 ms/b)
<dd|dg>:          150 b            0 skpd (  0.0%)    0.034 s ( 0.226 ms/b)
<dd|ff>:           90 b            0 skpd (  0.0%)    0.006 s ( 0.066 ms/b)
<dd|fg>:           90 b            0 skpd (  0.0%)    0.009 s ( 0.099 ms/b)
<dd|gg>:           45 b            0 skpd (  0.0%)    0.013 s ( 0.291 ms/b)
<df|df>:          120 b            0 skpd (  0.0%)    0.009 s ( 0.073 ms/b)
<df|dg>:          150 b            0 skpd (  0.0%)    0.014 s ( 0.095 ms/b)
<df|ff>:           90 b            0 skpd (  0.0%)    0.004 s ( 0.042 ms/b)
<df|fg>:           90 b            0 skpd (  0.0%)    0.005 s ( 0.057 ms/b)
<df|gg>:           45 b            0 skpd (  0.0%)    0.007 s ( 0.162 ms/b)
<dg|dg>:           55 b            0 skpd (  0.0%)    0.016 s ( 0.293 ms/b)
<dg|ff>:           60 b            0 skpd (  0.0%)    0.004 s ( 0.059 ms/b)
<dg|fg>:           60 b            0 skpd (  0.0%)    0.005 s ( 0.090 ms/b)
<dg|gg>:           30 b            0 skpd (  0.0%)    0.008 s ( 0.282 ms/b)
<ff|ff>:           21 b            0 skpd (  0.0%)    0.001 s ( 0.051 ms/b)
<ff|fg>:           36 b            0 skpd (  0.0%)    0.002 s ( 0.054 ms/b)
<ff|gg>:           18 b            0 skpd (  0.0%)    0.003 s ( 0.158 ms/b)
<fg|fg>:           21 b            0 skpd (  0.0%)    0.003 s ( 0.133 ms/b)
<fg|gg>:           18 b            0 skpd (  0.0%)    0.005 s ( 0.272 ms/b)
<gg|gg>:            6 b            0 skpd (  0.0%)    0.004 s ( 0.716 ms/b)
Recanonicalizing the internal orbitals
Recanonicalizing the virtual orbitals
Time needed for Fock operator              ...            1.359 sec
Reference energy                           ...    -37.711917631
Warning: for UHF the TrafoType has to be JK
Warning: for UHF the K(C)-option cannot be MO but must be AOX

-------------------------------
PARTIAL EXCHANGE TRANSFORMATION
-------------------------------

Transformation type                        ... two-operators
Generation of integrals (i,mue|j,nue)      ... ON
Generation of integrals (mue,kappa|nue,tau)... ON
Generation of integrals (i,mue|a,nue)      ... ON
Dimension of the basis                     ...   88
Number of internal alpha-MOs               ...    6 (   0-   5)
Number of internal beta-MOs                ...    5 (   0-   4)
Number of external alpha-MOs               ...   82 (   6-  87)
Number of external beta-MOs                ...   83 (   5-  87)
Pair cutoff                                ... 0.000e+00 Eh
Number of AO pairs in the trafo            ... 3916
Total Number of distinct AO pairs          ... 3916
Memory devoted for trafo                   ... 2500.0 MB 
Max. Number of MO pairs treated together   ... 42314      
Number Format for Storage                  ... Double (8 Byte)
Integral package used                      ... LIBINT

Starting integral evaluation:
    ... done with AO integral generation
Closing buffer AOK[aa] ( 0.00 GB; CompressionRatio= 0.00)
Closing buffer AOK[bb] ( 0.00 GB; CompressionRatio= 0.00)
Closing buffer AOK[ab] ( 0.00 GB; CompressionRatio= 0.00)
Closing buffer AOK[ba] ( 0.00 GB; CompressionRatio= 0.00)
Collecting buffer AOK 
Closing buffer IAAO1[aa] ( 0.00 GB; CompressionRatio= 0.00)
Closing buffer IAAO1[bb] ( 0.00 GB; CompressionRatio= 0.00)
Closing buffer IAAO1[ab] ( 0.00 GB; CompressionRatio= 0.00)
Closing buffer IAAO1[ba] ( 0.00 GB; CompressionRatio= 0.00)
Closing buffer IAAO2[aa] ( 0.00 GB; CompressionRatio= 0.00)
Closing buffer IAAO2[bb] ( 0.00 GB; CompressionRatio= 0.00)
Closing buffer IAAO2[ab] ( 0.00 GB; CompressionRatio= 0.00)
Closing buffer IAAO2[ba] ( 0.00 GB; CompressionRatio= 0.00)
Collecting buffer IAAO 
Closing buffer PRQS    ( 0.00 GB; CompressionRatio= 0.00)
Collecting buffer PRQS 
Number of alpha/alpha MO pairs in trafo    ...   21
Number of beta /beta  MO pairs in trafo    ...   15
Number of alpha/ beta MO pairs in trafo    ...   30
------------------------
SORTING OF (i,mue|j,nue)
------------------------

SORTING OF ALPHA/ALPHA PAIRS
IBATCH = 1 of  1
Closing buffer KAO[aa] ( 0.00 GB; CompressionRatio= 1.00)
Collecting buffer KAO 
SORTING OF BETA /BETA  PAIRS
IBATCH = 1 of  1
Closing buffer KAO[bb] ( 0.00 GB; CompressionRatio= 1.00)
Collecting buffer KAO 
SORTING OF ALPHA/BETA  PAIRS
IBATCH = 1 of  1
Closing buffer KAO[ab] ( 0.00 GB; CompressionRatio= 0.999806339165)
Collecting buffer KAO[ab] 
------------------------
SORTING OF (i,mue|a,nue)
------------------------

Number of alpha/alpha (i,a) pairs in trafo  ...  492
Number of beta /beta  (i,a) pairs in trafo  ...  415
Number of alpha/ beta (i,a) pairs in trafo  ...  498
Number of beta /alpha (i,a) pairs in trafo  ...  410
Setting up the alpha/alpha list             ... done
Setting up the beta /beta  list             ... done
Setting up the alpha/beta  list             ... done
Setting up the beta /alpha list             ... done
    ... Now sorting (i,mue|a,nue)integrals
    ... Integrals (i,b|a,c) will be made on the fly
SORTING OF ALPHA/ALPHA PAIRS
IBATCH = 1 of  1
Closing buffer IPAQ[aa]  0.00 GB; CompressionRatio= 1.00)
SORTING OF BETA /BETA  PAIRS
IBATCH = 1 of  1
Closing buffer IPAQ[bb]( 0.00 GB; CompressionRatio= 1.00)
SORTING OF ALPHA/BETA  PAIRS (NMatSort_ab=21)
IBATCH = 1 of  1
Closing buffer IPAQ[ab]( 0.00 GB; CompressionRatio= 1.00)
SORTING OF BETA/ALPHA  PAIRS
IBATCH = 1 of  1
Closing buffer IPAQ[ba]( 0.00 GB; CompressionRatio= 1.00)
N(AO-Batches) Done                         ...         0 
N(AO-Batches) Skipped                      ...         0 
N(IJ)-pairs Skipped                        ...         0 
TOTAL TIME for half transformation         ...     7.883 sec
AO-integral generation                     ...     0.000 sec
Half transformation                        ...     0.000 sec
K-integral sorting                         ...     1.200 sec
<ss|**>: 
------------------------------
PARTIAL COULOMB TRANSFORMATION
------------------------------

Transformation type                        ... two-operators
Dimension of the basis                     ...   88
Number of internal alpha-MOs               ...    6 (0-5)
Number of internal beta-MOs                ...    5 (0-4)
Pair cutoff                                ... 0.000e+00 Eh
Number of AO pairs included in the trafo   ... 3916
Total Number of distinct AO pairs          ... 3916
Memory devoted for trafo                   ... 2500.0 MB 
Max. Number of MO pairs treated together   ... 83677      
Max. Number of MOs treated per batch       ...  950      
Number Format for Storage                  ... Double (8 Byte)
AO-integral source                         ... DIRECT
Integral package used                      ... LIBINT

Starting integral evaluation:
<sp|**>:         5313 b        0 skpd     0.053 s (  0.010 ms/b)
<sd|**>:         9108 b        0 skpd     0.154 s (  0.017 ms/b)
        7590 b        0 skpd     0.158 s (  0.021 ms/b)
<sf|**>:         4554 b        0 skpd     0.048 s (  0.010 ms/b)
<sg|**>:         3036 b        0 skpd     0.092 s (  0.030 ms/b)
<pp|**>:         5313 b        0 skpd     0.157 s (  0.030 ms/b)
<pd|**>:         7590 b        0 skpd     0.329 s (  0.043 ms/b)
<pf|**>:         4554 b        0 skpd     0.100 s (  0.022 ms/b)
<pg|**>:         3036 b        0 skpd     0.160 s (  0.053 ms/b)
<dd|**>:         3795 b        0 skpd     0.434 s (  0.114 ms/b)
<df|**>:         3795 b        0 skpd     0.165 s (  0.044 ms/b)
<dg|**>:         2530 b        0 skpd     0.232 s (  0.092 ms/b)
<ff|**>:         1518 b        0 skpd     0.092 s (  0.060 ms/b)
<fg|**>:         1518 b        0 skpd     0.124 s (  0.081 ms/b)
<gg|**>:          759 b        0 skpd     0.140 s (  0.184 ms/b)
Closing buffer AOJ[aa] ( 0.00 GB; CompressionRatio= 0.93)
Closing buffer AOJ[bb] ( 0.00 GB; CompressionRatio= 0.00)
Collecting buffer AOJ 
    ... done with AO integral generation
Number of Alpha-MO pairs included          ...   21
Number of Beta-MO pairs included           ...   15
    ... Now sorting integrals
SORTING ALPHA/ALPHA PAIRS
IBATCH = 1 of  1
Closing buffer JAO[aa] ( 0.00 GB; CompressionRatio= 1.00)
SORTING BETA/BETA PAIRS
IBATCH = 1 of  1
Closing buffer JAO[bb] ( 0.00 GB; CompressionRatio= 1.00)
Collecting buffer JAO 
TOTAL TIME for half transformation         ...     2.611 sec
AO-integral generation                     ...     2.255 sec
Half transformation                        ...     0.190 sec
J-integral sorting                         ...     0.128 sec

-------------------------- SECOND HALF TRANSFORMATION -------------------------
Formation of (ij|kl),(ij|ka), (ij|ab)      ... ok (     0.144 sec)
Formation of (ik|jl),(ik|ja), (ia|jb)      ... ok (     0.274 sec)


-----------------------
SPIN UNRESTRICTED GUESS
-----------------------

Entering MDCI_UHF_Guess, Tailored=0
Spin-components of the MP2 energy:
EMP2(aa)=     -0.037839945
EMP2(bb)=     -0.028906911
EMP2(ab)=     -0.170139776

Initial guess performed in     0.011 sec
E(0)                                       ...    -37.711917631
E(MP2)                                     ...     -0.236886632
Initial E(tot)                             ...    -37.948804264
<T|T>                                      ...      0.100774261
Number of pairs included                   ... 55

------------------------------------------------
                  UHF COUPLED CLUSTER ITERATIONS
------------------------------------------------

Number of amplitudes to be optimized       ...       289503

Iter       E(tot)           E(Corr)          Delta-E          Residual     Time      <S|S>**1/2
  0    -37.948804264     -0.236886632     -0.000000000      0.015650459    1.52      0.000000718
                           *** Turning on DIIS ***
  1    -37.953703781     -0.241786149     -0.004899517      0.007859678    1.61      0.031771739
  2    -37.959023473     -0.247105841     -0.005319692      0.004863246    1.61      0.050930575
  3    -37.960874509     -0.248956878     -0.001851037      0.002692197    1.61      0.067365428
  4    -37.962017911     -0.250100279     -0.001143401      0.002028805    1.60      0.084691565
  5    -37.962445252     -0.250527620     -0.000427341      0.001360286    1.64      0.097618667
  6    -37.962669357     -0.250751726     -0.000224105      0.000671413    1.63      0.109975259
  7    -37.962768275     -0.250850644     -0.000098918      0.000263035    1.62      0.117555755
  8    -37.962801985     -0.250884353     -0.000033710      0.000118505    1.62      0.120265207
  9    -37.962823862     -0.250906231     -0.000021877      0.000071082    1.62      0.121407763
 10    -37.962827997     -0.250910366     -0.000004135      0.000035282    1.61      0.121797632
 11    -37.962830030     -0.250912399     -0.000002033      0.000012961    1.61      0.122005762
 12    -37.962829824     -0.250912192      0.000000206      0.000005628    1.61      0.122064099
               --- The Coupled-Cluster iterations have converged ---

----------------------
COUPLED CLUSTER ENERGY
----------------------

E(0)                                       ...    -37.711917631
E(CORR)                                    ...     -0.250912192
E(TOT)                                     ...    -37.962829824
Singles norm <S|S>**1/2                    ...      0.122064099 ( 0.065155392, 0.056908707)  
T1 diagnostic                              ...      0.036803711                              

------------------
LARGEST AMPLITUDES
------------------
   5a-> 18a  -1a-> -1a       0.081344
   4b-> 17b  -1b-> -1b       0.079499
   4b-> 37b  -1b-> -1b       0.074725
   5a-> 17a   4b->  5b       0.056400
   5a-> 37a  -1a-> -1a       0.053498
   5a-> 23a  -1a-> -1a       0.049338
   5a-> 17a   4b-> 14b       0.049118
   5a->  6a   4b-> 15b       0.046393
   5a->  7a   4b-> 16b       0.046392
   5a->  8a   4b->  5b       0.045001
   5a-> 15a   4b-> 15b       0.044833
   5a-> 16a   4b-> 16b       0.044832
   5a-> 36a   4b->  5b       0.040656
   4b-> 22b  -1b-> -1b       0.039321
   5a->  8a   4b-> 14b       0.038957
   5a-> 17a   4b-> 33b       0.036660

----------------------
UHF TRIPLES CORRECTION (Algorithm 1)
----------------------

Multiplier for the singles contribution    ...      1.000000000

SPIN-CASE Alpha-Alpha-Alpha:
10% done
20% done
30% done
40% done
50% done
60% done
70% done
80% done
90% done


SPIN-CASE Beta-Beta-Beta:
10% done
20% done
30% done
40% done
50% done
60% done
70% done
80% done
90% done


SPIN-CASE Alpha-Alpha-Beta:
10% done
20% done
30% done
40% done
50% done
60% done
70% done
80% done
90% done


SPIN-CASE Beta-Beta-Alpha:
10% done
20% done
30% done
40% done
50% done
60% done
70% done
80% done
90% done


Triples Correction (T)                     ...     -0.009524729
    alpha-alpha-alpha ... -0.000310867 (  3.3%)
    alpha-alpha-beta  ... -0.005264988 ( 55.3%)
    alpha-beta -beta  ... -0.003784394 ( 39.7%)
    beta -beta -beta  ... -0.000164481 (  1.7%)
Scaling of triples based on CCSD energies (Peterson et al. Molecular Physics 113, 1551 (2015))
E(T*) = f*E(T) where f = E(F12-CCSD)/E(CCSD) 
f = CCSD (with F12)/ CCSD (without F12)    ...      1.000000000
Scaled triples correction (T)              ...     -0.009524729

Final correlation energy                   ...     -0.260436922
E(CCSD)                                    ...    -37.962829824
E(CCSD(T))                                 ...    -37.972354553



        !!!!!!!!!!!!!!!!!!!!!!!!!!!!!!!!!!!!!!!!!!!!!!!!!!!!!!!!!!!!!!!!!!!!!!!!!! 
        !  Warning: Densities are linearized densities                           !
        !!!!!!!!!!!!!!!!!!!!!!!!!!!!!!!!!!!!!!!!!!!!!!!!!!!!!!!!!!!!!!!!!!!!!!!!!! 

NORM  =      1.168065845 sqrt=     1.080770949
W(HF) =      0.856116121
------------------------------------------------------------------------------
                           ORCA POPULATION ANALYSIS
------------------------------------------------------------------------------
Input electron density              ... 39_Y.mdcip
Input spin density                  ... 39_Y.mdcir
BaseName (.gbw .S,...)              ... 39_Y

                    ********************************
                    * MULLIKEN POPULATION ANALYSIS *
                    ********************************

------------------------------------------
MULLIKEN ATOMIC CHARGES AND SPIN DENSITIES
------------------------------------------
   0  Y:   -0.000000    1.000000
Sum of atomic charges       :   -0.0000000
Sum of atomic spin densities:    1.0000000

---------------------------------------------------
MULLIKEN REDUCED ORBITAL CHARGES AND SPIN DENSITIES
---------------------------------------------------
CHARGE
  0  Ys       :     3.856692  s :     3.856692
      pz      :     2.010425  p :     6.028224
      px      :     2.007577
      py      :     2.010222
      dz2     :     0.023560  d :     1.091424
      dxz     :     0.090874
      dyz     :     0.920075
      dx2y2   :     0.029064
      dxy     :     0.027851
      f0      :     0.003026  f :     0.021876
      f+1     :     0.001677
      f-1     :     0.005591
      f+2     :     0.004328
      f-2     :     0.004310
      f+3     :     0.001472
      f-3     :     0.001472
      g0      :     0.000208  g :     0.001784
      g+1     :     0.000117
      g-1     :     0.000328
      g+2     :     0.000249
      g-2     :     0.000251
      g+3     :     0.000233
      g-3     :     0.000233
      g+4     :     0.000083
      g-4     :     0.000082

SPIN
  0  Ys       :     0.027956  s :     0.027956
      pz      :     0.003579  p :     0.006198
      px      :    -0.000658
      py      :     0.003277
      dz2     :    -0.002293  d :     0.954135
      dxz     :     0.064151
      dyz     :     0.897709
      dx2y2   :    -0.004181
      dxy     :    -0.001252
      f0      :     0.001559  f :     0.010757
      f+1     :     0.000215
      f-1     :     0.003981
      f+2     :     0.002605
      f-2     :     0.002591
      f+3     :    -0.000098
      f-3     :    -0.000098
      g0      :     0.000127  g :     0.000955
      g+1     :     0.000032
      g-1     :     0.000230
      g+2     :     0.000155
      g-2     :     0.000154
      g+3     :     0.000132
      g-3     :     0.000132
      g+4     :    -0.000004
      g-4     :    -0.000003


                     *******************************
                     * LOEWDIN POPULATION ANALYSIS *
                     *******************************

-----------------------------------------
LOEWDIN ATOMIC CHARGES AND SPIN DENSITIES
-----------------------------------------
   0  Y:   -0.000000    1.000000

--------------------------------------------------
LOEWDIN REDUCED ORBITAL CHARGES AND SPIN DENSITIES
--------------------------------------------------
CHARGE
  0  Ys       :     3.856692  s :     3.856692
      pz      :     2.010425  p :     6.028224
      px      :     2.007577
      py      :     2.010222
      dz2     :     0.023560  d :     1.091424
      dxz     :     0.090874
      dyz     :     0.920075
      dx2y2   :     0.029064
      dxy     :     0.027851
      f0      :     0.003026  f :     0.021876
      f+1     :     0.001677
      f-1     :     0.005591
      f+2     :     0.004328
      f-2     :     0.004310
      f+3     :     0.001472
      f-3     :     0.001472
      g0      :     0.000208  g :     0.001784
      g+1     :     0.000117
      g-1     :     0.000328
      g+2     :     0.000249
      g-2     :     0.000251
      g+3     :     0.000233
      g-3     :     0.000233
      g+4     :     0.000083
      g-4     :     0.000082

SPIN
  0  Ys       :     0.027956  s :     0.027956
      pz      :     0.003579  p :     0.006198
      px      :    -0.000658
      py      :     0.003277
      dz2     :    -0.002293  d :     0.954135
      dxz     :     0.064151
      dyz     :     0.897709
      dx2y2   :    -0.004181
      dxy     :    -0.001252
      f0      :     0.001559  f :     0.010757
      f+1     :     0.000215
      f-1     :     0.003981
      f+2     :     0.002605
      f-2     :     0.002591
      f+3     :    -0.000098
      f-3     :    -0.000098
      g0      :     0.000127  g :     0.000955
      g+1     :     0.000032
      g-1     :     0.000230
      g+2     :     0.000155
      g-2     :     0.000154
      g+3     :     0.000132
      g-3     :     0.000132
      g+4     :    -0.000004
      g-4     :    -0.000003


                      *****************************
                      * MAYER POPULATION ANALYSIS *
                      *****************************

  NA   - Mulliken gross atomic population
  ZA   - Total nuclear charge
  QA   - Mulliken gross atomic charge
  VA   - Mayer's total valence
  BVA  - Mayer's bonded valence
  FA   - Mayer's free valence

  ATOM       NA         ZA         QA         VA         BVA        FA
  0  Y    11.0000    11.0000    -0.0000     1.9983     0.0000     1.9983





------------------------------------------------------------------------------- 
                                     TIMINGS                                   
------------------------------------------------------------------------------- 


Total execution time                   ...       34.500 sec

Fock Matrix Formation                  ...        1.359 sec (  3.9%)
Initial Guess                          ...        0.011 sec (  0.0%)
DIIS Solver                            ...        0.327 sec (  0.9%)
State Vector Update                    ...        0.014 sec (  0.0%)
Sigma-vector construction              ...       20.568 sec ( 59.6%)
  <0|H|D>                              ...        0.001 sec (  0.0% of sigma)
  <D|H|D>(0-ext Fock)                  ...        0.004 sec (  0.0% of sigma)
  <D|H|D>(0-ext)                       ...        0.008 sec (  0.0% of sigma)
  <D|H|D>(2-ext Fock)                  ...        0.002 sec (  0.0% of sigma)
  <D|H|D>(2-ext)                       ...        0.060 sec (  0.3% of sigma)
  <D|H|D>(4-ext)                       ...        4.604 sec ( 22.4% of sigma)
  <S|H|0>                              ...        0.186 sec (  0.9% of sigma)
  <S|H|D>(1-ext)                       ...        0.001 sec (  0.0% of sigma)
  <D|H|S>(1-ext)                       ...        0.027 sec (  0.1% of sigma)
  Fock-dressing                        ...       14.550 sec ( 70.7% of sigma)
  (ik|jl)-dressing                     ...        0.010 sec (  0.0% of sigma)
  (ij|ab),(ia|jb)-dressing             ...        0.873 sec (  4.2% of sigma)
  Pair energies                        ...        0.002 sec (  0.0% of sigma)
Total Time for computing (T)           ...        0.571 sec (  1.7% of ALL)
  I/O of integral and amplitudes       ...        0.161 sec ( 28.1% of (T))
  External N**7 contributions          ...        0.132 sec ( 23.1% of (T))
  Internal N**7 contributions          ...        0.058 sec ( 10.2% of (T))
  N**6 triples energy contributions    ...        0.168 sec ( 29.5% of (T))


-------------------------   --------------------
FINAL SINGLE POINT ENERGY       -37.972354552988
-------------------------   --------------------


                            ***************************************
                            *     ORCA property calculations      *
                            ***************************************

                                    ---------------------
                                    Active property flags
                                    ---------------------
   (+) Dipole Moment


------------------------------------------------------------------------------
                       ORCA ELECTRIC PROPERTIES CALCULATION
------------------------------------------------------------------------------

Dipole Moment Calculation                       ... on
Quadrupole Moment Calculation                   ... off
Polarizability Calculation                      ... off
GBWName                                         ... 39_Y.gbw
Electron density file                           ... 39_Y.scfp
The origin for moment calculation is the CENTER OF MASS  = ( 0.000000,  0.000000  0.000000)

-------------
DIPOLE MOMENT
-------------
                                X             Y             Z
Electronic contribution:      0.00000      -0.00000      -0.00000
Nuclear contribution   :      0.00000       0.00000       0.00000
                        -----------------------------------------
Total Dipole Moment    :      0.00000      -0.00000      -0.00000
                        -----------------------------------------
Magnitude (a.u.)       :      0.00000
Magnitude (Debye)      :      0.00000



--------------------
Rotational spectrum 
--------------------
 
Rotational constants in cm-1:     0.000000     0.000000     0.000000 
Rotational constants in MHz :     0.000000     0.000000     0.000000 

 Dipole components along the rotational axes: 
x,y,z [a.u.] :     0.000000    -0.000000    -0.000000 
x,y,z [Debye]:     0.000000    -0.000000    -0.000000 

 

                           *** MDCI DENSITY ***

------------------------------------------------------------------------------
                       ORCA ELECTRIC PROPERTIES CALCULATION
------------------------------------------------------------------------------

Dipole Moment Calculation                       ... on
Quadrupole Moment Calculation                   ... off
Polarizability Calculation                      ... off
GBWName                                         ... 39_Y.gbw
Electron density file                           ... 39_Y.mdcip
The origin for moment calculation is the CENTER OF MASS  = ( 0.000000,  0.000000  0.000000)

-------------
DIPOLE MOMENT
-------------
                                X             Y             Z
Electronic contribution:     -0.00000       0.00000      -0.00000
Nuclear contribution   :      0.00000       0.00000       0.00000
                        -----------------------------------------
Total Dipole Moment    :     -0.00000       0.00000      -0.00000
                        -----------------------------------------
Magnitude (a.u.)       :      0.00000
Magnitude (Debye)      :      0.00000



--------------------
Rotational spectrum 
--------------------
 
Rotational constants in cm-1:     0.000000     0.000000     0.000000 
Rotational constants in MHz :     0.000000     0.000000     0.000000 

 Dipole components along the rotational axes: 
x,y,z [a.u.] :    -0.000000     0.000000    -0.000000 
x,y,z [Debye]:    -0.000000     0.000000    -0.000000 

 

Timings for individual modules:

Sum of individual times         ...       77.091 sec (=   1.285 min)
GTO integral calculation        ...        1.096 sec (=   0.018 min)   1.4 %
SCF iterations                  ...       40.835 sec (=   0.681 min)  53.0 %
MDCI module                     ...       35.159 sec (=   0.586 min)  45.6 %
                             ****ORCA TERMINATED NORMALLY****
TOTAL RUN TIME: 0 days 0 hours 1 minutes 17 seconds 894 msec
