
                                 *****************
                                 * O   R   C   A *
                                 *****************

           --- An Ab Initio, DFT and Semiempirical electronic structure package ---

                  #######################################################
                  #                        -***-                        #
                  #          Department of theory and spectroscopy      #
                  #               Directorship: Frank Neese             #
                  #        Max Planck Institute fuer Kohlenforschung    #
                  #                Kaiser Wilhelm Platz 1               #
                  #                 D-45470 Muelheim/Ruhr               #
                  #                      Germany                        #
                  #                                                     #
                  #                  All rights reserved                #
                  #                        -***-                        #
                  #######################################################


                         Program Version 4.2.0 -  RELEASE  -


 With contributions from (in alphabetic order):
   Daniel Aravena         : Magnetic Suceptibility
   Michael Atanasov       : Ab Initio Ligand Field Theory (pilot matlab implementation)
   Alexander A. Auer      : GIAO ZORA, VPT2
   Ute Becker             : Parallelization
   Giovanni Bistoni       : ED, misc. LED, open-shell LED, HFLED
   Martin Brehm           : Molecular dynamics
   Dmytro Bykov           : SCF Hessian
   Vijay G. Chilkuri      : MRCI spin determinant printing, contributions to CSF-ICE
   Dipayan Datta          : RHF DLPNO-CCSD density
   Achintya Kumar Dutta   : EOM-CC, STEOM-CC
   Dmitry Ganyushin       : Spin-Orbit,Spin-Spin,Magnetic field MRCI
   Miquel Garcia          : C-PCM Hessian, Gaussian charge scheme
   Yang Guo               : DLPNO-NEVPT2, CIM, IAO-localization
   Andreas Hansen         : Spin unrestricted coupled pair/coupled cluster methods
   Benjamin Helmich-Paris : CASSCF linear response (MC-RPA)
   Lee Huntington         : MR-EOM, pCC
   Robert Izsak           : Overlap fitted RIJCOSX, COSX-SCS-MP3, EOM
   Christian Kollmar      : KDIIS, OOCD, Brueckner-CCSD(T), CCSD density
   Simone Kossmann        : Meta GGA functionals, TD-DFT gradient, OOMP2, MP2 Hessian
   Martin Krupicka        : AUTO-CI
   Lucas Lang             : DCDCAS
   Dagmar Lenk            : GEPOL surface, SMD
   Dimitrios Liakos       : Extrapolation schemes; Compound Job, initial MDCI parallelization
   Dimitrios Manganas     : Further ROCIS development; embedding schemes
   Dimitrios Pantazis     : SARC Basis sets
   Taras Petrenko         : DFT Hessian,TD-DFT gradient, ASA, ECA, R-Raman, ABS, FL, XAS/XES, NRVS
   Peter Pinski           : DLPNO-MP2, DLPNO-MP2 Gradient
   Christoph Reimann      : Effective Core Potentials
   Marius Retegan         : Local ZFS, SOC
   Christoph Riplinger    : Optimizer, TS searches, QM/MM, DLPNO-CCSD(T), (RO)-DLPNO pert. Triples
   Tobias Risthaus        : Range-separated hybrids, TD-DFT gradient, RPA, STAB
   Michael Roemelt        : Original ROCIS implementation
   Masaaki Saitow         : Open-shell DLPNO-CCSD energy and density
   Barbara Sandhoefer     : DKH picture change effects
   Avijit Sen             : IP-ROCIS
   Kantharuban Sivalingam : CASSCF convergence, NEVPT2, FIC-MRCI
   Bernardo de Souza      : ESD, SOC TD-DFT
   Georgi Stoychev        : AutoAux, RI-MP2 NMR
   Willem Van den Heuvel  : Paramagnetic NMR
   Boris Wezisla          : Elementary symmetry handling
   Frank Wennmohs         : Technical directorship


 We gratefully acknowledge several colleagues who have allowed us to
 interface, adapt or use parts of their codes:
   Stefan Grimme, W. Hujo, H. Kruse,             : VdW corrections, initial TS optimization,
                  C. Bannwarth                     DFT functionals, gCP, sTDA/sTD-DF
   Ed Valeev, F. Pavosevic, A. Kumar             : LibInt (2-el integral package), F12 methods
   Garnet Chan, S. Sharma, J. Yang, R. Olivares  : DMRG
   Ulf Ekstrom                                   : XCFun DFT Library
   Mihaly Kallay                                 : mrcc  (arbitrary order and MRCC methods)
   Andreas Klamt, Michael Diedenhofen            : otool_cosmo (COSMO solvation model)
   Jiri Pittner, Ondrej Demel                    : Mk-CCSD
   Frank Weinhold                                : gennbo (NPA and NBO analysis)
   Christopher J. Cramer and Donald G. Truhlar   : smd solvation model
   Lars Goerigk                                  : TD-DFT with DH, B97 family of functionals
   V. Asgeirsson, H. Jonsson                     : NEB implementation
   FAccTs GmbH                                   : IRC, NEB, NEB-TS, Multilevel, MM, QM/MM, CI optimization
   S Lehtola, MJT Oliveira, MAL Marques          : LibXC Library


 Your calculation uses the libint2 library for the computation of 2-el integrals
 For citations please refer to: http://libint.valeyev.net

 Your ORCA version has been built with support for libXC version: 4.2.3
 For citations please refer to: https://tddft.org/programs/libxc/

 This ORCA versions uses:
   CBLAS   interface :  Fast vector & matrix operations
   LAPACKE interface :  Fast linear algebra routines
   SCALAPACK package :  Parallel linear algebra routines


----- Orbital basis set information -----
Your calculation utilizes the basis: def2-SVP
   F. Weigend and R. Ahlrichs, Phys. Chem. Chem. Phys. 7, 3297 (2005).

----- AuxJ basis set information -----
Your calculation utilizes the auxiliary basis: def2/J
   F. Weigend, Phys. Chem. Chem. Phys. 8, 1057 (2006).

================================================================================
                                        WARNINGS
                       Please study these warnings very carefully!
================================================================================


INFO   : the flag for use of LIBINT has been found!

================================================================================
                                       INPUT FILE
================================================================================
NAME = 40_Zr_atom40.inp
|  1> # input to generate an atomic fitting density for Zr
|  2> # this file is use internally by ORCA
|  3> #
|  4> # atomic ground state (S=3): 1s2 2s2 2p6 3s2 3p6 4s2 3d10 4p6 4d2 5s2 
|  5> #
|  6> ! RHF AllowRHF def2-SVP def2/J  NoMulliken NoLoewdin NoMayer NoPrintMOs 
|  7> 
|  8> %output print[p_atomdensfit] 2 end
|  9> 
| 10> %scf
| 11>   guess hcore
| 12>   maxiter 1000
| 13>   maxdisk 500000
| 14>   SCFMode Conventional
| 15>   lshift 0.300000
| 16>   hftyp rohf
| 17>   rohf_case sahf
| 18>   rohf_numop   3
| 19>   rohf_norb[1] 5,1
| 20>   rohf_nel[1]  2,2
| 21> end
| 22> 
| 23> %basis
| 24>   NewECP 40
| 25>     N_core 28
| 26>     lmax g
| 27>     s 2
| 28>       1       8.6365280000    150.2429940000  2
| 29>       2       3.7176390000     18.7800360000  2
| 30>     p 4
| 31>       1       7.6267280000     33.1927910000  2
| 32>       2       7.4532070000     66.3890390000  2
| 33>       3       3.3583890000      4.6207260000  2
| 34>       4       3.2297380000      9.2602700000  2
| 35>     d 4
| 36>       1       5.9380860000     13.9933830000  2
| 37>       2       5.8255440000     20.9958820000  2
| 38>       3       2.2050190000      2.2851660000  2
| 39>       4       2.2062920000      3.4412600000  2
| 40>     f 2
| 41>       1       4.8002150000     -5.2393200000  2
| 42>       2       4.7989920000     -6.9874240000  2
| 43>     g 1
| 44>       1       1.0000000000      0.0000000000  2
| 45>   end
| 46>   NewGTO 40
| 47>     s 9 
| 48>      1     136.8260000000      0.0004095632
| 49>      2      14.5128000000     -0.0385700380
| 50>      3       9.0698100000      0.2161121780
| 51>      4       5.6664000000     -0.1735786898
| 52>      5       3.1131900000     -0.4707142838
| 53>      6       0.8234820000      0.7645122883
| 54>      7       0.3811930000      0.5044336517
| 55>      8       0.0977920000      0.0379111320
| 56>      9       0.0508390000     -0.0154111921
| 57>     s 9 
| 58>      1     136.8260000000     -0.0001833746
| 59>      2      14.5128000000      0.0169750608
| 60>      3       9.0698100000     -0.0972931194
| 61>      4       5.6664000000      0.0903675012
| 62>      5       3.1131900000      0.1942685618
| 63>      6       0.8234820000     -0.4201886062
| 64>      7       0.3811930000     -0.4606472334
| 65>      8       0.0977920000      0.3964687191
| 66>      9       0.0508390000      0.8057090890
| 67>     s 9 
| 68>      1     136.8260000000     -0.0000330014
| 69>      2      14.5128000000      0.0020428952
| 70>      3       9.0698100000     -0.0542681963
| 71>      4       5.6664000000     -0.0163772276
| 72>      5       3.1131900000      0.4632613512
| 73>      6       0.8234820000     -1.2680130217
| 74>      7       0.3811930000      0.1376021391
| 75>      8       0.0977920000      2.8204973371
| 76>      9       0.0508390000     -1.9907657105
| 77>     s 9 
| 78>      1     136.8260000000      0.0000508900
| 79>      2      14.5128000000     -0.0059487105
| 80>      3       9.0698100000     -0.0165327375
| 81>      4       5.6664000000     -0.0520458026
| 82>      5       3.1131900000      0.4343554773
| 83>      6       0.8234820000     -1.7512980830
| 84>      7       0.3811930000      1.8936621798
| 85>      8       0.0977920000     -0.4043498959
| 86>      9       0.0508390000     -0.9645242807
| 87>     s 1 
| 88>      1       0.0236930000      1.0000000000
| 89>     s 1 
| 90>      1       0.0110000000      1.0000000000
| 91>     p 8 
| 92>      1      17.4119000000     -0.0011830558
| 93>      2      10.8799000000      0.0191749049
| 94>      3       4.3280400000     -0.1600775543
| 95>      4       1.1386400000      0.4057811494
| 96>      5       0.5758550000      0.4736423519
| 97>      6       0.2886700000      0.2319719471
| 98>      7       0.1280140000      0.0326635414
| 99>      8       0.0552900000      0.0006340299
|100>     p 8 
|101>      1      17.4119000000     -0.0001657249
|102>      2      10.8799000000     -0.0057001930
|103>      3       4.3280400000      0.0595978739
|104>      4       1.1386400000     -0.1799277238
|105>      5       0.5758550000     -0.2348271744
|106>      6       0.2886700000     -0.0962366714
|107>      7       0.1280140000      0.4105412819
|108>      8       0.0552900000      0.7220063082
|109>     p 8 
|110>      1      17.4119000000     -0.0001086576
|111>      2      10.8799000000     -0.0068220722
|112>      3       4.3280400000      0.0694240798
|113>      4       1.1386400000     -0.2077187964
|114>      5       0.5758550000     -0.2840989933
|115>      6       0.2886700000     -0.0995323887
|116>      7       0.1280140000      0.6600278719
|117>      8       0.0552900000      0.5063352569
|118>     p 8 
|119>      1      17.4119000000      0.0003306521
|120>      2      10.8799000000     -0.0141651765
|121>      3       4.3280400000      0.1364680941
|122>      4       1.1386400000     -0.4703924882
|123>      5       0.5758550000     -0.8312064630
|124>      6       0.2886700000      1.3299707653
|125>      7       0.1280140000      0.6211822745
|126>      8       0.0552900000     -1.0992160390
|127>     p 1 
|128>      1       0.0236130000      1.0000000000
|129>     p 1 
|130>      1       0.0101000000      1.0000000000
|131>     d 7 
|132>      1      18.0732000000      0.0011638609
|133>      2       5.2195900000     -0.0084469172
|134>      3       1.6998500000      0.0952478910
|135>      4       0.8363230000      0.2560014665
|136>      5       0.3933540000      0.3507974816
|137>      6       0.1788240000      0.3364465967
|138>      7       0.0782750000      0.2164281543
|139>     d 7 
|140>      1      18.0732000000     -0.0015190647
|141>      2       5.2195900000      0.0109975783
|142>      3       1.6998500000     -0.1456963278
|143>      4       0.8363230000     -0.3911766905
|144>      5       0.3933540000     -0.4239517011
|145>      6       0.1788240000      0.1373752565
|146>      7       0.0782750000      0.7188442119
|147>     d 7 
|148>      1      18.0732000000      0.0018364938
|149>      2       5.2195900000     -0.0134569879
|150>      3       1.6998500000      0.2275281348
|151>      4       0.8363230000      0.5740911425
|152>      5       0.3933540000      0.0106749049
|153>      6       0.1788240000     -1.0386226719
|154>      7       0.0782750000      0.0978798773
|155>     d 1 
|156>      1       0.0322480000      1.0000000000
|157>     d 1 
|158>      1       0.0133000000      1.0000000000
|159>   end
|160>   NewAuxGTO 40
|161>     S 1
|162>      1 1310.72 1.0
|163>     S 1
|164>      1  655.36 1.0
|165>     S 1
|166>      1  327.68 1.0
|167>     S 1
|168>      1  163.84 1.0
|169>     S 1
|170>      1   81.82 1.0
|171>     S 1
|172>      1   40.96 1.0
|173>     S 1
|174>      1   20.48 1.0
|175>     S 1
|176>      1   10.24 1.0
|177>     S 1
|178>      1    5.12 1.0
|179>     S 1
|180>      1    2.56 1.0
|181>     S 1
|182>      1    1.28 1.0
|183>     S 1
|184>      1    0.64 1.0
|185>     S 1
|186>      1    0.32 1.0
|187>     S 1
|188>      1    0.16 1.0
|189>     S 1
|190>      1    0.08 1.0
|191>     S 1
|192>      1    0.04 1.0
|193>     S 1
|194>      1    0.02 1.0
|195>     S 1
|196>      1    0.01 1.0
|197>   end
|198> end
|199> 
|200> * xyz 0 3
|201> 40  0.0 0.0 0.0
|202> *
|203> 
|204> 
|205>                          ****END OF INPUT****
================================================================================

                       ****************************
                       * Single Point Calculation *
                       ****************************

---------------------------------
CARTESIAN COORDINATES (ANGSTROEM)
---------------------------------
  Zr     0.000000    0.000000    0.000000

----------------------------
CARTESIAN COORDINATES (A.U.)
----------------------------
  NO LB      ZA    FRAG     MASS         X           Y           Z
   0 Zr   12.0000*   0    91.220    0.000000    0.000000    0.000000
* core charge reduced due to ECP

--------------------------------
INTERNAL COORDINATES (ANGSTROEM)
--------------------------------
 Zr     0   0   0     0.000000000000     0.00000000     0.00000000

---------------------------
INTERNAL COORDINATES (A.U.)
---------------------------
 Zr     0   0   0     0.000000000000     0.00000000     0.00000000

---------------------
BASIS SET INFORMATION
---------------------
There are 1 groups of distinct atoms

 Group   1 Type Zr  : 38s34p23d contracted to 6s6p5d pattern {999911/888811/77711}

Atom   0Zr   basis set group =>   1
---------------------------------
AUXILIARY/J BASIS SET INFORMATION
---------------------------------
There are 1 groups of distinct atoms

 Group   1 Type Zr  : 18s contracted to 18s pattern {111111111111111111}

Atom   0Zr   basis set group =>   1
-------------------------
ECP PARAMETER INFORMATION
-------------------------

 Group 1, Type Zr ECP (replacing 28 core electrons, lmax=4)

Atom   0Zr   ECP group =>   1

------------------------------------------------------------------------------
                           ORCA GTO INTEGRAL CALCULATION
------------------------------------------------------------------------------

                         BASIS SET STATISTICS AND STARTUP INFO

 # of primitive gaussian shells          ...   95
 # of primitive gaussian functions       ...  255
 # of contracted shells                  ...   17
 # of contracted basis functions         ...   49
 Highest angular momentum                ...    2
 Maximum contraction depth               ...    9
 Integral package used                   ... LIBINT
 Integral threshhold            Thresh   ...  1.000e-10
 Primitive cut-off              TCut     ...  1.000e-11
 Storage cut-off                TCutStore... -1.000e+00
 Buffer length                           ... 1048576 integrals/buffer
 Generate file with integrals 4 distinct ...false


------------------------------ INTEGRAL EVALUATION ----------------------------


 * One electron integrals 

   ECP integrals                         ... done
 Pre-screening matrix                    ... done
 Shell pair data                         ... done (   0.000 sec)
 Statistics run                          ... done
 Maximum amount of storage needed        ...     8 MB
 Maximum amount of storage dedicated     ... 500000 MB
 Beginning two electron integral evaluation:
 Starting repulsion integrals
  <ss|ss>  ...          231 b.         0 skpd (  0.0%)     0.004 s. (  0.019 ms/b)
  <ss|sp>  ...          756 b.         0 skpd (  0.0%)     0.025 s. (  0.033 ms/b)
  <ss|sd>  ...          630 b.         0 skpd (  0.0%)     0.059 s. (  0.094 ms/b)
  <ss|pp>  ...          441 b.         0 skpd (  0.0%)     0.049 s. (  0.111 ms/b)
  <ss|pd>  ...          630 b.         0 skpd (  0.0%)     0.075 s. (  0.118 ms/b)
  <ss|dd>  ...          315 b.         0 skpd (  0.0%)     0.050 s. (  0.160 ms/b)
  <sp|sp>  ...          666 b.         0 skpd (  0.0%)     0.069 s. (  0.104 ms/b)
  <sp|sd>  ...         1080 b.         0 skpd (  0.0%)     0.127 s. (  0.118 ms/b)
  <sp|pp>  ...          756 b.         0 skpd (  0.0%)     0.115 s. (  0.152 ms/b)
  <sp|pd>  ...         1080 b.         0 skpd (  0.0%)     0.219 s. (  0.202 ms/b)
  <sp|dd>  ...          540 b.         0 skpd (  0.0%)     0.167 s. (  0.309 ms/b)
  <sd|sd>  ...          465 b.         0 skpd (  0.0%)     0.090 s. (  0.194 ms/b)
  <sd|pp>  ...          630 b.         0 skpd (  0.0%)     0.163 s. (  0.258 ms/b)
  <sd|pd>  ...          900 b.         0 skpd (  0.0%)     0.333 s. (  0.369 ms/b)
  <sd|dd>  ...          450 b.         0 skpd (  0.0%)     0.266 s. (  0.590 ms/b)
  <pp|pp>  ...          231 b.         0 skpd (  0.0%)     0.077 s. (  0.334 ms/b)
  <pp|pd>  ...          630 b.         0 skpd (  0.0%)     0.279 s. (  0.442 ms/b)
  <pp|dd>  ...          315 b.         0 skpd (  0.0%)     0.229 s. (  0.727 ms/b)
  <pd|pd>  ...          465 b.         0 skpd (  0.0%)     0.378 s. (  0.813 ms/b)
  <pd|dd>  ...          450 b.         0 skpd (  0.0%)     0.564 s. (  1.253 ms/b)
  <dd|dd>  ...          120 b.         0 skpd (  0.0%)     0.279 s. (  2.323 ms/b)


                                      INTEGRAL STATISTICS

Integral type statistics:
 Number of integrals retained            ...     750925 
 One   Center Integrals retained         ...     750925 (100.0%)
 Two   Center Integrals retained         ...          0 (  0.0%)
 Three Center Integrals retained         ...          0 (  0.0%)
 Four  Center Integrals retained         ...          0 (  0.0%)

Storage statistics:
 Number of char integrals                ...          0 (  0.0%)
 Number of short int integrals           ...          0 (  0.0%)
 Number of double/float integrals        ...     750925 (100.0%)
 Amount of memory used                   ...          9 MB
 Amount of memory estimated              ...          8 MB ( 95.6%)

Prescreening statistics:
 Total number of shell quadruples        ...      11781 
 Number of skipped shell quadruples      ...          0 (  0.0%)
 # of negligible batches done            ...          0 (  0.0%)

Timings:
 Total evaluation time               ...     3.947 sec (   0.066 min)
 One electron matrix time            ...     0.024 sec (   0.000 min) =  0.6%
 Schwartz matrix evaluation time     ...     0.220 sec (   0.004 min) =  5.6%
 Statistics run                      ...     0.006 sec (   0.000 min) =  0.1%
 Repulsion integral time             ...     3.615 sec (   0.060 min) = 91.6%

-------------------------------------------------------------------------------
                                 ORCA SCF
-------------------------------------------------------------------------------

------------
SCF SETTINGS
------------
Hamiltonian:
 Ab initio Hamiltonian  Method          .... Hartree-Fock(GTOs)


General Settings:
 Integral files         IntName         .... 40_Zr_atom40
 Hartree-Fock type      HFTyp           .... ROHF
 Total Charge           Charge          ....    0
 Multiplicity           Mult            ....    3
 Number of Electrons    NEL             ....   12
 Basis Dimension        Dim             ....   49
 Nuclear Repulsion      ENuc            ....      0.0000000000 Eh

Convergence Acceleration:
 DIIS                   CNVDIIS         .... on
   Start iteration      DIISMaxIt       ....    12
   Startup error        DIISStart       ....  0.200000
   # of expansion vecs  DIISMaxEq       ....     5
   Bias factor          DIISBfac        ....   1.050
   Max. coefficient     DIISMaxC        ....  10.000
 Newton-Raphson         CNVNR           .... off
 SOSCF                  CNVSOSCF        .... off
 Level Shifting         CNVShift        .... on
   Level shift para.    LevelShift      ....    0.3000
   Turn off err/grad.   ShiftErr        ....    0.0010
 Zerner damping         CNVZerner       .... off
 Static damping         CNVDamp         .... on
   Fraction old density DampFac         ....    0.7000
   Max. Damping (<1)    DampMax         ....    0.9800
   Min. Damping (>=0)   DampMin         ....    0.0000
   Turn off err/grad.   DampErr         ....    0.1000
 Fernandez-Rico         CNVRico         .... off

SCF Procedure:
 Maximum # iterations   MaxIter         ....  1000
 SCF integral mode      SCFMode         .... Conventional
 Integral Threshold     Thresh          ....  1.000e-10 Eh
 Primitive CutOff       TCut            ....  1.000e-11 Eh
 Integral Buffer length BufferLength    .... 1048576
 Integral index format  IndFormat       ....     0
 Integral value format  ValFormat       ....     0
 Integral Storage       Thresh          ....  1.000e-10 Eh

Convergence Tolerance:
 Convergence Check Mode ConvCheckMode   .... Total+1el-Energy
 Convergence forced     ConvForced      .... 0
 Energy Change          TolE            ....  1.000e-06 Eh
 1-El. energy change                    ....  1.000e-03 Eh
 DIIS Error             TolErr          ....  1.000e-06


Diagonalization of the overlap matrix:
Smallest eigenvalue                        ... 4.851e-04
Time for diagonalization                   ...    0.001 sec
Threshold for overlap eigenvalues          ... 1.000e-08
Number of eigenvalues below threshold      ... 0
Time for construction of square roots      ...    0.003 sec
Total time needed                          ...    0.004 sec

--------------------
INITIAL GUESS: HCORE
--------------------
AVERAGE-CONFIGURATION (SAHF) CASE FOUND

-------------------
FINAL ROHF SETTINGS
-------------------
Number of operators             ... 3
  operator   0:   4 orbitals   8 electrons n(mue)= 2.000
  operator   1:   5 orbitals   2 electrons n(mue)= 0.400
  operator   2:   1 orbitals   2 electrons n(mue)= 2.000
Vector coupling coefficients a and b (Zerner convention):
   1.000    1.000    1.000           1.000    1.000    1.000 
   1.000    0.625    1.000           1.000    1.250    1.000 
   1.000    1.000    1.000           1.000    1.000    1.000 

                      -----------------
                      INTIAL GUESS DONE 
                      -----------------

 InCore treatment chosen:
   Memory dedicated               ...    1024 MB
   Memory needed                  ...      9 MB
   Number of tiny    integrals    ...       0
   Number of small   integrals    ...       0
   Number of regular integrals    ...  750925

--------------
SCF ITERATIONS
--------------
ITER       Energy         Delta-E        Max-DP      RMS-DP      [F,P]     Damp
  0    -42.2537197243   0.000000000000 1.88503004  0.07264760  0.9509031 0.7000
  1    -44.6680428943  -2.414323169971 1.28059963  0.04999264  0.3678919 0.7000
                            ****Activating DIIS****
  2    -44.7748501370  -0.106807242738 3.09634521  0.11657803  0.0758227 0.0000
  3    -44.7353500125   0.039500124540 0.02071759  0.00065094  0.1145631 0.7000
  4    -44.7051819239   0.030168088590 0.01516762  0.00051993  0.1303371 0.7000
  5    -44.6982413492   0.006940574664 0.03350870  0.00128682  0.1326350 0.7000
  6    -44.6569951156   0.041246233579 0.01031690  0.00036660  0.1580796 0.7000
  7    -44.7011081363  -0.044113020650 1.20163783  0.02784362  0.1224079 0.7000
  8    -45.9917662944  -1.290658158141 2.80853290  0.06487588  0.0521609 0.0000
  9    -45.8529431628   0.138823131634 0.02651729  0.00076831  0.1761640 0.7000
 10    -45.7951133883   0.057829774467 0.01938380  0.00056146  0.2192790 0.7000
 11    -45.7866474793   0.008465909000 0.01534351  0.00044571  0.2192387 0.7000
 12    -45.7776655703   0.008981909067 0.00731607  0.00021013  0.2212048 0.7000
 13    -45.7803902894  -0.002724719127 0.29868620  0.00699282  0.2165672 0.7000
 14    -45.7581851735   0.022205115839 0.20649728  0.00494984  0.1966909 0.7000
 15    -45.9580474529  -0.199862279398 0.47672230  0.01077327  0.0766874 0.0000
 16    -46.0946514068  -0.136603953819 0.08108865  0.00242907  0.0610158 0.0000
 17    -46.1270764996  -0.032425092849 0.00890156  0.00020684  0.0490775 0.0000
 18    -46.1290793616  -0.002002862003 0.01496688  0.00047376  0.0495370 0.0000
 19    -46.1311325773  -0.002053215685 0.03383420  0.00071184  0.0477550 0.0000
 20    -46.1361821866  -0.005049609330 0.04567083  0.00148700  0.0481183 0.0000
 21    -46.1447452038  -0.008563017154 0.08173707  0.00135208  0.0368255 0.0000
 22    -46.1526148503  -0.007869646480 0.09720809  0.00158167  0.0326314 0.0000
 23    -46.1586974023  -0.006082552048 0.11638262  0.00201550  0.0298362 0.0000
 24    -46.1617335162  -0.003036113919 0.04151855  0.00119322  0.0270251 0.0000
 25    -46.1624153035  -0.000681787268 0.03966131  0.00109270  0.0245182 0.0000
 26    -46.1651078470  -0.002692543524 0.07709801  0.00221173  0.0219134 0.0000
 27    -46.1726871823  -0.007579335290 0.10472345  0.00279558  0.0165282 0.0000
 28    -46.1837607924  -0.011073610052 0.01597389  0.00054853  0.0185523 0.0000
 29    -46.1855816441  -0.001820851706 0.01528596  0.00037967  0.0193837 0.0000
 30    -46.1857297127  -0.000148068614 0.00654050  0.00016311  0.0197043 0.0000
 31    -46.1863039510  -0.000574238300 0.03428142  0.00082252  0.0198084 0.0000
 32    -46.1893371582  -0.003033207249 0.05858223  0.00127175  0.0201688 0.0000
 33    -46.1948042003  -0.005467042035 0.00965669  0.00024275  0.0208835 0.0000
 34    -46.1948703542  -0.000066153891 0.00713207  0.00016620  0.0210537 0.0000
 35    -46.1957197222  -0.000849368036 0.00942628  0.00020702  0.0211682 0.0000
 36    -46.1964781724  -0.000758450258 0.03693488  0.00077422  0.0211747 0.0000
 37    -46.1998667594  -0.003388586922 0.03343753  0.00069332  0.0213369 0.0000
 38    -46.2028424706  -0.002975711244 0.03158741  0.00073958  0.0216544 0.0000
 39    -46.1992753618   0.003567108802 0.02222149  0.00047873  0.0211027 0.0000
 40    -46.2015478533  -0.002272491469 0.03869803  0.00081897  0.0212243 0.0000
 41    -46.2054931336  -0.003945280333 0.04564438  0.00094565  0.0213669 0.0000
 42    -46.2099123074  -0.004419173752 0.05953839  0.00143522  0.0216743 0.0000
 43    -46.2021721097   0.007740197679 0.01330691  0.00032753  0.0208102 0.0000
 44    -46.2034160551  -0.001243945459 0.05326164  0.00117491  0.0207978 0.0000
 45    -46.2091419336  -0.005725878453 0.05945161  0.00128533  0.0209730 0.0000
 46    -46.2156140878  -0.006472154252 0.03696752  0.00093149  0.0210192 0.0000
 47    -46.2111713178   0.004442770012 0.00640005  0.00020775  0.0210411 0.0000
 48    -46.2117422588  -0.000570940932 0.04818445  0.00110543  0.0209870 0.0000
 49    -46.2172563385  -0.005514079711 0.06644666  0.00150815  0.0209327 0.0000
 50    -46.2249270644  -0.007670725945 0.00640515  0.00022304  0.0205870 0.0000
 51    -46.2241534893   0.000773575136 0.01813275  0.00043753  0.0206448 0.0000
 52    -46.2264824844  -0.002328995101 0.00712692  0.00016934  0.0205788 0.0000
 53    -46.2270985575  -0.000616073107 0.07436582  0.00179024  0.0204405 0.0000
 54    -46.2363107214  -0.009212163952 0.10033748  0.00259877  0.0195147 0.0000
 55    -46.2496276028  -0.013316881390 0.13544773  0.00393439  0.0170843 0.0000
 56    -46.2676120442  -0.017984441376 0.06094789  0.00141094  0.0093339 0.0000
 57    -46.2733863889  -0.005774344668 0.04197372  0.00099411  0.0074263 0.0000
 58    -46.2774068746  -0.004020485691 0.05082464  0.00112261  0.0060151 0.0000
 59    -46.2802700049  -0.002863130314 0.06628671  0.00142794  0.0043932 0.0000
 60    -46.2809961387  -0.000726133821 0.05188097  0.00129066  0.0045463 0.0000
 61    -46.2837807424  -0.002784603712 0.02537909  0.00076595  0.0023407 0.0000
 62    -46.2847422397  -0.000961497273 0.00549672  0.00019111  0.0011590 0.0000
 63    -46.2848322867  -0.000090046957 0.00230010  0.00007478  0.0008257 0.0000
 64    -46.2848595126  -0.000027225905 0.00229065  0.00006066  0.0006926 0.0000
 65    -46.2848750572  -0.000015544682 0.00300926  0.00007963  0.0005953 0.0000
 66    -46.2848962723  -0.000021215068 0.00364181  0.00008978  0.0004207 0.0000
 67    -46.2849106588  -0.000014386466 0.00199379  0.00004781  0.0002064 0.0000
 68    -46.2849140201  -0.000003361318 0.00072703  0.00002308  0.0001077 0.0000
                 **** Energy Check signals convergence ****

               *****************************************************
               *                     SUCCESS                       *
               *           SCF CONVERGED AFTER  69 CYCLES          *
               *****************************************************


----------------
TOTAL SCF ENERGY
----------------

Total Energy       :          -46.28491482 Eh           -1259.47656 eV

Components:
Nuclear Repulsion  :            0.00000000 Eh               0.00000 eV
Electronic Energy  :          -46.28491482 Eh           -1259.47656 eV
One Electron Energy:          -77.55108862 Eh           -2110.27241 eV
Two Electron Energy:           31.26617380 Eh             850.79584 eV

Virial components:
Potential Energy   :          -61.33377741 Eh           -1668.97693 eV
Kinetic Energy     :           15.04886259 Eh             409.50037 eV
Virial Ratio       :            4.07564207


---------------
SCF CONVERGENCE
---------------

  Last Energy change         ...   -7.9977e-07  Tolerance :   1.0000e-06
  Last MAX-Density change    ...    3.5884e-04  Tolerance :   1.0000e-05
  Last RMS-Density change    ...    1.2607e-05  Tolerance :   1.0000e-06
  Last DIIS Error            ...    8.7856e-05  Tolerance :   1.0000e-06

             **** THE GBW FILE WAS UPDATED (40_Zr_atom40.gbw) ****
             **** DENSITY FILE WAS UPDATED (40_Zr_atom40.scfp) ****
             **** ENERGY FILE WAS UPDATED (40_Zr_atom40.en.tmp) ****
             **** THE GBW FILE WAS UPDATED (40_Zr_atom40.gbw) ****
             **** DENSITY FILE WAS UPDATED (40_Zr_atom40.scfp) ****
----------------
ORBITAL ENERGIES
----------------

  NO   OCC          E(Eh)            E(eV) 
   0   2.0000      -2.504303       -68.1456 
   1   2.0000      -1.495558       -40.6962 
   2   2.0000      -1.495550       -40.6960 
   3   2.0000      -1.495549       -40.6959 
   4   0.4000      -0.304122        -8.2756 
   5   0.4000      -0.304118        -8.2755 
   6   0.4000      -0.304118        -8.2755 
   7   0.4000      -0.304113        -8.2753 
   8   0.4000      -0.304076        -8.2743 
   9   2.0000      -0.214498        -5.8368 
  10   0.0000       0.012883         0.3506 
  11   0.0000       0.012886         0.3506 
  12   0.0000       0.012887         0.3507 
  13   0.0000       0.027211         0.7404 
  14   0.0000       0.041586         1.1316 
  15   0.0000       0.041586         1.1316 
  16   0.0000       0.041587         1.1316 
  17   0.0000       0.041589         1.1317 
  18   0.0000       0.041602         1.1320 
  19   0.0000       0.045961         1.2507 
  20   0.0000       0.045963         1.2507 
  21   0.0000       0.045964         1.2507 
  22   0.0000       0.139417         3.7937 
  23   0.0000       0.139420         3.7938 
  24   0.0000       0.139426         3.7940 
  25   0.0000       0.139441         3.7944 
  26   0.0000       0.139506         3.7962 
  27   0.0000       0.160028         4.3546 
  28   0.0000       0.160028         4.3546 
  29   0.0000       0.160031         4.3547 
  30   0.0000       0.231187         6.2909 
  31   0.0000       0.428354        11.6561 
  32   0.0000       0.428356        11.6562 
  33   0.0000       0.428363        11.6563 
  34   0.0000       0.428367        11.6565 
  35   0.0000       0.428432        11.6582 
  36   0.0000       0.496780        13.5181 
  37   0.0000       0.496781        13.5181 
  38   0.0000       0.496784        13.5182 
  39   0.0000       1.268790        34.5255 
  40   0.0000       1.434768        39.0420 
  41   0.0000       1.434781        39.0424 
  42   0.0000       1.434781        39.0424 
  43   0.0000       1.434787        39.0425 
  44   0.0000       1.434792        39.0427 
  45   0.0000       1.561386        42.4875 
  46   0.0000       1.561393        42.4877 
  47   0.0000       1.561399        42.4878 
  48   0.0000       6.283053       170.9706 
CleanUpVectors: The p-vectors have cracked symmetry
CleanUpVectors: The p-vectors have cracked symmetry
CleanUpVectors: The p-vectors have cracked symmetry
CleanUpVectors: The d-vectors have cracked symmetry at i=4
CleanUpVectors: The d-vectors have cracked symmetry at i=5
CleanUpVectors: The d-vectors have cracked symmetry at i=6
CleanUpVectors: The d-vectors have cracked symmetry at i=7
CleanUpVectors: The d-vectors have cracked symmetry at i=8
CleanUpVectors: The d-vectors have cracked symmetry at i=14
CleanUpVectors: The d-vectors have cracked symmetry at i=15
CleanUpVectors: The d-vectors have cracked symmetry at i=16
CleanUpVectors: The d-vectors have cracked symmetry at i=17
CleanUpVectors: The d-vectors have cracked symmetry at i=18
CleanUpVectors: The d-vectors have cracked symmetry at i=22
CleanUpVectors: The d-vectors have cracked symmetry at i=23
CleanUpVectors: The d-vectors have cracked symmetry at i=24
CleanUpVectors: The d-vectors have cracked symmetry at i=25
CleanUpVectors: The d-vectors have cracked symmetry at i=26
CleanUpVectors: The d-vectors have cracked symmetry at i=31
CleanUpVectors: The d-vectors have cracked symmetry at i=32
CleanUpVectors: The d-vectors have cracked symmetry at i=33
CleanUpVectors: The d-vectors have cracked symmetry at i=34
CleanUpVectors: The d-vectors have cracked symmetry at i=35
CleanUpVectors: The d-vectors have cracked symmetry at i=40
CleanUpVectors: The d-vectors have cracked symmetry at i=41
CleanUpVectors: The d-vectors have cracked symmetry at i=42
CleanUpVectors: The d-vectors have cracked symmetry at i=43
CleanUpVectors: The d-vectors have cracked symmetry at i=44
CleanUpVectors: The p-vectors have cracked symmetry
CleanUpVectors: The p-vectors have cracked symmetry
--------------------------
ATOM BASIS FOR ELEMENT Zr
--------------------------
 NewGTO Zr
 S 38
    1        136.826000000000         0.000408851600
    2         14.512800000000        -0.038503024070
    3          9.069810000000         0.215736691557
    4          5.666400000000        -0.173277103626
    5          3.113190000000        -0.469896436172
    6          0.823482000000         0.763183978149
    7          0.381193000000         0.503557217991
    8          0.097792000000         0.037845262893
    9          0.050839000000        -0.015384415757
   10        136.826000000000         0.000000047131
   11         14.512800000000        -0.000004362905
   12          9.069810000000         0.000025006133
   13          5.666400000000        -0.000023226121
   14          3.113190000000        -0.000049930617
   15          0.823482000000         0.000107996251
   16          0.381193000000         0.000118394867
   17          0.097792000000        -0.000101899801
   18          0.050839000000        -0.000207082152
   19        136.826000000000         0.000000156454
   20         14.512800000000        -0.000009685027
   21          9.069810000000         0.000257276520
   22          5.666400000000         0.000077641721
   23          3.113190000000        -0.002196245252
   24          0.823482000000         0.006011439486
   25          0.381193000000        -0.000652348926
   26          0.097792000000        -0.013371510207
   27          0.050839000000         0.009437890143
   28        136.826000000000        -0.000000230212
   29         14.512800000000         0.000026910343
   30          9.069810000000         0.000074789593
   31          5.666400000000         0.000235441010
   32          3.113190000000        -0.001964905663
   33          0.823482000000         0.007922394675
   34          0.381193000000        -0.008566411004
   35          0.097792000000         0.001829168600
   36          0.050839000000         0.004363244670
   37          0.023693000000         0.003417415741
   38          0.011000000000         0.000210348621
 P 95
    1         17.411900000000        -0.000046517935
    2         10.879900000000         0.000753960187
    3          4.328040000000        -0.006294273864
    4          1.138640000000         0.015955376720
    5          0.575855000000         0.018623689559
    6          0.288670000000         0.009121172361
    7          0.128014000000         0.001284335433
    8          0.055290000000         0.000024930152
    9         17.411900000000         0.001181894299
   10         10.879900000000        -0.019156079355
   11          4.328040000000         0.159920393300
   12          1.138640000000        -0.405382761435
   13          0.575855000000        -0.473177339139
   14          0.288670000000        -0.231744201597
   15          0.128014000000        -0.032631472976
   16          0.055290000000        -0.000633407422
   17         17.411900000000         0.000000987778
   18         10.879900000000        -0.000016009845
   19          4.328040000000         0.000133654735
   20          1.138640000000        -0.000338801854
   21          0.575855000000        -0.000395461709
   22          0.288670000000        -0.000193682052
   23          0.128014000000        -0.000027272012
   24         17.411900000000         0.000000152433
   25         10.879900000000         0.000005243022
   26          4.328040000000        -0.000054817962
   27          1.138640000000         0.000165497030
   28          0.575855000000         0.000215993395
   29          0.288670000000         0.000088518228
   30          0.128014000000        -0.000377614753
   31          0.055290000000        -0.000664099435
   32         17.411900000000        -0.000003872916
   33         10.879900000000        -0.000133210940
   34          4.328040000000         0.001392775440
   35          1.138640000000        -0.004204829774
   36          0.575855000000        -0.005487805180
   37          0.288670000000        -0.002249007616
   38          0.128014000000         0.009594164641
   39          0.055290000000         0.016872961862
   40         17.411900000000        -0.000000003237
   41         10.879900000000        -0.000000111332
   42          4.328040000000         0.000001164023
   43          1.138640000000        -0.000003514220
   44          0.575855000000        -0.000004586477
   45          0.288670000000        -0.000001879626
   46          0.128014000000         0.000008018399
   47          0.055290000000         0.000014101712
   48         17.411900000000        -0.000000062937
   49         10.879900000000        -0.000003951533
   50          4.328040000000         0.000040212353
   51          1.138640000000        -0.000120316489
   52          0.575855000000        -0.000164558018
   53          0.288670000000        -0.000057651921
   54          0.128014000000         0.000382306453
   55          0.055290000000         0.000293283427
   56         17.411900000000         0.000001599071
   57         10.879900000000         0.000100397726
   58          4.328040000000        -0.001021686603
   59          1.138640000000         0.003056915009
   60          0.575855000000         0.004180972024
   61          0.288670000000         0.001464778625
   62          0.128014000000        -0.009713367990
   63          0.055290000000        -0.007451534831
   64         10.879900000000         0.000000083908
   65          4.328040000000        -0.000000853883
   66          1.138640000000         0.000002554841
   67          0.575855000000         0.000003494280
   68          0.288670000000         0.000001224200
   69          0.128014000000        -0.000008118024
   70          0.055290000000        -0.000006227679
   71         17.411900000000        -0.000000116331
   72         10.879900000000         0.000004983635
   73          4.328040000000        -0.000048012619
   74          1.138640000000         0.000165494913
   75          0.575855000000         0.000292437580
   76          0.288670000000        -0.000467914351
   77          0.128014000000        -0.000218546233
   78          0.055290000000         0.000386729523
   79         17.411900000000         0.000002955655
   80         10.879900000000        -0.000126620631
   81          4.328040000000         0.001219870167
   82          1.138640000000        -0.004204775974
   83          0.575855000000        -0.007430044172
   84          0.288670000000         0.011888432024
   85          0.128014000000         0.005552665846
   86          0.055290000000        -0.009825746175
   87         17.411900000000         0.000000002470
   88         10.879900000000        -0.000000105824
   89          4.328040000000         0.000001019516
   90          1.138640000000        -0.000003514175
   91          0.575855000000        -0.000006209718
   92          0.288670000000         0.000009935851
   93          0.128014000000         0.000004640684
   94          0.055290000000        -0.000008211945
   95          0.023613000000         0.000011224573
 D 95
    1        136.826000000000        -0.000000000091
    2         14.512800000000         0.000000080733
    3          9.069810000000        -0.000000723827
    4          5.666400000000         0.000000930557
    5          3.113190000000         0.000004593095
    6          0.823482000000        -0.000028202269
    7          0.381193000000        -0.000040198776
    8          0.097792000000        -0.000011776524
    9          0.050839000000         0.000009208586
   10        136.826000000000         0.000000000131
   11         14.512800000000        -0.000000114234
   12          9.069810000000         0.000001047655
   13          5.666400000000        -0.000001557541
   14          3.113190000000        -0.000006094406
   15          0.823482000000         0.000049833877
   16          0.381193000000         0.000118020666
   17          0.097792000000        -0.000395949784
   18          0.050839000000        -0.001547803322
   19        136.826000000000         0.000000000037
   20         14.512800000000        -0.000000021369
   21          9.069810000000         0.000000908307
   22          5.666400000000         0.000000438751
   23          3.113190000000        -0.000022589459
   24          0.823482000000         0.000233751818
   25          0.381193000000        -0.000054798120
   26          0.097792000000        -0.004378322622
   27          0.050839000000         0.005944407130
   28        136.826000000000         0.000000000071
   29         14.512800000000        -0.000000078630
   30          9.069810000000        -0.000000349672
   31          5.666400000000        -0.000001761947
   32          3.113190000000         0.000026764179
   33          0.823482000000        -0.000407962469
   34          0.381193000000         0.000952953782
   35          0.097792000000        -0.000793173611
   36          0.050839000000        -0.003639405232
   37          0.023693000000         0.011933677719
   38          0.011000000000         0.004583352688
   39         18.073200000000         0.000173745995
   40          5.219590000000        -0.001260990927
   41          1.699850000000         0.014219001269
   42          0.836323000000         0.038216963535
   43          0.393354000000         0.052368506891
   44          0.178824000000         0.050226147113
   45          0.078275000000         0.032309294919
   46         18.073200000000        -0.000032029292
   47          5.219590000000         0.000232458001
   48          1.699850000000        -0.002621208873
   49          0.836323000000        -0.007045125184
   50          0.393354000000        -0.009653898494
   51          0.178824000000        -0.009258964114
   52          0.078275000000        -0.005956073069
   53         18.073200000000        -0.000066663751
   54          5.219590000000         0.000483823438
   55          1.699850000000        -0.005455619015
   56          0.836323000000        -0.014663279719
   57          0.393354000000        -0.020093016137
   58          0.178824000000        -0.019271024598
   59          0.078275000000        -0.012396595258
   60         18.073200000000         0.001114869727
   61          5.219590000000        -0.008091355482
   62          1.699850000000         0.091238558010
   63          0.836323000000         0.245225426061
   64          0.393354000000         0.336031129285
   65          0.178824000000         0.322284325753
   66          0.078275000000         0.207317899681
   67         18.073200000000        -0.000000759228
   68          5.219590000000         0.000005510226
   69          1.699850000000        -0.000062133605
   70          0.836323000000        -0.000166998911
   71          0.393354000000        -0.000228837742
   72          0.178824000000        -0.000219476147
   73          0.078275000000        -0.000141183825
   74         18.073200000000         0.000022108797
   75          5.219590000000        -0.000160061141
   76          1.699850000000         0.002120495973
   77          0.836323000000         0.005693270443
   78          0.393354000000         0.006170285060
   79          0.178824000000        -0.001999389295
   80          0.078275000000        -0.010462214657
   81         18.073200000000        -0.000004088141
   82          5.219590000000         0.000029596926
   83          1.699850000000        -0.000392101186
   84          0.836323000000        -0.001052743377
   85          0.393354000000        -0.001140948212
   86          0.178824000000         0.000369707334
   87          0.078275000000         0.001934569471
   88         18.073200000000        -0.000008497737
   89          5.219590000000         0.000061521095
   90          1.699850000000        -0.000815033758
   91          0.836323000000        -0.002188265230
   92          0.393354000000        -0.002371610551
   93          0.178824000000         0.000768485200
   94          0.078275000000         0.004021256462
   95         18.073200000000         0.000142181724
 S 38
    1        136.826000000000         0.000228511904
    2         14.512800000000        -0.021519786959
    3          9.069810000000         0.120577740417
    4          5.666400000000        -0.096846584003
    5          3.113190000000        -0.262630571067
    6          0.823482000000         0.426552381719
    7          0.381193000000         0.281443972641
    8          0.097792000000         0.021152156605
    9          0.050839000000        -0.008598528495
   10        136.826000000000        -0.000204492217
   11         14.512800000000         0.018929927172
   12          9.069810000000        -0.108497500321
   13          5.666400000000         0.100774320434
   14          3.113190000000         0.216640739616
   15          0.823482000000        -0.468577980821
   16          0.381193000000        -0.513695867314
   17          0.097792000000         0.442126485853
   18          0.050839000000         0.898495419633
   19        136.826000000000         0.000018515560
   20         14.512800000000        -0.001146174046
   21          9.069810000000         0.030447375926
   22          5.666400000000         0.009188505227
   23          3.113190000000        -0.259914525887
   24          0.823482000000         0.711423481585
   25          0.381193000000        -0.077202198398
   26          0.097792000000        -1.582450653914
   27          0.050839000000         1.116926599764
   28        136.826000000000        -0.000084306641
   29         14.512800000000         0.009854898796
   30          9.069810000000         0.027388869382
   31          5.666400000000         0.086221394933
   32          3.113190000000        -0.719572631772
   33          0.823482000000         2.901278414712
   34          0.381193000000        -3.137125118985
   35          0.097792000000         0.669864049046
   36          0.050839000000         1.597873887503
   37          0.023693000000        -3.764180334966
   38          0.011000000000         1.465802568216
 D 95
    1         14.512800000000         0.000000001671
    2          9.069810000000        -0.000000014981
    3          5.666400000000         0.000000019259
    4          3.113190000000         0.000000095062
    5          0.823482000000        -0.000000583693
    6          0.381193000000        -0.000000831981
    7        136.826000000000        -0.000000000048
    8         14.512800000000         0.000000041789
    9          9.069810000000        -0.000000383255
   10          5.666400000000         0.000000569782
   11          3.113190000000         0.000002229465
   12          0.823482000000        -0.000018230301
   13          0.381193000000        -0.000043174491
   14          0.097792000000         0.000144846922
   15          0.050839000000         0.000566219647
   16        136.826000000000        -0.000000000011
   17         14.512800000000         0.000000006220
   18          9.069810000000        -0.000000264381
   19          5.666400000000        -0.000000127708
   20          3.113190000000         0.000006575125
   21          0.823482000000        -0.000068038261
   22          0.381193000000         0.000015950117
   23          0.097792000000         0.001274400602
   24          0.050839000000        -0.001730241620
   25         14.512800000000        -0.000000006360
   26          9.069810000000        -0.000000028283
   27          5.666400000000        -0.000000142514
   28          3.113190000000         0.000002164806
   29          0.823482000000        -0.000032997815
   30          0.381193000000         0.000077079132
   31          0.097792000000        -0.000064155402
   32          0.050839000000        -0.000294371249
   33          0.023693000000         0.003041208839
   34          0.011000000000        -0.008843171778
   35         18.073200000000         0.001110923873
   36          5.219590000000        -0.008062717778
   37          1.699850000000         0.090915637723
   38          0.836323000000         0.244357500629
   39          0.393354000000         0.334841815568
   40          0.178824000000         0.321143666046
   41          0.078275000000         0.206584140215
   42         18.073200000000         0.000082847004
   43          5.219590000000        -0.000601276133
   44          1.699850000000         0.006780021898
   45          0.836323000000         0.018222928935
   46          0.393354000000         0.024970784993
   47          0.178824000000         0.023949247268
   48          0.078275000000         0.015405985478
   49         18.073200000000        -0.000082450951
   50          5.219590000000         0.000598401714
   51          1.699850000000        -0.006747609795
   52          0.836323000000        -0.018135813663
   53          0.393354000000        -0.024851411388
   54          0.178824000000        -0.023834757155
   55          0.078275000000        -0.015332336691
   56         18.073200000000        -0.000175726115
   57          5.219590000000         0.001275361982
   58          1.699850000000        -0.014381050058
   59          0.836323000000        -0.038652508376
   60          0.393354000000        -0.052965331727
   61          0.178824000000        -0.050798556253
   62          0.078275000000        -0.032677512208
   63         18.073200000000        -0.000003541627
   64          5.219590000000         0.000025703956
   65          1.699850000000        -0.000289839185
   66          0.836323000000        -0.000779012068
   67          0.393354000000        -0.001067476195
   68          0.178824000000        -0.001023806475
   69          0.078275000000        -0.000658590540
   70         18.073200000000         0.000142472600
   71          5.219590000000        -0.001031459406
   72          1.699850000000         0.013664812714
   73          0.836323000000         0.036688338644
   74          0.393354000000         0.039762296570
   75          0.178824000000        -0.012884382056
   76          0.078275000000        -0.067420172314
   77         18.073200000000         0.000010621283
   78          5.219590000000        -0.000076894945
   79          1.699850000000         0.001018707102
   80          0.836323000000         0.002735103065
   81          0.393354000000         0.002964265574
   82          0.178824000000        -0.000960526264
   83          0.078275000000        -0.005026150727
   84         18.073200000000        -0.000010578377
   85          5.219590000000         0.000076584312
   86          1.699850000000        -0.001014591824
   87          0.836323000000        -0.002724054051
   88          0.393354000000        -0.002952290811
   89          0.178824000000         0.000956646020
   90          0.078275000000         0.005005846552
   91         18.073200000000        -0.000022445121
   92          5.219590000000         0.000162496023
   93          1.699850000000        -0.002152753372
   94          0.836323000000        -0.005779877588
   95          0.393354000000        -0.006264148644
 P 34
    1         17.411900000000         0.000013661001
    2         10.879900000000        -0.000221416767
    3          4.328040000000         0.001848450078
    4          1.138640000000        -0.004685642535
    5          0.575855000000        -0.005469250491
    6          0.288670000000        -0.002678630153
    7          0.128014000000        -0.000377172964
    8          0.055290000000        -0.000007321280
    9         17.411900000000        -0.000141113478
   10         10.879900000000        -0.004853670518
   11          4.328040000000         0.050747131452
   12          1.138640000000        -0.153207073576
   13          0.575855000000        -0.199953533709
   14          0.288670000000        -0.081944785854
   15          0.128014000000         0.349572745399
   16          0.055290000000         0.614782820828
   17         17.411900000000         0.000059055751
   18         10.879900000000         0.003707817923
   19          4.328040000000        -0.037732208022
   20          1.138640000000         0.112895826038
   21          0.575855000000         0.154408705813
   22          0.288670000000         0.054096169603
   23          0.128014000000        -0.358727246150
   24          0.055290000000        -0.275194821415
   25         17.411900000000         0.000003384791
   26         10.879900000000        -0.000145004851
   27          4.328040000000         0.001396984760
   28          1.138640000000        -0.004815273061
   29          0.575855000000        -0.008508822292
   30          0.288670000000         0.013614529481
   31          0.128014000000         0.006358864879
   32          0.055290000000        -0.011252359495
   33          0.023613000000        -0.209229445265
   34          0.010100000000         1.007191955080
 D 95
    1         14.512800000000        -0.000000000917
    2          9.069810000000         0.000000008217
    3          5.666400000000        -0.000000010564
    4          3.113190000000        -0.000000052143
    5          0.823482000000         0.000000320167
    6          0.381193000000         0.000000456358
    7         14.512800000000        -0.000000003427
    8          9.069810000000         0.000000031429
    9          5.666400000000        -0.000000046725
   10          3.113190000000        -0.000000182827
   11          0.823482000000         0.000001494971
   12          0.381193000000         0.000003540514
   13          0.097792000000        -0.000011878137
   14          0.050839000000        -0.000046432708
   15         14.512800000000         0.000000000573
   16          9.069810000000        -0.000000024363
   17          5.666400000000        -0.000000011769
   18          3.113190000000         0.000000605913
   19          0.823482000000        -0.000006269879
   20          0.381193000000         0.000001469839
   21          0.097792000000         0.000117438883
   22          0.050839000000        -0.000159445658
   23         14.512800000000         0.000000001068
   24          9.069810000000         0.000000004750
   25          5.666400000000         0.000000023934
   26          3.113190000000        -0.000000363564
   27          0.823482000000         0.000005541746
   28          0.381193000000        -0.000012944887
   29          0.097792000000         0.000010774440
   30          0.050839000000         0.000049437540
   31          0.023693000000        -0.001843481754
   32          0.011000000000         0.005814585563
   33         18.073200000000        -0.000043270308
   34          5.219590000000         0.000314041572
   35          1.699850000000        -0.003541149592
   36          0.836323000000        -0.009517685684
   37          0.393354000000        -0.013042035322
   38          0.178824000000        -0.012508494582
   39          0.078275000000        -0.008046419319
   40         18.073200000000        -0.000003050791
   41          5.219590000000         0.000022141635
   42          1.699850000000        -0.000249670259
   43          0.836323000000        -0.000671048480
   44          0.393354000000        -0.000919534252
   45          0.178824000000        -0.000881916735
   46          0.078275000000        -0.000567316219
   47         18.073200000000         0.000003421912
   48          5.219590000000        -0.000024835106
   49          1.699850000000         0.000280041985
   50          0.836323000000         0.000752679750
   51          0.393354000000         0.001031393158
   52          0.178824000000         0.000989199569
   53          0.078275000000         0.000636328734
   54         18.073200000000         0.000002373114
   55          5.219590000000        -0.000017223278
   56          1.699850000000         0.000194210604
   57          0.836323000000         0.000521987404
   58          0.393354000000         0.000715276632
   59          0.178824000000         0.000686015155
   60          0.078275000000         0.000441297357
   61         18.073200000000         0.000000138749
   62          5.219590000000        -0.000001006998
   63          1.699850000000         0.000011354959
   64          0.836323000000         0.000030519166
   65          0.393354000000         0.000041820255
   66          0.178824000000         0.000040109417
   67          0.078275000000         0.000025801441
   68         18.073200000000         0.000172025115
   69          5.219590000000        -0.001245410861
   70          1.699850000000         0.016499249573
   71          0.836323000000         0.044298452413
   72          0.393354000000         0.048010029004
   73          0.178824000000        -0.015556937340
   74          0.078275000000        -0.081404866105
   75         18.073200000000         0.000012118107
   76          5.219590000000        -0.000087731506
   77          1.699850000000         0.001162270260
   78          0.836323000000         0.003120552458
   79          0.393354000000         0.003382010112
   80          0.178824000000        -0.001095890181
   81          0.078275000000        -0.005734470194
   82         18.073200000000        -0.000013616794
   83          5.219590000000         0.000098581555
   84          1.699850000000        -0.001306012116
   85          0.836323000000        -0.003506481632
   86          0.393354000000        -0.003800274630
   87          0.178824000000         0.001231422590
   88          0.078275000000         0.006443671329
   89         18.073200000000        -0.000009165449
   90          5.219590000000         0.000066355134
   91          1.699850000000        -0.000879075295
   92          0.836323000000        -0.002360208866
   93          0.393354000000        -0.002557960604
   94          0.178824000000         0.000828869169
   95          0.078275000000         0.004337227966
 P 34
    1         17.411900000000         0.000196410343
    2         10.879900000000        -0.003183408298
    3          4.328040000000         0.026575996979
    4          1.138640000000        -0.067367587216
    5          0.575855000000        -0.078633870741
    6          0.288670000000        -0.038511868777
    7          0.128014000000        -0.005422785108
    8          0.055290000000        -0.000105261333
    9         17.411900000000         0.000255207298
   10         10.879900000000         0.008777985998
   11          4.328040000000        -0.091777471850
   12          1.138640000000         0.277078870863
   13          0.575855000000         0.361621027358
   14          0.288670000000         0.148199219575
   15          0.128014000000        -0.632211159176
   16          0.055290000000        -1.111850294146
   17         17.411900000000        -0.000157747829
   18         10.879900000000        -0.009904204378
   19          4.328040000000         0.100789064520
   20          1.138640000000        -0.301563711505
   21          0.575855000000        -0.412451585216
   22          0.288670000000        -0.144499954128
   23          0.128014000000         0.958220720496
   24          0.055290000000         0.735091585273
   25         17.411900000000        -0.000018488674
   26         10.879900000000         0.000792057072
   27          4.328040000000        -0.007630721650
   28          1.138640000000         0.026302368824
   29          0.575855000000         0.046477568215
   30          0.288670000000        -0.074366369513
   31          0.128014000000        -0.034733899245
   32          0.055290000000         0.061463536089
   33          0.023613000000         1.873646012469
   34          0.010100000000        -1.525148047340
 P 34
    1         17.411900000000        -0.000459686631
    2         10.879900000000         0.007450576244
    3          4.328040000000        -0.062199527426
    4          1.138640000000         0.157669798501
    5          0.575855000000         0.184037859560
    6          0.288670000000         0.090134719691
    7          0.128014000000         0.012691703394
    8          0.055290000000         0.000246357838
    9         17.411900000000        -0.001398646258
   10         10.879900000000        -0.048107155952
   11          4.328040000000         0.502980199811
   12          1.138640000000        -1.518511929140
   13          0.575855000000        -1.981839474660
   14          0.288670000000        -0.812195755358
   15          0.128014000000         3.464790310260
   16          0.055290000000         6.093420006438
   17         17.411900000000         0.000684012775
   18         10.879900000000         0.042945772186
   19          4.328040000000        -0.437033005207
   20          1.138640000000         1.307615024789
   21          0.575855000000         1.788437631090
   22          0.288670000000         0.626568462618
   23          0.128014000000        -4.154955531391
   24          0.055290000000        -3.187441873233
   25         17.411900000000         0.000050723258
   26         10.879900000000        -0.002172990609
   27          4.328040000000         0.020934711750
   28          1.138640000000        -0.072159952220
   29          0.575855000000        -0.127510154095
   30          0.288670000000         0.204022447820
   31          0.128014000000         0.095291664668
   32          0.055290000000        -0.168623817012
   33          0.023613000000        -2.992711328811
   34          0.010100000000         1.147838663066
 P 34
    1         17.411900000000         0.000426741114
    2         10.879900000000        -0.006916597065
    3          4.328040000000         0.057741717524
    4          1.138640000000        -0.146369680669
    5          0.575855000000        -0.170847955607
    6          0.288670000000        -0.083674808136
    7          0.128014000000        -0.011782095179
    8          0.055290000000        -0.000228701491
    9         17.411900000000         0.003130026854
   10         10.879900000000         0.107658880245
   11          4.328040000000        -1.125618092068
   12          1.138640000000         3.398273930271
   13          0.575855000000         4.435153449558
   14          0.288670000000         1.817610786419
   15          0.128014000000        -7.753845300303
   16          0.055290000000       -13.636448918649
   17         17.411900000000        -0.001944824929
   18         10.879900000000        -0.122105918778
   19          4.328040000000         1.242597674248
   20          1.138640000000        -3.717887137255
   21          0.575855000000        -5.084989953740
   22          0.288670000000        -1.781495917083
   23          0.128014000000        11.813611371217
   24          0.055290000000         9.062720232318
   25         17.411900000000        -0.000240742364
   26         10.879900000000         0.010313432405
   27          4.328040000000        -0.099360178383
   28          1.138640000000         0.342485046384
   29          0.575855000000         0.605187776540
   30          0.288670000000        -0.968329874879
   31          0.128014000000        -0.452272613683
   32          0.055290000000         0.800321147864
   33          0.023613000000         2.112400632849
   34          0.010100000000        -0.652293534461
 D 95
    1        136.826000000000        -0.000000000008
    2         14.512800000000         0.000000007023
    3          9.069810000000        -0.000000062964
    4          5.666400000000         0.000000080948
    5          3.113190000000         0.000000399545
    6          0.823482000000        -0.000002453267
    7          0.381193000000        -0.000003496823
    8         14.512800000000         0.000000005530
    9          9.069810000000        -0.000000050719
   10          5.666400000000         0.000000075404
   11          3.113190000000         0.000000295043
   12          0.823482000000        -0.000002412564
   13          0.381193000000        -0.000005713632
   14          0.097792000000         0.000019168774
   15          0.050839000000         0.000074932462
   16         14.512800000000        -0.000000003357
   17          9.069810000000         0.000000142683
   18          5.666400000000         0.000000068922
   19          3.113190000000        -0.000003548515
   20          0.823482000000         0.000036719419
   21          0.381193000000        -0.000008608083
   22          0.097792000000        -0.000687778448
   23          0.050839000000         0.000933790281
   24         14.512800000000        -0.000000006341
   25          9.069810000000        -0.000000028200
   26          5.666400000000        -0.000000142094
   27          3.113190000000         0.000002158431
   28          0.823482000000        -0.000032900646
   29          0.381193000000         0.000076852156
   30          0.097792000000        -0.000063966484
   31          0.050839000000        -0.000293504413
   32          0.023693000000         0.003353103765
   33          0.011000000000        -0.006945020649
   34         18.073200000000        -0.000600571364
   35          5.219590000000         0.004358748185
   36          1.699850000000        -0.049149478108
   37          0.836323000000        -0.132100966660
   38          0.393354000000        -0.181017269373
   39          0.178824000000        -0.173611976764
   40          0.078275000000        -0.111680486781
   41         18.073200000000        -0.000045763416
   42          5.219590000000         0.000332135727
   43          1.699850000000        -0.003745180251
   44          0.836323000000        -0.010066066832
   45          0.393354000000        -0.013793479165
   46          0.178824000000        -0.013229197372
   47          0.078275000000        -0.008510030413
   48         18.073200000000         0.000043407026
   49          5.219590000000        -0.000315033826
   50          1.699850000000         0.003552338306
   51          0.836323000000         0.009547758028
   52          0.393354000000         0.013083243299
   53          0.178824000000         0.012548016769
   54          0.078275000000         0.008071843009
   55         18.073200000000         0.000119779431
   56          5.219590000000        -0.000869319468
   57          1.699850000000         0.009802492903
   58          0.836323000000         0.026346541979
   59          0.393354000000         0.036102529807
   60          0.178824000000         0.034625600020
   61          0.078275000000         0.022273831203
   62         18.073200000000         0.000001910168
   63          5.219590000000        -0.000013863368
   64          1.699850000000         0.000156324084
   65          0.836323000000         0.000420158329
   66          0.393354000000         0.000575740779
   67          0.178824000000         0.000552187618
   68          0.078275000000         0.000355209261
   69         18.073200000000         0.000565678704
   70          5.219590000000        -0.004095346195
   71          1.699850000000         0.054255299249
   72          0.836323000000         0.145668794286
   73          0.393354000000         0.157873755350
   74          0.178824000000        -0.051156647277
   75          0.078275000000        -0.267687651564
   76         18.073200000000         0.000043107128
   77          5.219590000000        -0.000312082835
   78          1.699850000000         0.004134485045
   79          0.836323000000         0.011100582983
   80          0.393354000000         0.012030653035
   81          0.178824000000        -0.003898354558
   82          0.078275000000        -0.020398939967
   83         18.073200000000        -0.000040882097
   84          5.219590000000         0.000295974271
   85          1.699850000000        -0.003921078184
   86          0.836323000000        -0.010527611852
   87          0.393354000000        -0.011409675120
   88          0.178824000000         0.003697135882
   89          0.078275000000         0.019346021960
   90         18.073200000000        -0.000112884493
   91          5.219590000000         0.000817250282
   92          1.699850000000        -0.010826962244
   93          0.836323000000        -0.029069059755
   94          0.393354000000        -0.031504631109
   95          0.178824000000         0.010208608123
 D 95
    1         18.073200000000         0.000003946796
    2          5.219590000000        -0.000028644542
    3          1.699850000000         0.000322997386
    4          0.836323000000         0.000868132654
    5          0.393354000000         0.001189597672
    6          0.178824000000         0.001140932046
    7          0.078275000000         0.000733934655
    8         18.073200000000        -0.000057846001
    9          5.219590000000         0.000419827130
   10          1.699850000000        -0.004733993219
   11          0.836323000000        -0.012723737963
   12          0.393354000000        -0.017435272129
   13          0.178824000000        -0.016722007078
   14          0.078275000000        -0.010756872453
   15         18.073200000000         0.000048429881
   16          5.219590000000        -0.000351488047
   17          1.699850000000         0.003963398052
   18          0.836323000000         0.010652579317
   19          0.393354000000         0.014597174180
   20          0.178824000000         0.014000013774
   21          0.078275000000         0.009005878410
   22         18.073200000000        -0.000000219875
   23          5.219590000000         0.000001595779
   24          1.699850000000        -0.000017994088
   25          0.836323000000        -0.000048363412
   26          0.393354000000        -0.000066272132
   27          0.178824000000        -0.000063560985
   28          0.078275000000        -0.000040887281
   29         18.073200000000        -0.001231702081
   30          5.219590000000         0.008939286036
   31          1.699850000000        -0.100799868376
   32          0.836323000000        -0.270923732341
   33          0.393354000000        -0.371245385076
   34          0.178824000000        -0.356057990439
   35          0.078275000000        -0.229043700992
   36         18.073200000000        -0.000009994651
   37          5.219590000000         0.000072358309
   38          1.699850000000        -0.000958605583
   39          0.836323000000        -0.002573737890
   40          0.393354000000        -0.002789380307
   41          0.178824000000         0.000903857289
   42          0.078275000000         0.004729618688
   43         18.073200000000         0.000146486042
   44          5.219590000000        -0.001060515537
   45          1.699850000000         0.014049749413
   46          0.836323000000         0.037721846258
   47          0.393354000000         0.040882397336
   48          0.178824000000        -0.013247334085
   49          0.078275000000        -0.069319393265
   50         18.073200000000        -0.000122641175
   51          5.219590000000         0.000887885769
   52          1.699850000000        -0.011762743813
   53          0.836323000000        -0.031581517980
   54          0.393354000000        -0.034227597391
   55          0.178824000000         0.011090944933
   56          0.078275000000         0.058035644645
   57         18.073200000000         0.000000556799
   58          5.219590000000        -0.000004031060
   59          1.699850000000         0.000053403632
   60          0.836323000000         0.000143382171
   61          0.393354000000         0.000155395546
   62          0.178824000000        -0.000050353620
   63          0.078275000000        -0.000263485649
   64         18.073200000000         0.003119094823
   65          5.219590000000        -0.022581322268
   66          1.699850000000         0.299158200254
   67          0.836323000000         0.803202911688
   68          0.393354000000         0.870499825292
   69          0.178824000000        -0.282072548530
   70          0.078275000000        -1.476002476810
   71         18.073200000000         0.000004512681
   72          5.219590000000        -0.000033066863
   73          1.699850000000         0.000559088092
   74          0.836323000000         0.001410671792
   75          0.393354000000         0.000026230656
   76          0.178824000000        -0.002552130833
   77          0.078275000000         0.000240512998
   78         18.073200000000        -0.000066139853
   79          5.219590000000         0.000484642641
   80          1.699850000000        -0.008194243532
   81          0.836323000000        -0.020675432670
   82          0.393354000000        -0.000384448150
   83          0.178824000000         0.037405163627
   84          0.078275000000        -0.003525065382
   85         18.073200000000         0.000055373667
   86          5.219590000000        -0.000405752947
   87          1.699850000000         0.006860391925
   88          0.836323000000         0.017309904296
   89          0.393354000000         0.000321868025
   90          0.178824000000        -0.031316384664
   91          0.078275000000         0.002951258403
   92         18.073200000000        -0.000000251400
   93          5.219590000000         0.000001842145
   94          1.699850000000        -0.000031146631
   95          0.836323000000        -0.000078588105
 D 95
    1         18.073200000000        -0.000081642338
    2          5.219590000000         0.000592533068
    3          1.699850000000        -0.006681434630
    4          0.836323000000        -0.017957952094
    5          0.393354000000        -0.024607688602
    6          0.178824000000        -0.023601004902
    7          0.078275000000        -0.015181969384
    8         18.073200000000         0.001195746492
    9          5.219590000000        -0.008678332276
   10          1.699850000000         0.097857339797
   11          0.836323000000         0.263014983669
   12          0.393354000000         0.360408067796
   13          0.178824000000         0.345664020392
   14          0.078275000000         0.222357505396
   15         18.073200000000         0.000003218390
   16          5.219590000000        -0.000023358008
   17          1.699850000000         0.000263386150
   18          0.836323000000         0.000707913214
   19          0.393354000000         0.000970049805
   20          0.178824000000         0.000930365732
   21          0.078275000000         0.000598482315
   22         18.073200000000         0.000047230407
   23          5.219590000000        -0.000342782663
   24          1.699850000000         0.003865235676
   25          0.836323000000         0.010388744474
   26          0.393354000000         0.014235642664
   27          0.178824000000         0.013653272265
   28          0.078275000000         0.008782827781
   29         18.073200000000        -0.000056300868
   30          5.219590000000         0.000408613069
   31          1.699850000000        -0.004607542864
   32          0.836323000000        -0.012383872418
   33          0.393354000000        -0.016969556136
   34          0.178824000000        -0.016275343207
   35          0.078275000000        -0.010469544128
   36         18.073200000000         0.000154240643
   37          5.219590000000        -0.001116656551
   38          1.699850000000         0.014793507666
   39          0.836323000000         0.039718745537
   40          0.393354000000         0.043046608208
   41          0.178824000000        -0.013948614497
   42          0.078275000000        -0.072988986887
   43         18.073200000000        -0.002259032655
   44          5.219590000000         0.016354727030
   45          1.699850000000        -0.216668034123
   46          0.836323000000        -0.581726978333
   47          0.393354000000        -0.630467377095
   48          0.178824000000         0.204293596225
   49          0.078275000000         1.069008152675
   50         18.073200000000        -0.000006080258
   51          5.219590000000         0.000044019269
   52          1.699850000000        -0.000583168922
   53          0.836323000000        -0.001565736709
   54          0.393354000000        -0.001696923047
   55          0.178824000000         0.000549862728
   56          0.078275000000         0.002877269526
   57         18.073200000000        -0.000089228806
   58          5.219590000000         0.000645990117
   59          1.699850000000        -0.008558101181
   60          0.836323000000        -0.022977447321
   61          0.393354000000        -0.024902628697
   62          0.178824000000         0.008069327227
   63          0.078275000000         0.042224410124
[...]
  BAS[ATNO][ 12].a[ 72] =         1.699850000000;     BAS[ATNO][ 12].d[ 72] =         0.028889533381;
  BAS[ATNO][ 12].a[ 73] =         0.836323000000;     BAS[ATNO][ 12].d[ 73] =         0.072893074256;
  BAS[ATNO][ 12].a[ 74] =         0.393354000000;     BAS[ATNO][ 12].d[ 74] =         0.001355406098;
  BAS[ATNO][ 12].a[ 75] =         0.178824000000;     BAS[ATNO][ 12].d[ 75] =        -0.131875226670;
  BAS[ATNO][ 12].a[ 76] =         0.078275000000;     BAS[ATNO][ 12].d[ 76] =         0.012427931100;
  BAS[ATNO][ 12].a[ 77] =        18.073200000000;     BAS[ATNO][ 12].d[ 77] =        -0.003415219086;
  BAS[ATNO][ 12].a[ 78] =         5.219590000000;     BAS[ATNO][ 12].d[ 78] =         0.025025165847;
  BAS[ATNO][ 12].a[ 79] =         1.699850000000;     BAS[ATNO][ 12].d[ 79] =        -0.423120638179;
  BAS[ATNO][ 12].a[ 80] =         0.836323000000;     BAS[ATNO][ 12].d[ 80] =        -1.067603401228;
  BAS[ATNO][ 12].a[ 81] =         0.393354000000;     BAS[ATNO][ 12].d[ 81] =        -0.019851490356;
  BAS[ATNO][ 12].a[ 82] =         0.178824000000;     BAS[ATNO][ 12].d[ 82] =         1.931465258781;
  BAS[ATNO][ 12].a[ 83] =         0.078275000000;     BAS[ATNO][ 12].d[ 83] =        -0.182021428622;
  BAS[ATNO][ 12].a[ 84] =        18.073200000000;     BAS[ATNO][ 12].d[ 84] =        -0.000009192171;
  BAS[ATNO][ 12].a[ 85] =         5.219590000000;     BAS[ATNO][ 12].d[ 85] =         0.000067356032;
  BAS[ATNO][ 12].a[ 86] =         1.699850000000;     BAS[ATNO][ 12].d[ 86] =        -0.001138842688;
  BAS[ATNO][ 12].a[ 87] =         0.836323000000;     BAS[ATNO][ 12].d[ 87] =        -0.002873488593;
  BAS[ATNO][ 12].a[ 88] =         0.393354000000;     BAS[ATNO][ 12].d[ 88] =        -0.000053430919;
  BAS[ATNO][ 12].a[ 89] =         0.178824000000;     BAS[ATNO][ 12].d[ 89] =         0.005198600324;
  BAS[ATNO][ 12].a[ 90] =         0.078275000000;     BAS[ATNO][ 12].d[ 90] =        -0.000489916478;
  BAS[ATNO][ 12].a[ 91] =        18.073200000000;     BAS[ATNO][ 12].d[ 91] =        -0.000134896643;
  BAS[ATNO][ 12].a[ 92] =         5.219590000000;     BAS[ATNO][ 12].d[ 92] =         0.000988460999;
  BAS[ATNO][ 12].a[ 93] =         1.699850000000;     BAS[ATNO][ 12].d[ 93] =        -0.016712706366;
  BAS[ATNO][ 12].a[ 94] =         0.836323000000;     BAS[ATNO][ 12].d[ 94] =        -0.042168924297;

  // Basis function  14 L = p
  InitBFNGauss(BAS[ATNO][ 13]);
  BAS[ATNO][ 13].l  = 1;
  BAS[ATNO][ 13].ng = 95;
  BAS[ATNO][ 13].a[  0] =        17.411900000000;     BAS[ATNO][ 13].d[  0] =        -0.000343434890;
  BAS[ATNO][ 13].a[  1] =        10.879900000000;     BAS[ATNO][ 13].d[  1] =         0.005566374256;
  BAS[ATNO][ 13].a[  2] =         4.328040000000;     BAS[ATNO][ 13].d[  2] =        -0.046469673868;
  BAS[ATNO][ 13].a[  3] =         1.138640000000;     BAS[ATNO][ 13].d[  3] =         0.117796137984;
  BAS[ATNO][ 13].a[  4] =         0.575855000000;     BAS[ATNO][ 13].d[  4] =         0.137495888909;
  BAS[ATNO][ 13].a[  5] =         0.288670000000;     BAS[ATNO][ 13].d[  5] =         0.067340238770;
  BAS[ATNO][ 13].a[  6] =         0.128014000000;     BAS[ATNO][ 13].d[  6] =         0.009482054638;
  BAS[ATNO][ 13].a[  7] =         0.055290000000;     BAS[ATNO][ 13].d[  7] =         0.000184055552;
  BAS[ATNO][ 13].a[  8] =        17.411900000000;     BAS[ATNO][ 13].d[  8] =        -0.000013530974;
  BAS[ATNO][ 13].a[  9] =        10.879900000000;     BAS[ATNO][ 13].d[  9] =         0.000219309292;
  BAS[ATNO][ 13].a[ 10] =         4.328040000000;     BAS[ATNO][ 13].d[ 10] =        -0.001830856284;
  BAS[ATNO][ 13].a[ 11] =         1.138640000000;     BAS[ATNO][ 13].d[ 11] =         0.004641043965;
  BAS[ATNO][ 13].a[ 12] =         0.575855000000;     BAS[ATNO][ 13].d[ 12] =         0.005417193436;
  BAS[ATNO][ 13].a[ 13] =         0.288670000000;     BAS[ATNO][ 13].d[ 13] =         0.002653134594;
  BAS[ATNO][ 13].a[ 14] =         0.128014000000;     BAS[ATNO][ 13].d[ 14] =         0.000373582982;
  BAS[ATNO][ 13].a[ 15] =         0.055290000000;     BAS[ATNO][ 13].d[ 15] =         0.000007251595;
  BAS[ATNO][ 13].a[ 16] =        17.411900000000;     BAS[ATNO][ 13].d[ 16] =         0.000016156611;
  BAS[ATNO][ 13].a[ 17] =        10.879900000000;     BAS[ATNO][ 13].d[ 17] =        -0.000261865477;
  BAS[ATNO][ 13].a[ 18] =         4.328040000000;     BAS[ATNO][ 13].d[ 18] =         0.002186127409;
  BAS[ATNO][ 13].a[ 19] =         1.138640000000;     BAS[ATNO][ 13].d[ 19] =        -0.005541621975;
  BAS[ATNO][ 13].a[ 20] =         0.575855000000;     BAS[ATNO][ 13].d[ 20] =        -0.006468380479;
  BAS[ATNO][ 13].a[ 21] =         0.288670000000;     BAS[ATNO][ 13].d[ 21] =        -0.003167965889;
  BAS[ATNO][ 13].a[ 22] =         0.128014000000;     BAS[ATNO][ 13].d[ 22] =        -0.000446075425;
  BAS[ATNO][ 13].a[ 23] =         0.055290000000;     BAS[ATNO][ 13].d[ 23] =        -0.000008658741;
  BAS[ATNO][ 13].a[ 24] =        17.411900000000;     BAS[ATNO][ 13].d[ 24] =        -0.004194325090;
  BAS[ATNO][ 13].a[ 25] =        10.879900000000;     BAS[ATNO][ 13].d[ 25] =        -0.144265964356;
  BAS[ATNO][ 13].a[ 26] =         4.328040000000;     BAS[ATNO][ 13].d[ 26] =         1.508360287402;
  BAS[ATNO][ 13].a[ 27] =         1.138640000000;     BAS[ATNO][ 13].d[ 27] =        -4.553783808428;
  BAS[ATNO][ 13].a[ 28] =         0.575855000000;     BAS[ATNO][ 13].d[ 28] =        -5.943231882099;
  BAS[ATNO][ 13].a[ 29] =         0.288670000000;     BAS[ATNO][ 13].d[ 29] =        -2.435650197440;
  BAS[ATNO][ 13].a[ 30] =         0.128014000000;     BAS[ATNO][ 13].d[ 30] =        10.390373438424;
  BAS[ATNO][ 13].a[ 31] =         0.055290000000;     BAS[ATNO][ 13].d[ 31] =        18.273229752624;
  BAS[ATNO][ 13].a[ 32] =        17.411900000000;     BAS[ATNO][ 13].d[ 32] =        -0.000165251998;
  BAS[ATNO][ 13].a[ 33] =        10.879900000000;     BAS[ATNO][ 13].d[ 33] =        -0.005683927288;
  BAS[ATNO][ 13].a[ 34] =         4.328040000000;     BAS[ATNO][ 13].d[ 34] =         0.059427809154;
  BAS[ATNO][ 13].a[ 35] =         1.138640000000;     BAS[ATNO][ 13].d[ 35] =        -0.179414293360;
  BAS[ATNO][ 13].a[ 36] =         0.575855000000;     BAS[ATNO][ 13].d[ 36] =        -0.234157086339;
  BAS[ATNO][ 13].a[ 37] =         0.288670000000;     BAS[ATNO][ 13].d[ 37] =        -0.095962056485;
  BAS[ATNO][ 13].a[ 38] =         0.128014000000;     BAS[ATNO][ 13].d[ 38] =         0.409369787109;
  BAS[ATNO][ 13].a[ 39] =         0.055290000000;     BAS[ATNO][ 13].d[ 39] =         0.719946036393;
  BAS[ATNO][ 13].a[ 40] =        17.411900000000;     BAS[ATNO][ 13].d[ 40] =         0.000197318558;
  BAS[ATNO][ 13].a[ 41] =        10.879900000000;     BAS[ATNO][ 13].d[ 41] =         0.006786873084;
  BAS[ATNO][ 13].a[ 42] =         4.328040000000;     BAS[ATNO][ 13].d[ 42] =        -0.070959563341;
  BAS[ATNO][ 13].a[ 43] =         1.138640000000;     BAS[ATNO][ 13].d[ 43] =         0.214228996409;
  BAS[ATNO][ 13].a[ 44] =         0.575855000000;     BAS[ATNO][ 13].d[ 44] =         0.279594432914;
  BAS[ATNO][ 13].a[ 45] =         0.288670000000;     BAS[ATNO][ 13].d[ 45] =         0.114583150925;
  BAS[ATNO][ 13].a[ 46] =         0.128014000000;     BAS[ATNO][ 13].d[ 46] =        -0.488806532693;
  BAS[ATNO][ 13].a[ 47] =         0.055290000000;     BAS[ATNO][ 13].d[ 47] =        -0.859648994275;
  BAS[ATNO][ 13].a[ 48] =        17.411900000000;     BAS[ATNO][ 13].d[ 48] =         0.002675859114;
  BAS[ATNO][ 13].a[ 49] =        10.879900000000;     BAS[ATNO][ 13].d[ 49] =         0.168003932291;
  BAS[ATNO][ 13].a[ 50] =         4.328040000000;     BAS[ATNO][ 13].d[ 50] =        -1.709673843980;
  BAS[ATNO][ 13].a[ 51] =         1.138640000000;     BAS[ATNO][ 13].d[ 51] =         5.115392154007;
  BAS[ATNO][ 13].a[ 52] =         0.575855000000;     BAS[ATNO][ 13].d[ 52] =         6.996370990373;
  BAS[ATNO][ 13].a[ 53] =         0.288670000000;     BAS[ATNO][ 13].d[ 53] =         2.451136868929;
  BAS[ATNO][ 13].a[ 54] =         0.128014000000;     BAS[ATNO][ 13].d[ 54] =       -16.254192956334;
  BAS[ATNO][ 13].a[ 55] =         0.055290000000;     BAS[ATNO][ 13].d[ 55] =       -12.469277914819;
  BAS[ATNO][ 13].a[ 56] =        17.411900000000;     BAS[ATNO][ 13].d[ 56] =         0.000105426035;
  BAS[ATNO][ 13].a[ 57] =        10.879900000000;     BAS[ATNO][ 13].d[ 57] =         0.006619178262;
  BAS[ATNO][ 13].a[ 58] =         4.328040000000;     BAS[ATNO][ 13].d[ 58] =        -0.067359351584;
  BAS[ATNO][ 13].a[ 59] =         1.138640000000;     BAS[ATNO][ 13].d[ 59] =         0.201541071595;
  BAS[ATNO][ 13].a[ 60] =         0.575855000000;     BAS[ATNO][ 13].d[ 60] =         0.275649659738;
  BAS[ATNO][ 13].a[ 61] =         0.288670000000;     BAS[ATNO][ 13].d[ 61] =         0.096572215056;
  BAS[ATNO][ 13].a[ 62] =         0.128014000000;     BAS[ATNO][ 13].d[ 62] =        -0.640398109804;
  BAS[ATNO][ 13].a[ 63] =         0.055290000000;     BAS[ATNO][ 13].d[ 63] =        -0.491276437331;
  BAS[ATNO][ 13].a[ 64] =        17.411900000000;     BAS[ATNO][ 13].d[ 64] =        -0.000125883581;
  BAS[ATNO][ 13].a[ 65] =        10.879900000000;     BAS[ATNO][ 13].d[ 65] =        -0.007903606171;
  BAS[ATNO][ 13].a[ 66] =         4.328040000000;     BAS[ATNO][ 13].d[ 66] =         0.080430193262;
  BAS[ATNO][ 13].a[ 67] =         1.138640000000;     BAS[ATNO][ 13].d[ 67] =        -0.240649396962;
  BAS[ATNO][ 13].a[ 68] =         0.575855000000;     BAS[ATNO][ 13].d[ 68] =        -0.329138492039;
  BAS[ATNO][ 13].a[ 69] =         0.288670000000;     BAS[ATNO][ 13].d[ 69] =        -0.115311708589;
  BAS[ATNO][ 13].a[ 70] =         0.128014000000;     BAS[ATNO][ 13].d[ 70] =         0.764665076554;
  BAS[ATNO][ 13].a[ 71] =         0.055290000000;     BAS[ATNO][ 13].d[ 71] =         0.586606875956;
  BAS[ATNO][ 13].a[ 72] =        17.411900000000;     BAS[ATNO][ 13].d[ 72] =         0.001023488728;
  BAS[ATNO][ 13].a[ 73] =        10.879900000000;     BAS[ATNO][ 13].d[ 73] =        -0.043846382598;
  BAS[ATNO][ 13].a[ 74] =         4.328040000000;     BAS[ATNO][ 13].d[ 74] =         0.422418475785;
  BAS[ATNO][ 13].a[ 75] =         1.138640000000;     BAS[ATNO][ 13].d[ 75] =        -1.456036146739;
  BAS[ATNO][ 13].a[ 76] =         0.575855000000;     BAS[ATNO][ 13].d[ 76] =        -2.572886867651;
  BAS[ATNO][ 13].a[ 77] =         0.288670000000;     BAS[ATNO][ 13].d[ 77] =         4.116744116798;
  BAS[ATNO][ 13].a[ 78] =         0.128014000000;     BAS[ATNO][ 13].d[ 78] =         1.922785478243;
  BAS[ATNO][ 13].a[ 79] =         0.055290000000;     BAS[ATNO][ 13].d[ 79] =        -3.402474159364;
  BAS[ATNO][ 13].a[ 80] =        17.411900000000;     BAS[ATNO][ 13].d[ 80] =         0.000040324380;
  BAS[ATNO][ 13].a[ 81] =        10.879900000000;     BAS[ATNO][ 13].d[ 81] =        -0.001727501366;
  BAS[ATNO][ 13].a[ 82] =         4.328040000000;     BAS[ATNO][ 13].d[ 82] =         0.016642843736;
  BAS[ATNO][ 13].a[ 83] =         1.138640000000;     BAS[ATNO][ 13].d[ 83] =        -0.057366293031;
  BAS[ATNO][ 13].a[ 84] =         0.575855000000;     BAS[ATNO][ 13].d[ 84] =        -0.101369036967;
  BAS[ATNO][ 13].a[ 85] =         0.288670000000;     BAS[ATNO][ 13].d[ 85] =         0.162195389081;
  BAS[ATNO][ 13].a[ 86] =         0.128014000000;     BAS[ATNO][ 13].d[ 86] =         0.075755725864;
  BAS[ATNO][ 13].a[ 87] =         0.055290000000;     BAS[ATNO][ 13].d[ 87] =        -0.134053903876;
  BAS[ATNO][ 13].a[ 88] =        17.411900000000;     BAS[ATNO][ 13].d[ 88] =        -0.000048149182;
  BAS[ATNO][ 13].a[ 89] =        10.879900000000;     BAS[ATNO][ 13].d[ 89] =         0.002062716838;
  BAS[ATNO][ 13].a[ 90] =         4.328040000000;     BAS[ATNO][ 13].d[ 90] =        -0.019872328143;
  BAS[ATNO][ 13].a[ 91] =         1.138640000000;     BAS[ATNO][ 13].d[ 91] =         0.068498017380;
  BAS[ATNO][ 13].a[ 92] =         0.575855000000;     BAS[ATNO][ 13].d[ 92] =         0.121039336675;
  BAS[ATNO][ 13].a[ 93] =         0.288670000000;     BAS[ATNO][ 13].d[ 93] =        -0.193668825249;
  BAS[ATNO][ 13].a[ 94] =         0.128014000000;     BAS[ATNO][ 13].d[ 94] =        -0.090455853998;

-------------------------------------------
RADIAL EXPECTATION VALUES <R**-3> TO <R**3>
-------------------------------------------
   0 :     0.000000     0.883506     0.890980     1.245864     1.721541     2.639806
   1 :     0.760675     0.734355     0.806448     1.395819     2.189255     3.852703
   2 :     0.760666     0.734348     0.806444     1.395830     2.189298     3.852840
   3 :     0.760668     0.734350     0.806445     1.395827     2.189282     3.852783
   4 :     0.318405     0.380203     0.558215     2.177564     5.733970    90.504853
   5 :     0.318649     0.380447     0.558445     2.176009     5.723105    90.165898
   6 :     0.000000     0.128451     0.303525     3.985947    18.230896    94.195722
   7 :     0.000000     0.016787     0.105560    10.867922   126.997733  1569.590363
   8 :     0.000000     0.099901     0.242820     6.039054    49.447392   515.002599
   9 :     0.000000     0.427592     0.518598     3.797540    28.898300   330.073957
  10 :     0.318622     0.380433     0.558445     2.175841     5.721505    90.106786
  11 :     0.318641     0.380452     0.558463     2.175720     5.720645    90.079592
  12 :     0.318617     0.380438     0.558460     2.175643     5.719951    90.057069
  13 :     0.009442     0.023774     0.126711     9.858209   112.834711  1437.119042
  14 :     0.009442     0.023774     0.126712     9.858136   112.833198  1437.093283
  15 :     0.009445     0.023779     0.126725     9.857381   112.818573  1436.855979
  16 :     0.001328     0.008502     0.086703    12.252566   157.600689 10594.867616
  17 :     0.001328     0.008502     0.086702    12.252619   157.601917 10594.977928
  18 :     0.001329     0.008503     0.086703    12.252683   157.603445 10595.115667
  19 :     0.001330     0.008505     0.086703    12.252831   157.607063 10595.444723
  20 :     0.001341     0.008516     0.086708    12.253676   157.627711 10597.319642
  21 :     0.016693     0.035422     0.146561     9.895316   124.850970  1801.525350
  22 :     0.016691     0.035420     0.146558     9.895446   124.853448  1801.566315
  23 :     0.016690     0.035418     0.146550     9.896041   124.865669  1801.771294
  24 :     0.016241     0.032680     0.147026     8.269105    80.475949  4590.845643
  25 :     0.016247     0.032687     0.147032     8.269037    80.474991  4590.770744
  26 :     0.044570     0.062578     0.188839     7.659169    76.836158   941.623945
  27 :     0.044569     0.062577     0.188839     7.659141    76.835564   941.613533
  28 :     0.044565     0.062573     0.188834     7.659299    76.837937   941.645687
  29 :     0.082306     0.122317     0.284694     5.022081    35.597108   347.593573
  30 :     0.082305     0.122317     0.284694     5.022058    35.596784   347.589242
  31 :     0.082303     0.122315     0.284693     5.022064    35.596806   347.589079
  32 :     0.016255     0.032694     0.147039     8.268950    80.473706  4590.668147
  33 :     0.016274     0.032714     0.147060     8.268699    80.469943  4590.373822
  34 :     0.016354     0.032797     0.147144     8.267495    80.450036  4588.728631
  35 :     0.076758     0.117330     0.276804     5.087304    35.078276  1615.141530
  36 :     0.076774     0.117346     0.276820     5.087176    35.077055  1615.077377
  37 :     0.076789     0.117362     0.276837     5.086934    35.074078  1614.905237
  38 :     0.076780     0.117352     0.276826     5.087090    35.075995  1615.014887
  39 :     0.076893     0.117473     0.276950     5.085831    35.062959  1614.349983
  40 :     0.616910     0.542214     0.611565     2.732097    13.221306   527.759854
  41 :     0.616958     0.542252     0.611592     2.732008    13.220861   527.744691
  42 :     0.616962     0.542255     0.611593     2.732018    13.220887   527.743893
  43 :     0.616969     0.542260     0.611596     2.732007    13.220847   527.743477
  44 :     0.617009     0.542292     0.611618     2.731953    13.220630   527.737677
  45 :     0.528536     0.459821     0.552022     2.867009    13.490314   105.200647
  46 :     0.528538     0.459822     0.552023     2.867008    13.490309   105.200638
  47 :     0.528538     0.459823     0.552023     2.867006    13.490278   105.200230
  48 :     0.000000     2.243561     0.806340     5.893865    63.832959   836.878533
Making the total density                ... o.k.
o.k.
Initializing the integrals              ... done
Making exponents                        ... done
Making rho(0)                           ... done (         0.000978075)
Integral calculation                    ... Two index integrals                     ... done
Solving the equation system             ... done
atomic density will be written to file 40_Zr_atom40.adf

-------
TIMINGS
-------

Total SCF time: 0 days 0 hours 0 min 3 sec 

Total time                  ....       3.243 sec
Sum of individual times     ....       2.526 sec  ( 77.9%)

Fock matrix formation       ....       2.225 sec  ( 68.6%)
Diagonalization             ....       0.138 sec  (  4.3%)
Density matrix formation    ....       0.004 sec  (  0.1%)
Population analysis         ....       0.000 sec  (  0.0%)
Initial guess               ....       0.001 sec  (  0.0%)
Orbital Transformation      ....       0.000 sec  (  0.0%)
Orbital Orthonormalization  ....       0.000 sec  (  0.0%)
DIIS solution               ....       0.158 sec  (  4.9%)

-------------------------   --------------------
FINAL SINGLE POINT ENERGY       -46.284914819859
-------------------------   --------------------


                            ***************************************
                            *     ORCA property calculations      *
                            ***************************************

                                    ---------------------
                                    Active property flags
                                    ---------------------
   (+) Dipole Moment


------------------------------------------------------------------------------
                       ORCA ELECTRIC PROPERTIES CALCULATION
------------------------------------------------------------------------------

Dipole Moment Calculation                       ... on
Quadrupole Moment Calculation                   ... off
Polarizability Calculation                      ... off
GBWName                                         ... 40_Zr_atom40.gbw
Electron density file                           ... 40_Zr_atom40.scfp
The origin for moment calculation is the CENTER OF MASS  = ( 0.000000,  0.000000  0.000000)

-------------
DIPOLE MOMENT
-------------
                                X             Y             Z
Electronic contribution:     -0.00000      -0.00000      -0.00000
Nuclear contribution   :      0.00000       0.00000       0.00000
                        -----------------------------------------
Total Dipole Moment    :     -0.00000      -0.00000      -0.00000
                        -----------------------------------------
Magnitude (a.u.)       :      0.00000
Magnitude (Debye)      :      0.00000



--------------------
Rotational spectrum 
--------------------
 
Rotational constants in cm-1:     0.000000     0.000000     0.000000 
Rotational constants in MHz :     0.000000     0.000000     0.000000 

 Dipole components along the rotational axes: 
x,y,z [a.u.] :    -0.000000    -0.000000    -0.000000 
x,y,z [Debye]:    -0.000000    -0.000000    -0.000000 

 

Timings for individual modules:

Sum of individual times         ...        7.335 sec (=   0.122 min)
GTO integral calculation        ...        4.062 sec (=   0.068 min)  55.4 %
SCF iterations                  ...        3.272 sec (=   0.055 min)  44.6 %
                             ****ORCA TERMINATED NORMALLY****
TOTAL RUN TIME: 0 days 0 hours 0 minutes 7 seconds 583 msec
