
                                 *****************
                                 * O   R   C   A *
                                 *****************

           --- An Ab Initio, DFT and Semiempirical electronic structure package ---

                  #######################################################
                  #                        -***-                        #
                  #          Department of theory and spectroscopy      #
                  #               Directorship: Frank Neese             #
                  #        Max Planck Institute fuer Kohlenforschung    #
                  #                Kaiser Wilhelm Platz 1               #
                  #                 D-45470 Muelheim/Ruhr               #
                  #                      Germany                        #
                  #                                                     #
                  #                  All rights reserved                #
                  #                        -***-                        #
                  #######################################################


                         Program Version 4.2.0 -  RELEASE  -


 With contributions from (in alphabetic order):
   Daniel Aravena         : Magnetic Suceptibility
   Michael Atanasov       : Ab Initio Ligand Field Theory (pilot matlab implementation)
   Alexander A. Auer      : GIAO ZORA, VPT2
   Ute Becker             : Parallelization
   Giovanni Bistoni       : ED, misc. LED, open-shell LED, HFLED
   Martin Brehm           : Molecular dynamics
   Dmytro Bykov           : SCF Hessian
   Vijay G. Chilkuri      : MRCI spin determinant printing, contributions to CSF-ICE
   Dipayan Datta          : RHF DLPNO-CCSD density
   Achintya Kumar Dutta   : EOM-CC, STEOM-CC
   Dmitry Ganyushin       : Spin-Orbit,Spin-Spin,Magnetic field MRCI
   Miquel Garcia          : C-PCM Hessian, Gaussian charge scheme
   Yang Guo               : DLPNO-NEVPT2, CIM, IAO-localization
   Andreas Hansen         : Spin unrestricted coupled pair/coupled cluster methods
   Benjamin Helmich-Paris : CASSCF linear response (MC-RPA)
   Lee Huntington         : MR-EOM, pCC
   Robert Izsak           : Overlap fitted RIJCOSX, COSX-SCS-MP3, EOM
   Christian Kollmar      : KDIIS, OOCD, Brueckner-CCSD(T), CCSD density
   Simone Kossmann        : Meta GGA functionals, TD-DFT gradient, OOMP2, MP2 Hessian
   Martin Krupicka        : AUTO-CI
   Lucas Lang             : DCDCAS
   Dagmar Lenk            : GEPOL surface, SMD
   Dimitrios Liakos       : Extrapolation schemes; Compound Job, initial MDCI parallelization
   Dimitrios Manganas     : Further ROCIS development; embedding schemes
   Dimitrios Pantazis     : SARC Basis sets
   Taras Petrenko         : DFT Hessian,TD-DFT gradient, ASA, ECA, R-Raman, ABS, FL, XAS/XES, NRVS
   Peter Pinski           : DLPNO-MP2, DLPNO-MP2 Gradient
   Christoph Reimann      : Effective Core Potentials
   Marius Retegan         : Local ZFS, SOC
   Christoph Riplinger    : Optimizer, TS searches, QM/MM, DLPNO-CCSD(T), (RO)-DLPNO pert. Triples
   Tobias Risthaus        : Range-separated hybrids, TD-DFT gradient, RPA, STAB
   Michael Roemelt        : Original ROCIS implementation
   Masaaki Saitow         : Open-shell DLPNO-CCSD energy and density
   Barbara Sandhoefer     : DKH picture change effects
   Avijit Sen             : IP-ROCIS
   Kantharuban Sivalingam : CASSCF convergence, NEVPT2, FIC-MRCI
   Bernardo de Souza      : ESD, SOC TD-DFT
   Georgi Stoychev        : AutoAux, RI-MP2 NMR
   Willem Van den Heuvel  : Paramagnetic NMR
   Boris Wezisla          : Elementary symmetry handling
   Frank Wennmohs         : Technical directorship


 We gratefully acknowledge several colleagues who have allowed us to
 interface, adapt or use parts of their codes:
   Stefan Grimme, W. Hujo, H. Kruse,             : VdW corrections, initial TS optimization,
                  C. Bannwarth                     DFT functionals, gCP, sTDA/sTD-DF
   Ed Valeev, F. Pavosevic, A. Kumar             : LibInt (2-el integral package), F12 methods
   Garnet Chan, S. Sharma, J. Yang, R. Olivares  : DMRG
   Ulf Ekstrom                                   : XCFun DFT Library
   Mihaly Kallay                                 : mrcc  (arbitrary order and MRCC methods)
   Andreas Klamt, Michael Diedenhofen            : otool_cosmo (COSMO solvation model)
   Jiri Pittner, Ondrej Demel                    : Mk-CCSD
   Frank Weinhold                                : gennbo (NPA and NBO analysis)
   Christopher J. Cramer and Donald G. Truhlar   : smd solvation model
   Lars Goerigk                                  : TD-DFT with DH, B97 family of functionals
   V. Asgeirsson, H. Jonsson                     : NEB implementation
   FAccTs GmbH                                   : IRC, NEB, NEB-TS, Multilevel, MM, QM/MM, CI optimization
   S Lehtola, MJT Oliveira, MAL Marques          : LibXC Library


 Your calculation uses the libint2 library for the computation of 2-el integrals
 For citations please refer to: http://libint.valeyev.net

 Your ORCA version has been built with support for libXC version: 4.2.3
 For citations please refer to: https://tddft.org/programs/libxc/

 This ORCA versions uses:
   CBLAS   interface :  Fast vector & matrix operations
   LAPACKE interface :  Fast linear algebra routines
   SCALAPACK package :  Parallel linear algebra routines


----- Orbital basis set information -----
Your calculation utilizes the basis: def2-SVP
   F. Weigend and R. Ahlrichs, Phys. Chem. Chem. Phys. 7, 3297 (2005).

----- AuxJ basis set information -----
Your calculation utilizes the auxiliary basis: def2/J
   F. Weigend, Phys. Chem. Chem. Phys. 8, 1057 (2006).

================================================================================
                                        WARNINGS
                       Please study these warnings very carefully!
================================================================================


INFO   : the flag for use of LIBINT has been found!

================================================================================
                                       INPUT FILE
================================================================================
NAME = 42_Mo_atom42.inp
|  1> # input to generate an atomic fitting density for Mo
|  2> # this file is use internally by ORCA
|  3> #
|  4> # atomic ground state (S=5): 1s2 2s2 2p6 3s2 3p6 4s2 3d10 4p6 5s2 4d4 
|  5> #
|  6> ! RHF AllowRHF def2-SVP def2/J  NoMulliken NoLoewdin NoMayer NoPrintMOs 
|  7> 
|  8> %output print[p_atomdensfit] 2 end
|  9> 
| 10> %scf
| 11>   guess hcore
| 12>   maxiter 1000
| 13>   maxdisk 500000
| 14>   SCFMode Conventional
| 15>   lshift 0.600000
| 16>   hftyp rohf
| 17>   rohf_case sahf
| 18>   rohf_numop   2
| 19>   rohf_norb[1] 5
| 20>   rohf_nel[1]  4
| 21> end
| 22> 
| 23> %basis
| 24>   NewECP 42
| 25>     N_core 28
| 26>     lmax g
| 27>     s 2
| 28>       1      10.0970000000    180.0768530000  2
| 29>       2       4.3756700000     24.7159200000  2
| 30>     p 4
| 31>       1       9.1265640000     41.2276780000  2
| 32>       2       8.8632230000     82.4526700000  2
| 33>       3       4.0449480000      6.3450920000  2
| 34>       4       3.8666570000     12.4584230000  2
| 35>     d 4
| 36>       1       7.5357540000     19.3087440000  2
| 37>       2       7.2789760000     28.9776740000  2
| 38>       3       2.7632050000      3.1895160000  2
| 39>       4       2.7720850000      4.7001690000  2
| 40>     f 2
| 41>       1       6.3066330000     -7.1788880000  2
| 42>       2       6.3564480000     -9.7459780000  2
| 43>     g 1
| 44>       1       1.0000000000      0.0000000000  2
| 45>   end
| 46>   NewGTO 42
| 47>     s 9 
| 48>      1     170.0690000000      0.0004535317
| 49>      2      16.7338000000     -0.0414285656
| 50>      3      10.4587000000      0.2329721068
| 51>      4       6.5343400000     -0.1827332131
| 52>      5       3.6793500000     -0.4989028501
| 53>      6       1.0019200000      0.7863007588
| 54>      7       0.4631400000      0.5019584321
| 55>      8       0.1187270000      0.0358710506
| 56>      9       0.0595140000     -0.0140534745
| 57>     s 9 
| 58>      1     170.0690000000     -0.0002019699
| 59>      2      16.7338000000      0.0181151443
| 60>      3      10.4587000000     -0.1048210712
| 61>      4       6.5343400000      0.0963940076
| 62>      5       3.6793500000      0.2057024352
| 63>      6       1.0019200000     -0.4420227268
| 64>      7       0.4631400000     -0.4358846551
| 65>      8       0.1187270000      0.4007755582
| 66>      9       0.0595140000      0.7962235136
| 67>     s 9 
| 68>      1     170.0690000000     -0.0000802327
| 69>      2      16.7338000000      0.0016121422
| 70>      3      10.4587000000     -0.0574187931
| 71>      4       6.5343400000     -0.0354189891
| 72>      5       3.6793500000      0.5399135946
| 73>      6       1.0019200000     -1.4458925880
| 74>      7       0.4631400000      0.3284298479
| 75>      8       0.1187270000      2.5645855627
| 76>      9       0.0595140000     -1.8075730028
| 77>     s 9 
| 78>      1     170.0690000000     -0.0002002496
| 79>      2      16.7338000000      0.0140907182
| 80>      3      10.4587000000     -0.1219116927
| 81>      4       6.5343400000      0.0863714191
| 82>      5       3.6793500000      0.4897850066
| 83>      6       1.0019200000     -2.3282114780
| 84>      7       0.4631400000      2.6110344826
| 85>      8       0.1187270000     -1.0399311585
| 86>      9       0.0595140000     -0.5119146042
| 87>     s 1 
| 88>      1       0.0270390000      1.0000000000
| 89>     s 1 
| 90>      1       0.0123000000      1.0000000000
| 91>     p 8 
| 92>      1      20.3080000000     -0.0015140533
| 93>      2      12.6907000000      0.0221687808
| 94>      3       5.1195000000     -0.1743751414
| 95>      4       1.3778300000      0.4279580725
| 96>      5       0.6968240000      0.4753227406
| 97>      6       0.3473670000      0.2174106571
| 98>      7       0.1528190000      0.0285250046
| 99>      8       0.0650490000      0.0004610162
|100>     p 8 
|101>      1      20.3080000000     -0.0001017701
|102>      2      12.6907000000     -0.0066788150
|103>      3       5.1195000000      0.0652346232
|104>      4       1.3778300000     -0.1939149233
|105>      5       0.6968240000     -0.2352102802
|106>      6       0.3473670000     -0.0643101095
|107>      7       0.1528190000      0.4227284020
|108>      8       0.0650490000      0.6988220542
|109>     p 8 
|110>      1      20.3080000000     -0.0000343739
|111>      2      12.6907000000     -0.0087886101
|112>      3       5.1195000000      0.0840281307
|113>      4       1.3778300000     -0.2522117778
|114>      5       0.6968240000     -0.3270883499
|115>      6       0.3473670000      0.0157735988
|116>      7       0.1528190000      0.6939888104
|117>      8       0.0650490000      0.4185058688
|118>     p 8 
|119>      1      20.3080000000      0.0001048021
|120>      2      12.6907000000     -0.0162946651
|121>      3       5.1195000000      0.1578503943
|122>      4       1.3778300000     -0.6035221746
|123>      5       0.6968240000     -0.6619082233
|124>      6       0.3473670000      1.4182359088
|125>      7       0.1528190000      0.3477856304
|126>      8       0.0650490000     -1.0243384002
|127>     p 1 
|128>      1       0.0273390000      1.0000000000
|129>     p 1 
|130>      1       0.0115000000      1.0000000000
|131>     d 7 
|132>      1      22.6032000000      0.0013228784
|133>      2       6.3391400000     -0.0125987453
|134>      3       2.1776300000      0.1048497608
|135>      4       1.1070000000      0.2812494150
|136>      5       0.5353720000      0.3634947700
|137>      6       0.2489800000      0.3132223524
|138>      7       0.1104090000      0.1762851938
|139>     d 7 
|140>      1      22.6032000000     -0.0016358055
|141>      2       6.3391400000      0.0159152532
|142>      3       2.1776300000     -0.1532460666
|143>      4       1.1070000000     -0.4189430888
|144>      5       0.5353720000     -0.3633866933
|145>      6       0.2489800000      0.2442046602
|146>      7       0.1104090000      0.6918310681
|147>     d 7 
|148>      1      22.6032000000      0.0023744431
|149>      2       6.3391400000     -0.0242855180
|150>      3       2.1776300000      0.3185744463
|151>      4       1.1070000000      0.6548662525
|152>      5       0.5353720000     -0.2468188451
|153>      6       0.2489800000     -1.0239648111
|154>      7       0.1104090000      0.3091670505
|155>     d 1 
|156>      1       0.0453770000      1.0000000000
|157>     d 1 
|158>      1       0.0186000000      1.0000000000
|159>   end
|160>   NewAuxGTO 42
|161>     S 1
|162>      1 1310.72 1.0
|163>     S 1
|164>      1  655.36 1.0
|165>     S 1
|166>      1  327.68 1.0
|167>     S 1
|168>      1  163.84 1.0
|169>     S 1
|170>      1   81.82 1.0
|171>     S 1
|172>      1   40.96 1.0
|173>     S 1
|174>      1   20.48 1.0
|175>     S 1
|176>      1   10.24 1.0
|177>     S 1
|178>      1    5.12 1.0
|179>     S 1
|180>      1    2.56 1.0
|181>     S 1
|182>      1    1.28 1.0
|183>     S 1
|184>      1    0.64 1.0
|185>     S 1
|186>      1    0.32 1.0
|187>     S 1
|188>      1    0.16 1.0
|189>     S 1
|190>      1    0.08 1.0
|191>     S 1
|192>      1    0.04 1.0
|193>     S 1
|194>      1    0.02 1.0
|195>     S 1
|196>      1    0.01 1.0
|197>   end
|198> end
|199> 
|200> * xyz 0 5
|201> 42  0.0 0.0 0.0
|202> *
|203> 
|204> 
|205>                          ****END OF INPUT****
================================================================================

                       ****************************
                       * Single Point Calculation *
                       ****************************

---------------------------------
CARTESIAN COORDINATES (ANGSTROEM)
---------------------------------
  Mo     0.000000    0.000000    0.000000

----------------------------
CARTESIAN COORDINATES (A.U.)
----------------------------
  NO LB      ZA    FRAG     MASS         X           Y           Z
   0 Mo   14.0000*   0    95.940    0.000000    0.000000    0.000000
* core charge reduced due to ECP

--------------------------------
INTERNAL COORDINATES (ANGSTROEM)
--------------------------------
 Mo     0   0   0     0.000000000000     0.00000000     0.00000000

---------------------------
INTERNAL COORDINATES (A.U.)
---------------------------
 Mo     0   0   0     0.000000000000     0.00000000     0.00000000

---------------------
BASIS SET INFORMATION
---------------------
There are 1 groups of distinct atoms

 Group   1 Type Mo  : 38s34p23d contracted to 6s6p5d pattern {999911/888811/77711}

Atom   0Mo   basis set group =>   1
---------------------------------
AUXILIARY/J BASIS SET INFORMATION
---------------------------------
There are 1 groups of distinct atoms

 Group   1 Type Mo  : 18s contracted to 18s pattern {111111111111111111}

Atom   0Mo   basis set group =>   1
-------------------------
ECP PARAMETER INFORMATION
-------------------------

 Group 1, Type Mo ECP (replacing 28 core electrons, lmax=4)

Atom   0Mo   ECP group =>   1

------------------------------------------------------------------------------
                           ORCA GTO INTEGRAL CALCULATION
------------------------------------------------------------------------------

                         BASIS SET STATISTICS AND STARTUP INFO

 # of primitive gaussian shells          ...   95
 # of primitive gaussian functions       ...  255
 # of contracted shells                  ...   17
 # of contracted basis functions         ...   49
 Highest angular momentum                ...    2
 Maximum contraction depth               ...    9
 Integral package used                   ... LIBINT
 Integral threshhold            Thresh   ...  1.000e-10
 Primitive cut-off              TCut     ...  1.000e-11
 Storage cut-off                TCutStore... -1.000e+00
 Buffer length                           ... 1048576 integrals/buffer
 Generate file with integrals 4 distinct ...false


------------------------------ INTEGRAL EVALUATION ----------------------------


 * One electron integrals 

   ECP integrals                         ... done
 Pre-screening matrix                    ... done
 Shell pair data                         ... done (   0.000 sec)
 Statistics run                          ... done
 Maximum amount of storage needed        ...     8 MB
 Maximum amount of storage dedicated     ... 500000 MB
 Beginning two electron integral evaluation:
 Starting repulsion integrals
  <ss|ss>  ...          231 b.         0 skpd (  0.0%)     0.004 s. (  0.018 ms/b)
  <ss|sp>  ...          756 b.         0 skpd (  0.0%)     0.025 s. (  0.033 ms/b)
  <ss|sd>  ...          630 b.         0 skpd (  0.0%)     0.059 s. (  0.094 ms/b)
  <ss|pp>  ...          441 b.         0 skpd (  0.0%)     0.049 s. (  0.110 ms/b)
  <ss|pd>  ...          630 b.         0 skpd (  0.0%)     0.075 s. (  0.119 ms/b)
  <ss|dd>  ...          315 b.         0 skpd (  0.0%)     0.051 s. (  0.162 ms/b)
  <sp|sp>  ...          666 b.         0 skpd (  0.0%)     0.069 s. (  0.104 ms/b)
  <sp|sd>  ...         1080 b.         0 skpd (  0.0%)     0.127 s. (  0.118 ms/b)
  <sp|pp>  ...          756 b.         0 skpd (  0.0%)     0.117 s. (  0.155 ms/b)
  <sp|pd>  ...         1080 b.         0 skpd (  0.0%)     0.218 s. (  0.202 ms/b)
  <sp|dd>  ...          540 b.         0 skpd (  0.0%)     0.167 s. (  0.309 ms/b)
  <sd|sd>  ...          465 b.         0 skpd (  0.0%)     0.090 s. (  0.194 ms/b)
  <sd|pp>  ...          630 b.         0 skpd (  0.0%)     0.163 s. (  0.259 ms/b)
  <sd|pd>  ...          900 b.         0 skpd (  0.0%)     0.333 s. (  0.370 ms/b)
  <sd|dd>  ...          450 b.         0 skpd (  0.0%)     0.266 s. (  0.591 ms/b)
  <pp|pp>  ...          231 b.         0 skpd (  0.0%)     0.077 s. (  0.333 ms/b)
  <pp|pd>  ...          630 b.         0 skpd (  0.0%)     0.278 s. (  0.441 ms/b)
  <pp|dd>  ...          315 b.         0 skpd (  0.0%)     0.229 s. (  0.726 ms/b)
  <pd|pd>  ...          465 b.         0 skpd (  0.0%)     0.378 s. (  0.812 ms/b)
  <pd|dd>  ...          450 b.         0 skpd (  0.0%)     0.564 s. (  1.254 ms/b)
  <dd|dd>  ...          120 b.         0 skpd (  0.0%)     0.279 s. (  2.324 ms/b)


                                      INTEGRAL STATISTICS

Integral type statistics:
 Number of integrals retained            ...     750925 
 One   Center Integrals retained         ...     750925 (100.0%)
 Two   Center Integrals retained         ...          0 (  0.0%)
 Three Center Integrals retained         ...          0 (  0.0%)
 Four  Center Integrals retained         ...          0 (  0.0%)

Storage statistics:
 Number of char integrals                ...          0 (  0.0%)
 Number of short int integrals           ...          0 (  0.0%)
 Number of double/float integrals        ...     750925 (100.0%)
 Amount of memory used                   ...          9 MB
 Amount of memory estimated              ...          8 MB ( 95.6%)

Prescreening statistics:
 Total number of shell quadruples        ...      11781 
 Number of skipped shell quadruples      ...          0 (  0.0%)
 # of negligible batches done            ...          0 (  0.0%)

Timings:
 Total evaluation time               ...     3.948 sec (   0.066 min)
 One electron matrix time            ...     0.022 sec (   0.000 min) =  0.6%
 Schwartz matrix evaluation time     ...     0.220 sec (   0.004 min) =  5.6%
 Statistics run                      ...     0.006 sec (   0.000 min) =  0.1%
 Repulsion integral time             ...     3.618 sec (   0.060 min) = 91.7%

-------------------------------------------------------------------------------
                                 ORCA SCF
-------------------------------------------------------------------------------

------------
SCF SETTINGS
------------
Hamiltonian:
 Ab initio Hamiltonian  Method          .... Hartree-Fock(GTOs)


General Settings:
 Integral files         IntName         .... 42_Mo_atom42
 Hartree-Fock type      HFTyp           .... ROHF
 Total Charge           Charge          ....    0
 Multiplicity           Mult            ....    5
 Number of Electrons    NEL             ....   14
 Basis Dimension        Dim             ....   49
 Nuclear Repulsion      ENuc            ....      0.0000000000 Eh

Convergence Acceleration:
 DIIS                   CNVDIIS         .... on
   Start iteration      DIISMaxIt       ....    12
   Startup error        DIISStart       ....  0.200000
   # of expansion vecs  DIISMaxEq       ....     5
   Bias factor          DIISBfac        ....   1.050
   Max. coefficient     DIISMaxC        ....  10.000
 Newton-Raphson         CNVNR           .... off
 SOSCF                  CNVSOSCF        .... off
 Level Shifting         CNVShift        .... on
   Level shift para.    LevelShift      ....    0.6000
   Turn off err/grad.   ShiftErr        ....    0.0010
 Zerner damping         CNVZerner       .... off
 Static damping         CNVDamp         .... on
   Fraction old density DampFac         ....    0.7000
   Max. Damping (<1)    DampMax         ....    0.9800
   Min. Damping (>=0)   DampMin         ....    0.0000
   Turn off err/grad.   DampErr         ....    0.1000
 Fernandez-Rico         CNVRico         .... off

SCF Procedure:
 Maximum # iterations   MaxIter         ....  1000
 SCF integral mode      SCFMode         .... Conventional
 Integral Threshold     Thresh          ....  1.000e-10 Eh
 Primitive CutOff       TCut            ....  1.000e-11 Eh
 Integral Buffer length BufferLength    .... 1048576
 Integral index format  IndFormat       ....     0
 Integral value format  ValFormat       ....     0
 Integral Storage       Thresh          ....  1.000e-10 Eh

Convergence Tolerance:
 Convergence Check Mode ConvCheckMode   .... Total+1el-Energy
 Convergence forced     ConvForced      .... 0
 Energy Change          TolE            ....  1.000e-06 Eh
 1-El. energy change                    ....  1.000e-03 Eh
 DIIS Error             TolErr          ....  1.000e-06


Diagonalization of the overlap matrix:
Smallest eigenvalue                        ... 7.567e-04
Time for diagonalization                   ...    0.001 sec
Threshold for overlap eigenvalues          ... 1.000e-08
Number of eigenvalues below threshold      ... 0
Time for construction of square roots      ...    0.003 sec
Total time needed                          ...    0.004 sec

--------------------
INITIAL GUESS: HCORE
--------------------
AVERAGE-CONFIGURATION (SAHF) CASE FOUND

-------------------
FINAL ROHF SETTINGS
-------------------
Number of operators             ... 2
  operator   0:   5 orbitals  10 electrons n(mue)= 2.000
  operator   1:   5 orbitals   4 electrons n(mue)= 0.800
Vector coupling coefficients a and b (Zerner convention):
   1.000    1.000           1.000    1.000 
   1.000    0.938           1.000    1.875 

                      -----------------
                      INTIAL GUESS DONE 
                      -----------------

 InCore treatment chosen:
   Memory dedicated               ...    1024 MB
   Memory needed                  ...      9 MB
   Number of tiny    integrals    ...       0
   Number of small   integrals    ...       0
   Number of regular integrals    ...  750925

--------------
SCF ITERATIONS
--------------
ITER       Energy         Delta-E        Max-DP      RMS-DP      [F,P]     Damp
  0    -60.0697618339   0.000000000000 1.06885524  0.05628825  1.0390954 0.7000
  1    -65.1217102018  -5.051948367949 0.71837154  0.03828872  0.2579096 0.7000
                            ****Activating DIIS****
  2    -65.0745910810   0.047119120778 1.83177423  0.08844298  0.0674874 0.0000
  3    -64.8101667679   0.264424313171 0.00692849  0.00035147  0.3262663 0.7000
  4    -64.7754702939   0.034696473977 0.00646663  0.00032087  0.3465926 0.7000
  5    -64.7615062184   0.013964075473 0.01338532  0.00071390  0.3517106 0.7000
  6    -64.7244562789   0.037049939522 0.00642035  0.00032260  0.3643382 0.7000
  7    -64.7377421016  -0.013285822721 0.55432674  0.02403393  0.3526993 0.7000
  8    -66.8118657144  -2.074123612755 1.55260847  0.05821007  0.0797515 0.0000
  9    -66.7979876008   0.013878113542 0.00387073  0.00013301  0.2181027 0.7000
 10    -66.8102557907  -0.012268189865 0.00309636  0.00010633  0.2099237 0.7000
 11    -66.8135256524  -0.003269861742 0.00338017  0.00011614  0.2087097 0.7000
 12    -66.8190763258  -0.005550673361 0.00720737  0.00024838  0.2057772 0.7000
 13    -66.7896526888   0.029423636962 0.07662551  0.00274613  0.2265226 0.7000
 14    -67.0183455350  -0.228692846143 0.17192740  0.00791650  0.0864383 0.0000
 15    -67.1564331827  -0.138087647694 0.14274429  0.00516369  0.0630143 0.0000
 16    -67.1713208503  -0.014887667636 0.16300072  0.00372842  0.0214006 0.0000
 17    -67.1873174574  -0.015996607081 0.09509216  0.00199030  0.0160693 0.0000
 18    -67.1923624868  -0.005045029446 0.05652612  0.00124647  0.0144149 0.0000
 19    -67.1945345555  -0.002172068653 0.06843518  0.00163660  0.0129723 0.0000
 20    -67.1969346778  -0.002400122258 0.04310090  0.00106141  0.0107476 0.0000
 21    -67.1982769173  -0.001342239552 0.05341025  0.00119376  0.0100800 0.0000
 22    -67.1995007590  -0.001223841731 0.05332151  0.00111253  0.0101847 0.0000
 23    -67.2003207528  -0.000819993723 0.03933712  0.00079180  0.0102427 0.0000
 24    -67.2007139983  -0.000393245522 0.02910858  0.00057420  0.0102625 0.0000
 25    -67.2009077690  -0.000193770675 0.02721891  0.00053212  0.0102692 0.0000
 26    -67.2009995112  -0.000091742262 0.01924207  0.00037213  0.0102685 0.0000
 27    -67.2010091940  -0.000009682738 0.00904863  0.00017208  0.0102671 0.0000
 28    -67.2009964459   0.000012748030 0.00041690  0.00000805  0.0102685 0.0000
 29    -67.2009953775   0.000001068438 0.00359216  0.00007181  0.0102682 0.0000
 30    -67.2010046589  -0.000009281395 0.00474533  0.00009342  0.0102716 0.0000
 31    -67.2010140053  -0.000009346409 0.00196445  0.00004789  0.0102746 0.0000
 32    -67.2010196728  -0.000005667469 0.00174390  0.00004308  0.0102793 0.0000
 33    -67.2010240084  -0.000004335620 0.00176220  0.00004282  0.0102823 0.0000
 34    -67.2010277476  -0.000003739197 0.00181619  0.00004297  0.0102845 0.0000
 35    -67.2010309906  -0.000003242971 0.00169206  0.00003963  0.0102862 0.0000
 36    -67.2010335553  -0.000002564712 0.00144929  0.00003343  0.0102874 0.0000
 37    -67.2010354069  -0.000001851631 0.00124080  0.00002827  0.0102880 0.0000
 38    -67.2010367553  -0.000001348377 0.00106007  0.00002389  0.0102884 0.0000
                 **** Energy Check signals convergence ****

               *****************************************************
               *                     SUCCESS                       *
               *           SCF CONVERGED AFTER  39 CYCLES          *
               *****************************************************


----------------
TOTAL SCF ENERGY
----------------

Total Energy       :          -67.20103774 Eh           -1828.63320 eV

Components:
Nuclear Repulsion  :            0.00000000 Eh               0.00000 eV
Electronic Energy  :          -67.20103774 Eh           -1828.63320 eV
One Electron Energy:         -116.41503575 Eh           -3167.81417 eV
Two Electron Energy:           49.21399801 Eh            1339.18097 eV

Virial components:
Potential Energy   :          -90.97107295 Eh           -2475.44874 eV
Kinetic Energy     :           23.77003521 Eh             646.81554 eV
Virial Ratio       :            3.82713244


---------------
SCF CONVERGENCE
---------------

  Last Energy change         ...   -9.8692e-07  Tolerance :   1.0000e-06
  Last MAX-Density change    ...    9.0564e-04  Tolerance :   1.0000e-05
  Last RMS-Density change    ...    2.0211e-05  Tolerance :   1.0000e-06
  Last DIIS Error            ...    1.0288e-02  Tolerance :   1.0000e-06

             **** THE GBW FILE WAS UPDATED (42_Mo_atom42.gbw) ****
             **** DENSITY FILE WAS UPDATED (42_Mo_atom42.scfp) ****
             **** ENERGY FILE WAS UPDATED (42_Mo_atom42.en.tmp) ****
             **** THE GBW FILE WAS UPDATED (42_Mo_atom42.gbw) ****
             **** DENSITY FILE WAS UPDATED (42_Mo_atom42.scfp) ****
----------------
ORBITAL ENERGIES
----------------

  NO   OCC          E(Eh)            E(eV) 
   0   2.0000      -2.897592       -78.8475 
   1   2.0000      -1.761290       -47.9271 
   2   2.0000      -1.749885       -47.6168 
   3   2.0000      -1.749885       -47.6168 
   4   2.0000      -0.239242        -6.5101 
   5   0.8000      -0.326774        -8.8920 
   6   0.8000      -0.317248        -8.6327 
   7   0.8000      -0.317248        -8.6327 
   8   0.8000      -0.291789        -7.9400 
   9   0.8000      -0.236135        -6.4256 
  10   0.0000      -0.009032        -0.2458 
  11   0.0000      -0.006022        -0.1639 
  12   0.0000      -0.006022        -0.1639 
  13   0.0000       0.005586         0.1520 
  14   0.0000       0.032064         0.8725 
  15   0.0000       0.032399         0.8816 
  16   0.0000       0.032399         0.8816 
  17   0.0000       0.033378         0.9083 
  18   0.0000       0.033512         0.9119 
  19   0.0000       0.016646         0.4530 
  20   0.0000       0.022702         0.6177 
  21   0.0000       0.022702         0.6177 
  22   0.0000       0.151238         4.1154 
  23   0.0000       0.152757         4.1567 
  24   0.0000       0.152757         4.1567 
  25   0.0000       0.156302         4.2532 
  26   0.0000       0.137516         3.7420 
  27   0.0000       0.157138         4.2759 
  28   0.0000       0.147234         4.0064 
  29   0.0000       0.147234         4.0064 
  30   0.0000       0.239053         6.5050 
  31   0.0000       0.535722        14.5777 
  32   0.0000       0.556197        15.1349 
  33   0.0000       0.556197        15.1349 
  34   0.0000       0.555224        15.1084 
  35   0.0000       0.559127        15.2146 
  36   0.0000       0.559127        15.2146 
  37   0.0000       0.575068        15.6484 
  38   0.0000       0.571411        15.5489 
  39   0.0000       1.566259        42.6201 
  40   0.0000       1.917935        52.1897 
  41   0.0000       1.953192        53.1491 
  42   0.0000       1.953192        53.1491 
  43   0.0000       2.099225        57.1228 
  44   0.0000       2.104957        57.2788 
  45   0.0000       2.104957        57.2788 
  46   0.0000       2.135423        58.1078 
  47   0.0000       2.124224        57.8031 
  48   0.0000       5.693886       154.9385 
CleanUpVectors: The p-vectors have cracked symmetry
CleanUpVectors: The p-vectors have cracked symmetry
CleanUpVectors: The p-vectors have cracked symmetry
CleanUpVectors: The d-vectors have cracked symmetry at i=4
CleanUpVectors: The d-vectors have cracked symmetry at i=6
CleanUpVectors: The d-vectors have cracked symmetry at i=7
CleanUpVectors: The d-vectors have cracked symmetry at i=8
CleanUpVectors: The d-vectors have cracked symmetry at i=9
CleanUpVectors: The p-vectors have cracked symmetry
CleanUpVectors: The p-vectors have cracked symmetry
CleanUpVectors: The p-vectors have cracked symmetry
CleanUpVectors: The d-vectors have cracked symmetry at i=14
CleanUpVectors: The d-vectors have cracked symmetry at i=15
CleanUpVectors: The d-vectors have cracked symmetry at i=16
CleanUpVectors: The d-vectors have cracked symmetry at i=17
CleanUpVectors: The d-vectors have cracked symmetry at i=18
CleanUpVectors: The p-vectors have cracked symmetry
CleanUpVectors: The p-vectors have cracked symmetry
CleanUpVectors: The p-vectors have cracked symmetry
CleanUpVectors: The d-vectors have cracked symmetry at i=22
CleanUpVectors: The d-vectors have cracked symmetry at i=23
CleanUpVectors: The d-vectors have cracked symmetry at i=24
CleanUpVectors: The d-vectors have cracked symmetry at i=25
CleanUpVectors: The p-vectors have cracked symmetry
CleanUpVectors: The d-vectors have cracked symmetry at i=27
CleanUpVectors: The p-vectors have cracked symmetry
CleanUpVectors: The p-vectors have cracked symmetry
CleanUpVectors: The p-vectors have cracked symmetry
CleanUpVectors: The p-vectors have cracked symmetry
CleanUpVectors: The p-vectors have cracked symmetry
CleanUpVectors: The d-vectors have cracked symmetry at i=34
CleanUpVectors: The d-vectors have cracked symmetry at i=35
CleanUpVectors: The d-vectors have cracked symmetry at i=36
CleanUpVectors: The d-vectors have cracked symmetry at i=37
CleanUpVectors: The d-vectors have cracked symmetry at i=38
CleanUpVectors: The p-vectors have cracked symmetry
CleanUpVectors: The p-vectors have cracked symmetry
CleanUpVectors: The p-vectors have cracked symmetry
CleanUpVectors: The d-vectors have cracked symmetry at i=43
CleanUpVectors: The d-vectors have cracked symmetry at i=44
--------------------------
ATOM BASIS FOR ELEMENT Mo
--------------------------
 NewGTO Mo
 S 38
    1        170.069000000000         0.000452744493
    2         16.733800000000        -0.041356656974
    3         10.458700000000         0.232567731125
    4          6.534340000000        -0.182416038364
    5          3.679350000000        -0.498036891596
    6          1.001920000000         0.784935956357
    7          0.463140000000         0.501087169944
    8          0.118727000000         0.035808788295
    9          0.059514000000        -0.014029081523
   10        170.069000000000         0.000000486907
   11         16.733800000000        -0.000043671791
   12         10.458700000000         0.000252701489
   13          6.534340000000        -0.000232385616
   14          3.679350000000        -0.000495905175
   15          1.001920000000         0.001065623543
   16          0.463140000000         0.001050825947
   17          0.118727000000        -0.000966185321
   18          0.059514000000        -0.001919526915
   19        170.069000000000        -0.000000064959
   20         16.733800000000         0.000001305243
   21         10.458700000000        -0.000046488120
   22          6.534340000000        -0.000028676364
   23          3.679350000000         0.000437131583
   24          1.001920000000        -0.001170641603
   25          0.463140000000         0.000265907472
   26          0.118727000000         0.002076371771
   27          0.059514000000        -0.001463469814
   28        170.069000000000        -0.000000038186
   29         16.733800000000         0.000002686998
   30         10.458700000000        -0.000023247675
   31          6.534340000000         0.000016470403
   32          3.679350000000         0.000093398446
   33          1.001920000000        -0.000443973030
   34          0.463140000000         0.000497905324
   35          0.118727000000        -0.000198307324
   36          0.059514000000        -0.000097618399
   37          0.027039000000         0.006048876902
   38          0.012300000000        -0.001364895497
 P 33
    1         20.308000000000         0.001514105981
    2         12.690700000000        -0.022169552149
    3          5.119500000000         0.174381208673
    4          1.377830000000        -0.427972963030
    5          0.696824000000        -0.475339279154
    6          0.347367000000        -0.217418221766
    7          0.152819000000        -0.028525997109
    8          0.065049000000        -0.000461032241
    9         20.308000000000         0.000000647180
   10         12.690700000000         0.000042472150
   11          5.119500000000        -0.000414842259
   12          1.377830000000         0.001233150448
   13          0.696824000000         0.001495757301
   14          0.347367000000         0.000408963060
   15          0.152819000000        -0.002688228989
   16          0.065049000000        -0.004443973236
   17         20.308000000000        -0.000000286666
   18         12.690700000000        -0.000073293932
   19          5.119500000000         0.000700765202
   20          1.377830000000        -0.002103357959
   21          0.696824000000        -0.002727802365
   22          0.347367000000         0.000131546294
   23          0.152819000000         0.005787623799
   24          0.065049000000         0.003490192479
   25         20.308000000000        -0.000000072148
   26         12.690700000000         0.000011217559
   27          5.119500000000        -0.000108667227
   28          1.377830000000         0.000415476194
   29          0.696824000000         0.000455670265
   30          0.347367000000        -0.000976340691
   31          0.152819000000        -0.000239422271
   32          0.065049000000         0.000705174122
   33          0.011500000000        -0.000036760151
 D 23
    1         22.603200000000         0.001305563875
    2          6.339140000000        -0.012433846330
    3          2.177630000000         0.103477432272
    4          1.107000000000         0.277568275503
    5          0.535372000000         0.358737160265
    6          0.248980000000         0.309122734370
    7          0.110409000000         0.173977880949
    8         22.603200000000        -0.000070913298
    9          6.339140000000         0.000689937216
   10          2.177630000000        -0.006643322806
   11          1.107000000000        -0.018161472185
   12          0.535372000000        -0.015753064078
   13          0.248980000000         0.010586440646
   14          0.110409000000         0.029991354521
   15         22.603200000000         0.000028422868
   16          6.339140000000        -0.000290705669
   17          2.177630000000         0.003813441311
   18          1.107000000000         0.007838965270
   19          0.535372000000        -0.002954503072
   20          0.248980000000        -0.012257196887
   21          0.110409000000         0.003700831677
   22          0.045377000000         0.063582158710
   23          0.018600000000         0.001605360699
 D 61
    1        170.069000000000        -0.000000001591
    2         16.733800000000         0.000001476916
    3         10.458700000000        -0.000013288519
    4          6.534340000000         0.000016682692
    5          3.679350000000         0.000080890077
    6          1.001920000000        -0.000468172622
    7          0.463140000000        -0.000646555525
    8          0.118727000000        -0.000180237422
    9          0.059514000000         0.000140868839
   10        170.069000000000         0.000000024192
   11         16.733800000000        -0.000022052147
   12         10.458700000000         0.000204161825
   13          6.534340000000        -0.000300505177
   14          3.679350000000        -0.001138864305
   15          1.001920000000         0.008987009567
   16          0.463140000000         0.019171802200
   17          0.118727000000        -0.068763089966
   18          0.059514000000        -0.272533258424
   19        170.069000000000        -0.000000002301
   20         16.733800000000         0.000000469984
   21         10.458700000000        -0.000026782478
   22          6.534340000000        -0.000026442885
   23          3.679350000000         0.000715859120
   24          1.001920000000        -0.007040076647
   25          0.463140000000         0.003459431454
   26          0.118727000000         0.105376095076
   27          0.059514000000        -0.148166870337
   28        170.069000000000         0.000000000505
   29         16.733800000000        -0.000000360891
   30         10.458700000000         0.000004995806
   31          6.534340000000        -0.000005665083
   32          3.679350000000        -0.000057052188
   33          1.001920000000         0.000995926529
   34          0.463140000000        -0.002416229805
   35          0.118727000000         0.003753989191
   36          0.059514000000         0.003686517502
   37          0.027039000000        -0.353728076627
   38          0.012300000000        -0.064686533856
   39         22.603200000000         0.001302596116
   40          6.339140000000        -0.012405582174
   41          2.177630000000         0.103242211232
   42          1.107000000000         0.276937317650
   43          0.535372000000         0.357921692330
   44          0.248980000000         0.308420048097
   45          0.110409000000         0.173582400918
   46         22.603200000000        -0.000002831068
   47          6.339140000000         0.000027544329
   48          2.177630000000        -0.000265221045
   49          1.107000000000        -0.000725059549
   50          0.535372000000        -0.000628908792
   51          0.248980000000         0.000422641942
   52          0.110409000000         0.001197343352
   53         22.603200000000        -0.000003255514
   54          6.339140000000         0.000033297010
   55          2.177630000000        -0.000436786094
   56          1.107000000000        -0.000897863830
   57          0.535372000000         0.000338404541
   58          0.248980000000         0.001403921737
   59          0.110409000000        -0.000423887948
   60          0.045377000000         0.030885421703
   61          0.018600000000        -0.000244767117
 P 67
    1         20.308000000000         0.000004762942
    2         12.690700000000        -0.000069739029
    3          5.119500000000         0.000548553086
    4          1.377830000000        -0.001346279747
    5          0.696824000000        -0.001495280542
    6          0.347367000000        -0.000683935140
    7          0.152819000000        -0.000089734575
    8         20.308000000000        -0.000015653361
    9         12.690700000000         0.000229196634
   10          5.119500000000        -0.001802814322
   11          1.377830000000         0.004424535149
   12          0.696824000000         0.004914224799
   13          0.347367000000         0.002247746113
   14          0.152819000000         0.000294911800
   15          0.065049000000         0.000004766314
   16         20.308000000000         0.000024136463
   17         12.690700000000         0.001583991473
   18          5.119500000000        -0.015471470145
   19          1.377830000000         0.045990132222
   20          0.696824000000         0.055784009309
   21          0.347367000000         0.015252206425
   22          0.152819000000        -0.100257034225
   23          0.065049000000        -0.165737211585
   24         20.308000000000        -0.000079324248
   25         12.690700000000        -0.005205772399
   26          5.119500000000         0.050846834493
   27          1.377830000000        -0.151146117310
   28          0.696824000000        -0.183333598047
   29          0.347367000000        -0.050126226436
   30          0.152819000000         0.329493757115
   31          0.065049000000         0.544693716116
   32         20.308000000000        -0.000006017349
   33         12.690700000000        -0.001538496793
   34          5.119500000000         0.014709608021
   35          1.377830000000        -0.044151123663
   36          0.696824000000        -0.057258698666
   37          0.347367000000         0.002761259277
   38          0.152819000000         0.121486736487
   39          0.065049000000         0.073261861631
   40         20.308000000000         0.000019775959
   41         12.690700000000         0.005056254582
   42          5.119500000000        -0.048342982115
   43          1.377830000000         0.145102233761
   44          0.696824000000         0.188180150118
   45          0.347367000000        -0.009074851461
   46          0.152819000000        -0.399264964836
   47          0.065049000000        -0.240774387837
   48         20.308000000000        -0.000001307593
   49         12.690700000000         0.000203305053
   50          5.119500000000        -0.001969465620
   51          1.377830000000         0.007530017135
   52          0.696824000000         0.008258487381
   53          0.347367000000        -0.017695026205
   54          0.152819000000        -0.004339246951
   55          0.065049000000         0.012780451208
   56         20.308000000000         0.000004297393
   57         12.690700000000        -0.000668160056
   58          5.119500000000         0.006472629394
   59          1.377830000000        -0.024747327268
   60          0.696824000000        -0.027141437569
   61          0.347367000000         0.058154529619
   62          0.152819000000         0.014260892436
   63          0.065049000000        -0.042002827220
   64          0.027339000000         0.154209158723
   65          0.027339000000        -0.506806883744
   66          0.011500000000        -0.378194982712
   67          0.011500000000         1.242934091744
 D 46
    1         22.603200000000         0.000000084368
    2          6.339140000000        -0.000000803494
    3          2.177630000000         0.000006686870
    4          1.107000000000         0.000017936887
    5          0.535372000000         0.000023182145
    6          0.248980000000         0.000019975984
    7          0.110409000000         0.000011242717
    8         22.603200000000        -0.000001799830
    9          6.339140000000         0.000017141107
   10          2.177630000000        -0.000142652376
   11          1.107000000000        -0.000382651299
   12          0.535372000000        -0.000494549459
   13          0.248980000000        -0.000426151784
   14          0.110409000000        -0.000239843195
   15         22.603200000000        -0.000006647185
   16          6.339140000000         0.000064672502
   17          2.177630000000        -0.000622723779
   18          1.107000000000        -0.001702398172
   19          0.535372000000        -0.001476641718
   20          0.248980000000         0.000992339003
   21          0.110409000000         0.002811293412
   22         22.603200000000         0.000141805769
   23          6.339140000000        -0.001379671799
   24          2.177630000000         0.013284694487
   25          1.107000000000         0.036317610401
   26          0.535372000000         0.031501501528
   27          0.248980000000        -0.021169772087
   28          0.110409000000        -0.059973900671
   29         22.603200000000         0.000003863567
   30          6.339140000000        -0.000039516102
   31          2.177630000000         0.000518367377
   32          1.107000000000         0.001065563498
   33          0.535372000000        -0.000401610483
   34          0.248980000000        -0.001666141020
   35          0.110409000000         0.000503060163
   36         22.603200000000        -0.000082422278
   37          6.339140000000         0.000843005129
   38          2.177630000000        -0.011058437882
   39          1.107000000000        -0.022731885305
   40          0.535372000000         0.008567639051
   41          0.248980000000         0.035544129130
   42          0.110409000000        -0.010731885946
   43          0.045377000000        -0.019422739532
   44          0.045377000000         0.414349297877
   45          0.018600000000         0.058280880957
   46          0.018600000000        -1.243318022361
 P 68
    1         20.308000000000        -0.000161016499
    2         12.690700000000         0.002357604894
    3          5.119500000000        -0.018544442770
    4          1.377830000000         0.045512473393
    5          0.696824000000         0.050549609821
    6          0.347367000000         0.023121182617
    7          0.152819000000         0.003033576409
    8          0.065049000000         0.000049028138
    9         20.308000000000         0.000242542615
   10         12.690700000000        -0.003551310947
   11          5.119500000000         0.027933892894
   12          1.377830000000        -0.068556417299
   13          0.696824000000        -0.076143964211
   14          0.347367000000        -0.034827934536
   15          0.152819000000        -0.004569541374
   16          0.065049000000        -0.000073852139
   17         20.308000000000        -0.000094834002
   18         12.690700000000        -0.006223623201
   19          5.119500000000         0.060788585171
   20          1.377830000000        -0.180698734087
   21          0.696824000000        -0.219179623481
   22          0.347367000000        -0.059927081309
   23          0.152819000000         0.393917527357
   24          0.065049000000         0.651194133989
   25         20.308000000000         0.000142850496
   26         12.690700000000         0.009374777451
   27          5.119500000000        -0.091567152942
   28          1.377830000000         0.272190388608
   29          0.696824000000         0.330154979735
   30          0.347367000000         0.090269451151
   31          0.152819000000        -0.593366441623
   32          0.065049000000        -0.980907726254
   33         20.308000000000         0.000026881915
   34         12.690700000000         0.006873083042
   35          5.119500000000        -0.065713726473
   36          1.377830000000         0.197240800688
   37          0.696824000000         0.255797602288
   38          0.347367000000        -0.012335654124
   39          0.152819000000        -0.542730041499
   40          0.065049000000        -0.327290158195
   41         20.308000000000        -0.000040492807
   42         12.690700000000        -0.010353072774
   43          5.119500000000         0.098985999188
   44          1.377830000000        -0.297108059224
   45          0.696824000000        -0.385313428584
   46          0.347367000000         0.018581461054
   47          0.152819000000         0.817525931499
   48          0.065049000000         0.493004202807
   49         20.308000000000         0.000006268219
   50         12.690700000000        -0.000974584762
   51          5.119500000000         0.009441040244
   52          1.377830000000        -0.036096692464
   53          0.696824000000        -0.039588765055
   54          0.347367000000         0.084824763026
   55          0.152819000000         0.020801076534
   56          0.065049000000        -0.061265732673
   57         20.308000000000        -0.000009441953
   58         12.690700000000         0.001468037983
   59          5.119500000000        -0.014221241924
   60          1.377830000000         0.054373224023
   61          0.696824000000         0.059633408055
   62          0.347367000000        -0.127773364480
   63          0.152819000000        -0.031333108856
   64          0.065049000000         0.092285890484
   65          0.027339000000        -1.138832473090
   66          0.027339000000         1.715447841829
   67          0.011500000000         0.728612053043
   68          0.011500000000        -1.097524002395
 D 46
    1         22.603200000000         0.000089054851
    2          6.339140000000        -0.000848134937
    3          2.177630000000         0.007058381068
    4          1.107000000000         0.018933429424
    5          0.535372000000         0.024470104494
    6          0.248980000000         0.021085815603
    7          0.110409000000         0.011867342996
    8         22.603200000000        -0.000675027267
    9          6.339140000000         0.006428781821
   10          2.177630000000        -0.053501854357
   11          1.107000000000        -0.143513586720
   12          0.535372000000        -0.185481054945
   13          0.248980000000        -0.159828468386
   14          0.110409000000        -0.089953326473
   15         22.603200000000        -0.000077486405
   16          6.339140000000         0.000753888985
   17          2.177630000000        -0.007259106726
   18          1.107000000000        -0.019844898217
   19          0.535372000000        -0.017213249567
   20          0.248980000000         0.011567720665
   21          0.110409000000         0.032771317863
   22         22.603200000000         0.000587339546
   23          6.339140000000        -0.005714406501
   24          2.177630000000         0.055023335674
   25          1.107000000000         0.150422433115
   26          0.535372000000         0.130474787696
   27          0.248980000000        -0.087682217818
   28          0.110409000000        -0.248403459445
   29         22.603200000000         0.000040062647
   30          6.339140000000        -0.000409755929
   31          2.177630000000         0.005375128012
   32          1.107000000000         0.011049191104
   33          0.535372000000        -0.004164435985
   34          0.248980000000        -0.017276784135
   35          0.110409000000         0.005216402297
   36         22.603200000000        -0.000303671039
   37          6.339140000000         0.003105910804
   38          2.177630000000        -0.040742956959
   39          1.107000000000        -0.083751813271
   40          0.535372000000         0.031566027029
   41          0.248980000000         0.130956373653
   42          0.110409000000        -0.039539831201
   43          0.045377000000        -0.227599741007
   44          0.045377000000         1.725184298999
   45          0.018600000000         0.116673829078
   46          0.018600000000        -0.884376481007
 P 68
    1         20.308000000000        -0.000468836560
    2         12.690700000000         0.006864708743
    3          5.119500000000        -0.053996409119
    4          1.377830000000         0.132520031140
    5          0.696824000000         0.147186812058
    6          0.347367000000         0.067322639530
    7          0.152819000000         0.008832955237
    8          0.065049000000         0.000142756698
    9         20.308000000000         0.000124463606
   10         12.690700000000        -0.001822397143
   11          5.119500000000         0.014334606961
   12          1.377830000000        -0.035180534999
   13          0.696824000000        -0.039074174285
   14          0.347367000000        -0.017872365829
   15          0.152819000000        -0.002344914110
   16          0.065049000000        -0.000037898097
   17         20.308000000000        -0.000778504870
   18         12.690700000000        -0.051090546293
   19          5.119500000000         0.499021538474
   20          1.377830000000        -1.483379815986
   21          0.696824000000        -1.799274528352
   22          0.347367000000        -0.491949339291
   23          0.152819000000         3.233721100467
   24          0.065049000000         5.345738804033
   25         20.308000000000         0.000206672286
   26         12.690700000000         0.013563177857
   27          5.119500000000        -0.132476913480
   28          1.377830000000         0.393797791056
   29          0.696824000000         0.477659414759
   30          0.347367000000         0.130599433157
   31          0.152819000000        -0.858466734232
   32          0.065049000000        -1.419151123606
   33         20.308000000000         0.000194116666
   34         12.690700000000         0.049631135652
   35          5.119500000000        -0.474524584197
   36          1.377830000000         1.424293126516
   37          0.696824000000         1.847136928298
   38          0.347367000000        -0.089076840690
   39          0.152819000000        -3.919101245604
   40          0.065049000000        -2.363390946839
   41         20.308000000000        -0.000051532799
   42         12.690700000000        -0.013175743243
   43          5.119500000000         0.125973625261
   44          1.377830000000        -0.378111850380
   45          0.696824000000        -0.490365605830
   46          0.347367000000         0.023647526224
   47          0.152819000000         1.040416889061
   48          0.065049000000         0.627417283313
   49         20.308000000000         0.000039303796
   50         12.690700000000        -0.006110967220
   51          5.119500000000         0.059198429624
   52          1.377830000000        -0.226338142126
   53          0.696824000000        -0.248234586607
   54          0.347367000000         0.531879182248
   55          0.152819000000         0.130429596054
   56          0.065049000000        -0.384156308032
   57         20.308000000000        -0.000010434110
   58         12.690700000000         0.001622298865
   59          5.119500000000        -0.015715604708
   60          1.377830000000         0.060086742074
   61          0.696824000000         0.065899664277
   62          0.347367000000        -0.141199741847
   63          0.152819000000        -0.034625580220
   64          0.065049000000         0.101983257351
   65          0.027339000000        -2.575976747394
   66          0.027339000000         0.683853145367
   67          0.011500000000         0.952649113222
   68          0.011500000000        -0.252902939891
 P 68
    1         20.308000000000         0.000449890687
    2         12.690700000000        -0.006587303114
    3          5.119500000000         0.051814392603
    4          1.377830000000        -0.127164843613
    5          0.696824000000        -0.141238934041
    6          0.347367000000        -0.064602104707
    7          0.152819000000        -0.008476011979
    8          0.065049000000        -0.000136987842
    9         20.308000000000        -0.000039906252
   10         12.690700000000         0.000584307665
   11          5.119500000000        -0.004596045790
   12          1.377830000000         0.011279789548
   13          0.696824000000         0.012528191021
   14          0.347367000000         0.005730342795
   15          0.152819000000         0.000751840120
   16          0.065049000000         0.000012151110
   17         20.308000000000         0.001584687685
   18         12.690700000000         0.103997499099
   19          5.119500000000        -1.015784636564
   20          1.377830000000         3.019497779342
   21          0.696824000000         3.662518111840
   22          0.347367000000         1.001388802470
   23          0.152819000000        -6.582409694839
   24          0.065049000000       -10.881533019239
   25         20.308000000000        -0.000140565136
   26         12.690700000000        -0.009224797279
   27          5.119500000000         0.090102237385
   28          1.377830000000        -0.267835814703
   29          0.696824000000        -0.324873072953
   30          0.347367000000        -0.088825296571
   31          0.152819000000         0.583873608184
   32          0.065049000000         0.965214904732
   33         20.308000000000        -0.000508584137
   34         12.690700000000        -0.130033184693
   35          5.119500000000         1.243250674950
   36          1.377830000000        -3.731636778875
   37          0.696824000000        -4.839484210750
   38          0.347367000000         0.233380621360
   39          0.152819000000        10.268014410770
   40          0.065049000000         6.192065675171
   41         20.308000000000         0.000045112485
   42         12.690700000000         0.011534217445
   43          5.119500000000        -0.110278954230
   44          1.377830000000         0.331004044343
   45          0.696824000000         0.429272445636
   46          0.347367000000        -0.020701352816
   47          0.152819000000        -0.910794511560
   48          0.065049000000        -0.549249271237
   49         20.308000000000        -0.000137267771
   50         12.690700000000         0.021342438349
   51          5.119500000000        -0.206749404667
   52          1.377830000000         0.790481714382
   53          0.696824000000         0.866954635867
   54          0.347367000000        -1.857578063854
   55          0.152819000000        -0.455522916848
   56          0.065049000000         1.341658697519
   57         20.308000000000         0.000012175940
   58         12.690700000000        -0.001893119247
   59          5.119500000000         0.018339107787
   60          1.377830000000        -0.070117393504
   61          0.696824000000        -0.076900702758
   62          0.347367000000         0.164771087931
   63          0.152819000000         0.040405842450
   64          0.065049000000        -0.119007953164
   65          0.027339000000         1.859589208119
   66          0.027339000000        -0.164949480664
   67          0.011500000000        -0.579864848484
   68          0.011500000000         0.051435233758
 D 46
    1         22.603200000000        -0.000047933272
    2          6.339140000000         0.000456503848
    3          2.177630000000        -0.003799133815
    4          1.107000000000        -0.010190811641
    5          0.535372000000        -0.013170895781
    6          0.248980000000        -0.011349321367
    7          0.110409000000        -0.006387530460
    8         22.603200000000        -0.000957769174
    9          6.339140000000         0.009121541240
   10          2.177630000000        -0.075911639956
   11          1.107000000000        -0.203625684658
   12          0.535372000000        -0.263171645747
   13          0.248980000000        -0.226774217318
   14          0.110409000000        -0.127631174922
   15         22.603200000000         0.000152497426
   16          6.339140000000        -0.001483694208
   17          2.177630000000         0.014286313798
   18          1.107000000000         0.039055830683
   19          0.535372000000         0.033876604115
   20          0.248980000000        -0.022765898557
   21          0.110409000000        -0.064495722163
   22         22.603200000000         0.003047097116
   23          6.339140000000        -0.029646141989
   24          2.177630000000         0.285459149952
   25          1.107000000000         0.780386346353
   26          0.535372000000         0.676898656355
   27          0.248980000000        -0.454892293561
   28          0.110409000000        -1.288708499941
   29         22.603200000000        -0.000077388957
   30          6.339140000000         0.000791524926
   31          2.177630000000        -0.010383126895
   32          1.107000000000        -0.021343706245
   33          0.535372000000         0.008044434884
   34          0.248980000000         0.033373538567
   35          0.110409000000        -0.010076516665
   36         22.603200000000        -0.001546332111
   37          6.339140000000         0.015815698564
   38          2.177630000000        -0.207468393828
   39          1.107000000000        -0.426475039528
   40          0.535372000000         0.160738282540
   41          0.248980000000         0.666846751718
   42          0.110409000000        -0.201341922231
   43          0.045377000000         0.065326663954
   44          0.045377000000         1.305311798787
   45          0.018600000000        -0.023921234238
   46          0.018600000000        -0.477977404668
 P 68
    1         20.308000000000         0.000343830930
    2         12.690700000000        -0.005034375289
    3          5.119500000000         0.039599376748
    4          1.377830000000        -0.097186289338
    5          0.696824000000        -0.107942474661
    6          0.347367000000        -0.049372441797
    7          0.152819000000        -0.006477829321
    8          0.065049000000        -0.000104693559
    9         20.308000000000        -0.000033939925
   10         12.690700000000         0.000496948654
   11          5.119500000000        -0.003908897499
   12          1.377830000000         0.009593364201
   13          0.696824000000         0.010655118940
   14          0.347367000000         0.004873607367
   15          0.152819000000         0.000639433570
   16          0.065049000000         0.000010334415
   17         20.308000000000         0.001980107984
   18         12.690700000000         0.129947547526
   19          5.119500000000        -1.269249005796
   20          1.377830000000         3.772940066703
   21          0.696824000000         4.576410495721
   22          0.347367000000         1.251261041169
   23          0.152819000000        -8.224890060533
   24          0.065049000000       -13.596755128062
   25         20.308000000000        -0.000195458610
   26         12.690700000000        -0.012827263588
   27          5.119500000000         0.125288948240
   28          1.377830000000        -0.372431012804
   29          0.696824000000        -0.451742451721
   30          0.347367000000        -0.123513336710
   31          0.152819000000         0.811887833173
   32          0.065049000000         1.342150469837
   33         20.308000000000        -0.000641259533
   34         12.690700000000        -0.163955210362
   35          5.119500000000         1.567580048325
   36          1.377830000000        -4.705116578679
   37          0.696824000000        -6.101970460030
   38          0.347367000000         0.294263106452
   39          0.152819000000        12.946652554108
   40          0.065049000000         7.807402646861
   41         20.308000000000         0.000063299425
   42         12.690700000000         0.016184196931
   43          5.119500000000        -0.154737529547
   44          1.377830000000         0.464447168992
   45          0.696824000000         0.602332133125
   46          0.347367000000        -0.029047030917
   47          0.152819000000        -1.277978138508
   48          0.065049000000        -0.770677197022
   49         20.308000000000        -0.000370971082
   50         12.690700000000         0.057678706332
   51          5.119500000000        -0.558747693272
   52          1.377830000000         2.136305229971
   53          0.696824000000         2.342976047456
   54          0.347367000000        -5.020171448232
   55          0.152819000000        -1.231067046749
   56          0.065049000000         3.625880827092
   57         20.308000000000         0.000036618959
   58         12.690700000000        -0.005693527763
   59          5.119500000000         0.055154591811
   60          1.377830000000        -0.210877010074
   61          0.696824000000        -0.231277710990
   62          0.347367000000         0.495546577433
   63          0.152819000000         0.121519965582
   64          0.065049000000        -0.357914635501
   65          0.027339000000         1.041775704257
   66          0.027339000000        -0.102834811524
   67          0.011500000000        -0.320342122881
   68          0.011500000000         0.031621318961
 D 46
    1         22.603200000000         0.000017576319
    2          6.339140000000        -0.000167392235
    3          2.177630000000         0.001393078068
    4          1.107000000000         0.003736798144
    5          0.535372000000         0.004829544559
    6          0.248980000000         0.004161604053
    7          0.110409000000         0.002342199308
    8         22.603200000000         0.000955305188
    9          6.339140000000        -0.009098074885
   10          2.177630000000         0.075716347358
   11          1.107000000000         0.203101831018
   12          0.535372000000         0.262494602353
   13          0.248980000000         0.226190811057
   14          0.110409000000         0.127302827073
   15         22.603200000000        -0.000033266991
   16          6.339140000000         0.000323664751
   17          2.177630000000        -0.003116529112
   18          1.107000000000        -0.008519946786
   19          0.535372000000        -0.007390109474
   20          0.248980000000         0.004966332577
   21          0.110409000000         0.014069605259
   22         22.603200000000        -0.001808121940
   23          6.339140000000         0.017591772674
   24          2.177630000000        -0.169389071787
   25          1.107000000000        -0.463074730189
   26          0.535372000000        -0.401666000593
   27          0.248980000000         0.269929281939
   28          0.110409000000         0.764708844141
   29         22.603200000000         0.000069003828
   30          6.339140000000        -0.000705762844
   31          2.177630000000         0.009258110422
   32          1.107000000000         0.019031106066
   33          0.535372000000        -0.007172816743
   34          0.248980000000        -0.029757500641
   35          0.110409000000         0.008984721549
   36         22.603200000000         0.003750484598
   37          6.339140000000        -0.038359504684
   38          2.177630000000         0.503195277323
   39          1.107000000000         1.034375510539
   40          0.535372000000        -0.389855742201
   41          0.248980000000        -1.617374723788
   42          0.110409000000         0.488336090739
   43          0.045377000000        -0.014755997249
   44          0.045377000000        -0.802015507376
   45          0.018600000000         0.005171398504
   46          0.018600000000         0.281074991057
 end
  // -----------------------------------------------
  // The basis set
  // -----------------------------------------------
  BAS[ATNO] = new BFNGauss[NSH];
  // Basis function   1 L = s
  InitBFNGauss(BAS[ATNO][  0]);
  BAS[ATNO][  0].l  = 0;
  BAS[ATNO][  0].ng = 38;
  BAS[ATNO][  0].a[  0] =       170.069000000000;     BAS[ATNO][  0].d[  0] =         0.000452744493;
  BAS[ATNO][  0].a[  1] =        16.733800000000;     BAS[ATNO][  0].d[  1] =        -0.041356656974;
  BAS[ATNO][  0].a[  2] =        10.458700000000;     BAS[ATNO][  0].d[  2] =         0.232567731125;
  BAS[ATNO][  0].a[  3] =         6.534340000000;     BAS[ATNO][  0].d[  3] =        -0.182416038364;
  BAS[ATNO][  0].a[  4] =         3.679350000000;     BAS[ATNO][  0].d[  4] =        -0.498036891596;
  BAS[ATNO][  0].a[  5] =         1.001920000000;     BAS[ATNO][  0].d[  5] =         0.784935956357;
  BAS[ATNO][  0].a[  6] =         0.463140000000;     BAS[ATNO][  0].d[  6] =         0.501087169944;
  BAS[ATNO][  0].a[  7] =         0.118727000000;     BAS[ATNO][  0].d[  7] =         0.035808788295;
  BAS[ATNO][  0].a[  8] =         0.059514000000;     BAS[ATNO][  0].d[  8] =        -0.014029081523;
  BAS[ATNO][  0].a[  9] =       170.069000000000;     BAS[ATNO][  0].d[  9] =         0.000000486907;
  BAS[ATNO][  0].a[ 10] =        16.733800000000;     BAS[ATNO][  0].d[ 10] =        -0.000043671791;
  BAS[ATNO][  0].a[ 11] =        10.458700000000;     BAS[ATNO][  0].d[ 11] =         0.000252701489;
  BAS[ATNO][  0].a[ 12] =         6.534340000000;     BAS[ATNO][  0].d[ 12] =        -0.000232385616;
  BAS[ATNO][  0].a[ 13] =         3.679350000000;     BAS[ATNO][  0].d[ 13] =        -0.000495905175;
  BAS[ATNO][  0].a[ 14] =         1.001920000000;     BAS[ATNO][  0].d[ 14] =         0.001065623543;
  BAS[ATNO][  0].a[ 15] =         0.463140000000;     BAS[ATNO][  0].d[ 15] =         0.001050825947;
  BAS[ATNO][  0].a[ 16] =         0.118727000000;     BAS[ATNO][  0].d[ 16] =        -0.000966185321;
  BAS[ATNO][  0].a[ 17] =         0.059514000000;     BAS[ATNO][  0].d[ 17] =        -0.001919526915;
  BAS[ATNO][  0].a[ 18] =       170.069000000000;     BAS[ATNO][  0].d[ 18] =        -0.000000064959;
  BAS[ATNO][  0].a[ 19] =        16.733800000000;     BAS[ATNO][  0].d[ 19] =         0.000001305243;
  BAS[ATNO][  0].a[ 20] =        10.458700000000;     BAS[ATNO][  0].d[ 20] =        -0.000046488120;
  BAS[ATNO][  0].a[ 21] =         6.534340000000;     BAS[ATNO][  0].d[ 21] =        -0.000028676364;
  BAS[ATNO][  0].a[ 22] =         3.679350000000;     BAS[ATNO][  0].d[ 22] =         0.000437131583;
  BAS[ATNO][  0].a[ 23] =         1.001920000000;     BAS[ATNO][  0].d[ 23] =        -0.001170641603;
  BAS[ATNO][  0].a[ 24] =         0.463140000000;     BAS[ATNO][  0].d[ 24] =         0.000265907472;
  BAS[ATNO][  0].a[ 25] =         0.118727000000;     BAS[ATNO][  0].d[ 25] =         0.002076371771;
  BAS[ATNO][  0].a[ 26] =         0.059514000000;     BAS[ATNO][  0].d[ 26] =        -0.001463469814;
  BAS[ATNO][  0].a[ 27] =       170.069000000000;     BAS[ATNO][  0].d[ 27] =        -0.000000038186;
  BAS[ATNO][  0].a[ 28] =        16.733800000000;     BAS[ATNO][  0].d[ 28] =         0.000002686998;
  BAS[ATNO][  0].a[ 29] =        10.458700000000;     BAS[ATNO][  0].d[ 29] =        -0.000023247675;
  BAS[ATNO][  0].a[ 30] =         6.534340000000;     BAS[ATNO][  0].d[ 30] =         0.000016470403;
  BAS[ATNO][  0].a[ 31] =         3.679350000000;     BAS[ATNO][  0].d[ 31] =         0.000093398446;
  BAS[ATNO][  0].a[ 32] =         1.001920000000;     BAS[ATNO][  0].d[ 32] =        -0.000443973030;
  BAS[ATNO][  0].a[ 33] =         0.463140000000;     BAS[ATNO][  0].d[ 33] =         0.000497905324;
  BAS[ATNO][  0].a[ 34] =         0.118727000000;     BAS[ATNO][  0].d[ 34] =        -0.000198307324;
  BAS[ATNO][  0].a[ 35] =         0.059514000000;     BAS[ATNO][  0].d[ 35] =        -0.000097618399;
  BAS[ATNO][  0].a[ 36] =         0.027039000000;     BAS[ATNO][  0].d[ 36] =         0.006048876902;
  BAS[ATNO][  0].a[ 37] =         0.012300000000;     BAS[ATNO][  0].d[ 37] =        -0.001364895497;

  // Basis function   2 L = p
  InitBFNGauss(BAS[ATNO][  1]);
  BAS[ATNO][  1].l  = 1;
  BAS[ATNO][  1].ng = 33;
  BAS[ATNO][  1].a[  0] =        20.308000000000;     BAS[ATNO][  1].d[  0] =        -0.001514105981;
  BAS[ATNO][  1].a[  1] =        12.690700000000;     BAS[ATNO][  1].d[  1] =         0.022169552149;
  BAS[ATNO][  1].a[  2] =         5.119500000000;     BAS[ATNO][  1].d[  2] =        -0.174381208673;
  BAS[ATNO][  1].a[  3] =         1.377830000000;     BAS[ATNO][  1].d[  3] =         0.427972963030;
  BAS[ATNO][  1].a[  4] =         0.696824000000;     BAS[ATNO][  1].d[  4] =         0.475339279154;
  BAS[ATNO][  1].a[  5] =         0.347367000000;     BAS[ATNO][  1].d[  5] =         0.217418221766;
  BAS[ATNO][  1].a[  6] =         0.152819000000;     BAS[ATNO][  1].d[  6] =         0.028525997109;
  BAS[ATNO][  1].a[  7] =         0.065049000000;     BAS[ATNO][  1].d[  7] =         0.000461032241;
  BAS[ATNO][  1].a[  8] =        20.308000000000;     BAS[ATNO][  1].d[  8] =        -0.000000647180;
  BAS[ATNO][  1].a[  9] =        12.690700000000;     BAS[ATNO][  1].d[  9] =        -0.000042472150;
  BAS[ATNO][  1].a[ 10] =         5.119500000000;     BAS[ATNO][  1].d[ 10] =         0.000414842259;
  BAS[ATNO][  1].a[ 11] =         1.377830000000;     BAS[ATNO][  1].d[ 11] =        -0.001233150448;
  BAS[ATNO][  1].a[ 12] =         0.696824000000;     BAS[ATNO][  1].d[ 12] =        -0.001495757301;
  BAS[ATNO][  1].a[ 13] =         0.347367000000;     BAS[ATNO][  1].d[ 13] =        -0.000408963060;
  BAS[ATNO][  1].a[ 14] =         0.152819000000;     BAS[ATNO][  1].d[ 14] =         0.002688228989;
  BAS[ATNO][  1].a[ 15] =         0.065049000000;     BAS[ATNO][  1].d[ 15] =         0.004443973236;
  BAS[ATNO][  1].a[ 16] =        20.308000000000;     BAS[ATNO][  1].d[ 16] =         0.000000286666;
  BAS[ATNO][  1].a[ 17] =        12.690700000000;     BAS[ATNO][  1].d[ 17] =         0.000073293932;
  BAS[ATNO][  1].a[ 18] =         5.119500000000;     BAS[ATNO][  1].d[ 18] =        -0.000700765202;
  BAS[ATNO][  1].a[ 19] =         1.377830000000;     BAS[ATNO][  1].d[ 19] =         0.002103357959;
  BAS[ATNO][  1].a[ 20] =         0.696824000000;     BAS[ATNO][  1].d[ 20] =         0.002727802365;
  BAS[ATNO][  1].a[ 21] =         0.347367000000;     BAS[ATNO][  1].d[ 21] =        -0.000131546294;
  BAS[ATNO][  1].a[ 22] =         0.152819000000;     BAS[ATNO][  1].d[ 22] =        -0.005787623799;
  BAS[ATNO][  1].a[ 23] =         0.065049000000;     BAS[ATNO][  1].d[ 23] =        -0.003490192479;
  BAS[ATNO][  1].a[ 24] =        20.308000000000;     BAS[ATNO][  1].d[ 24] =         0.000000072148;
  BAS[ATNO][  1].a[ 25] =        12.690700000000;     BAS[ATNO][  1].d[ 25] =        -0.000011217559;
  BAS[ATNO][  1].a[ 26] =         5.119500000000;     BAS[ATNO][  1].d[ 26] =         0.000108667227;
  BAS[ATNO][  1].a[ 27] =         1.377830000000;     BAS[ATNO][  1].d[ 27] =        -0.000415476194;
  BAS[ATNO][  1].a[ 28] =         0.696824000000;     BAS[ATNO][  1].d[ 28] =        -0.000455670265;
  BAS[ATNO][  1].a[ 29] =         0.347367000000;     BAS[ATNO][  1].d[ 29] =         0.000976340691;
  BAS[ATNO][  1].a[ 30] =         0.152819000000;     BAS[ATNO][  1].d[ 30] =         0.000239422271;
  BAS[ATNO][  1].a[ 31] =         0.065049000000;     BAS[ATNO][  1].d[ 31] =        -0.000705174122;
  BAS[ATNO][  1].a[ 32] =         0.011500000000;     BAS[ATNO][  1].d[ 32] =         0.000036760151;

  // Basis function   3 L = d
  InitBFNGauss(BAS[ATNO][  2]);
  BAS[ATNO][  2].l  = 2;
  BAS[ATNO][  2].ng = 23;
  BAS[ATNO][  2].a[  0] =        22.603200000000;     BAS[ATNO][  2].d[  0] =         0.001305563875;
  BAS[ATNO][  2].a[  1] =         6.339140000000;     BAS[ATNO][  2].d[  1] =        -0.012433846330;
  BAS[ATNO][  2].a[  2] =         2.177630000000;     BAS[ATNO][  2].d[  2] =         0.103477432272;
  BAS[ATNO][  2].a[  3] =         1.107000000000;     BAS[ATNO][  2].d[  3] =         0.277568275503;
  BAS[ATNO][  2].a[  4] =         0.535372000000;     BAS[ATNO][  2].d[  4] =         0.358737160265;
  BAS[ATNO][  2].a[  5] =         0.248980000000;     BAS[ATNO][  2].d[  5] =         0.309122734370;
  BAS[ATNO][  2].a[  6] =         0.110409000000;     BAS[ATNO][  2].d[  6] =         0.173977880949;
  BAS[ATNO][  2].a[  7] =        22.603200000000;     BAS[ATNO][  2].d[  7] =        -0.000070913298;
  BAS[ATNO][  2].a[  8] =         6.339140000000;     BAS[ATNO][  2].d[  8] =         0.000689937216;
  BAS[ATNO][  2].a[  9] =         2.177630000000;     BAS[ATNO][  2].d[  9] =        -0.006643322806;
  BAS[ATNO][  2].a[ 10] =         1.107000000000;     BAS[ATNO][  2].d[ 10] =        -0.018161472185;
  BAS[ATNO][  2].a[ 11] =         0.535372000000;     BAS[ATNO][  2].d[ 11] =        -0.015753064078;
  BAS[ATNO][  2].a[ 12] =         0.248980000000;     BAS[ATNO][  2].d[ 12] =         0.010586440646;
  BAS[ATNO][  2].a[ 13] =         0.110409000000;     BAS[ATNO][  2].d[ 13] =         0.029991354521;
  BAS[ATNO][  2].a[ 14] =        22.603200000000;     BAS[ATNO][  2].d[ 14] =         0.000028422868;
  BAS[ATNO][  2].a[ 15] =         6.339140000000;     BAS[ATNO][  2].d[ 15] =        -0.000290705669;
  BAS[ATNO][  2].a[ 16] =         2.177630000000;     BAS[ATNO][  2].d[ 16] =         0.003813441311;
  BAS[ATNO][  2].a[ 17] =         1.107000000000;     BAS[ATNO][  2].d[ 17] =         0.007838965270;
  BAS[ATNO][  2].a[ 18] =         0.535372000000;     BAS[ATNO][  2].d[ 18] =        -0.002954503072;
  BAS[ATNO][  2].a[ 19] =         0.248980000000;     BAS[ATNO][  2].d[ 19] =        -0.012257196887;
  BAS[ATNO][  2].a[ 20] =         0.110409000000;     BAS[ATNO][  2].d[ 20] =         0.003700831677;
  BAS[ATNO][  2].a[ 21] =         0.045377000000;     BAS[ATNO][  2].d[ 21] =         0.063582158710;
  BAS[ATNO][  2].a[ 22] =         0.018600000000;     BAS[ATNO][  2].d[ 22] =         0.001605360699;

  // Basis function   4 L = d
  InitBFNGauss(BAS[ATNO][  3]);
  BAS[ATNO][  3].l  = 2;
  BAS[ATNO][  3].ng = 61;
  BAS[ATNO][  3].a[  0] =       170.069000000000;     BAS[ATNO][  3].d[  0] =        -0.000000001591;
  BAS[ATNO][  3].a[  1] =        16.733800000000;     BAS[ATNO][  3].d[  1] =         0.000001476916;
  BAS[ATNO][  3].a[  2] =        10.458700000000;     BAS[ATNO][  3].d[  2] =        -0.000013288519;
  BAS[ATNO][  3].a[  3] =         6.534340000000;     BAS[ATNO][  3].d[  3] =         0.000016682692;
  BAS[ATNO][  3].a[  4] =         3.679350000000;     BAS[ATNO][  3].d[  4] =         0.000080890077;
  BAS[ATNO][  3].a[  5] =         1.001920000000;     BAS[ATNO][  3].d[  5] =        -0.000468172622;
  BAS[ATNO][  3].a[  6] =         0.463140000000;     BAS[ATNO][  3].d[  6] =        -0.000646555525;
[...]
  BAS[ATNO][ 10].a[ 43] =         0.045377000000;     BAS[ATNO][ 10].d[ 43] =         1.305311798787;
  BAS[ATNO][ 10].a[ 44] =         0.018600000000;     BAS[ATNO][ 10].d[ 44] =        -0.023921234238;
  BAS[ATNO][ 10].a[ 45] =         0.018600000000;     BAS[ATNO][ 10].d[ 45] =        -0.477977404668;

  // Basis function  12 L = p
  InitBFNGauss(BAS[ATNO][ 11]);
  BAS[ATNO][ 11].l  = 1;
  BAS[ATNO][ 11].ng = 68;
  BAS[ATNO][ 11].a[  0] =        20.308000000000;     BAS[ATNO][ 11].d[  0] =        -0.000343830930;
  BAS[ATNO][ 11].a[  1] =        12.690700000000;     BAS[ATNO][ 11].d[  1] =         0.005034375289;
  BAS[ATNO][ 11].a[  2] =         5.119500000000;     BAS[ATNO][ 11].d[  2] =        -0.039599376748;
  BAS[ATNO][ 11].a[  3] =         1.377830000000;     BAS[ATNO][ 11].d[  3] =         0.097186289338;
  BAS[ATNO][ 11].a[  4] =         0.696824000000;     BAS[ATNO][ 11].d[  4] =         0.107942474661;
  BAS[ATNO][ 11].a[  5] =         0.347367000000;     BAS[ATNO][ 11].d[  5] =         0.049372441797;
  BAS[ATNO][ 11].a[  6] =         0.152819000000;     BAS[ATNO][ 11].d[  6] =         0.006477829321;
  BAS[ATNO][ 11].a[  7] =         0.065049000000;     BAS[ATNO][ 11].d[  7] =         0.000104693559;
  BAS[ATNO][ 11].a[  8] =        20.308000000000;     BAS[ATNO][ 11].d[  8] =         0.000033939925;
  BAS[ATNO][ 11].a[  9] =        12.690700000000;     BAS[ATNO][ 11].d[  9] =        -0.000496948654;
  BAS[ATNO][ 11].a[ 10] =         5.119500000000;     BAS[ATNO][ 11].d[ 10] =         0.003908897499;
  BAS[ATNO][ 11].a[ 11] =         1.377830000000;     BAS[ATNO][ 11].d[ 11] =        -0.009593364201;
  BAS[ATNO][ 11].a[ 12] =         0.696824000000;     BAS[ATNO][ 11].d[ 12] =        -0.010655118940;
  BAS[ATNO][ 11].a[ 13] =         0.347367000000;     BAS[ATNO][ 11].d[ 13] =        -0.004873607367;
  BAS[ATNO][ 11].a[ 14] =         0.152819000000;     BAS[ATNO][ 11].d[ 14] =        -0.000639433570;
  BAS[ATNO][ 11].a[ 15] =         0.065049000000;     BAS[ATNO][ 11].d[ 15] =        -0.000010334415;
  BAS[ATNO][ 11].a[ 16] =        20.308000000000;     BAS[ATNO][ 11].d[ 16] =        -0.001980107984;
  BAS[ATNO][ 11].a[ 17] =        12.690700000000;     BAS[ATNO][ 11].d[ 17] =        -0.129947547526;
  BAS[ATNO][ 11].a[ 18] =         5.119500000000;     BAS[ATNO][ 11].d[ 18] =         1.269249005796;
  BAS[ATNO][ 11].a[ 19] =         1.377830000000;     BAS[ATNO][ 11].d[ 19] =        -3.772940066703;
  BAS[ATNO][ 11].a[ 20] =         0.696824000000;     BAS[ATNO][ 11].d[ 20] =        -4.576410495721;
  BAS[ATNO][ 11].a[ 21] =         0.347367000000;     BAS[ATNO][ 11].d[ 21] =        -1.251261041169;
  BAS[ATNO][ 11].a[ 22] =         0.152819000000;     BAS[ATNO][ 11].d[ 22] =         8.224890060533;
  BAS[ATNO][ 11].a[ 23] =         0.065049000000;     BAS[ATNO][ 11].d[ 23] =        13.596755128062;
  BAS[ATNO][ 11].a[ 24] =        20.308000000000;     BAS[ATNO][ 11].d[ 24] =         0.000195458610;
  BAS[ATNO][ 11].a[ 25] =        12.690700000000;     BAS[ATNO][ 11].d[ 25] =         0.012827263588;
  BAS[ATNO][ 11].a[ 26] =         5.119500000000;     BAS[ATNO][ 11].d[ 26] =        -0.125288948240;
  BAS[ATNO][ 11].a[ 27] =         1.377830000000;     BAS[ATNO][ 11].d[ 27] =         0.372431012804;
  BAS[ATNO][ 11].a[ 28] =         0.696824000000;     BAS[ATNO][ 11].d[ 28] =         0.451742451721;
  BAS[ATNO][ 11].a[ 29] =         0.347367000000;     BAS[ATNO][ 11].d[ 29] =         0.123513336710;
  BAS[ATNO][ 11].a[ 30] =         0.152819000000;     BAS[ATNO][ 11].d[ 30] =        -0.811887833173;
  BAS[ATNO][ 11].a[ 31] =         0.065049000000;     BAS[ATNO][ 11].d[ 31] =        -1.342150469837;
  BAS[ATNO][ 11].a[ 32] =        20.308000000000;     BAS[ATNO][ 11].d[ 32] =         0.000641259533;
  BAS[ATNO][ 11].a[ 33] =        12.690700000000;     BAS[ATNO][ 11].d[ 33] =         0.163955210362;
  BAS[ATNO][ 11].a[ 34] =         5.119500000000;     BAS[ATNO][ 11].d[ 34] =        -1.567580048325;
  BAS[ATNO][ 11].a[ 35] =         1.377830000000;     BAS[ATNO][ 11].d[ 35] =         4.705116578679;
  BAS[ATNO][ 11].a[ 36] =         0.696824000000;     BAS[ATNO][ 11].d[ 36] =         6.101970460030;
  BAS[ATNO][ 11].a[ 37] =         0.347367000000;     BAS[ATNO][ 11].d[ 37] =        -0.294263106452;
  BAS[ATNO][ 11].a[ 38] =         0.152819000000;     BAS[ATNO][ 11].d[ 38] =       -12.946652554108;
  BAS[ATNO][ 11].a[ 39] =         0.065049000000;     BAS[ATNO][ 11].d[ 39] =        -7.807402646861;
  BAS[ATNO][ 11].a[ 40] =        20.308000000000;     BAS[ATNO][ 11].d[ 40] =        -0.000063299425;
  BAS[ATNO][ 11].a[ 41] =        12.690700000000;     BAS[ATNO][ 11].d[ 41] =        -0.016184196931;
  BAS[ATNO][ 11].a[ 42] =         5.119500000000;     BAS[ATNO][ 11].d[ 42] =         0.154737529547;
  BAS[ATNO][ 11].a[ 43] =         1.377830000000;     BAS[ATNO][ 11].d[ 43] =        -0.464447168992;
  BAS[ATNO][ 11].a[ 44] =         0.696824000000;     BAS[ATNO][ 11].d[ 44] =        -0.602332133125;
  BAS[ATNO][ 11].a[ 45] =         0.347367000000;     BAS[ATNO][ 11].d[ 45] =         0.029047030917;
  BAS[ATNO][ 11].a[ 46] =         0.152819000000;     BAS[ATNO][ 11].d[ 46] =         1.277978138508;
  BAS[ATNO][ 11].a[ 47] =         0.065049000000;     BAS[ATNO][ 11].d[ 47] =         0.770677197022;
  BAS[ATNO][ 11].a[ 48] =        20.308000000000;     BAS[ATNO][ 11].d[ 48] =         0.000370971082;
  BAS[ATNO][ 11].a[ 49] =        12.690700000000;     BAS[ATNO][ 11].d[ 49] =        -0.057678706332;
  BAS[ATNO][ 11].a[ 50] =         5.119500000000;     BAS[ATNO][ 11].d[ 50] =         0.558747693272;
  BAS[ATNO][ 11].a[ 51] =         1.377830000000;     BAS[ATNO][ 11].d[ 51] =        -2.136305229971;
  BAS[ATNO][ 11].a[ 52] =         0.696824000000;     BAS[ATNO][ 11].d[ 52] =        -2.342976047456;
  BAS[ATNO][ 11].a[ 53] =         0.347367000000;     BAS[ATNO][ 11].d[ 53] =         5.020171448232;
  BAS[ATNO][ 11].a[ 54] =         0.152819000000;     BAS[ATNO][ 11].d[ 54] =         1.231067046749;
  BAS[ATNO][ 11].a[ 55] =         0.065049000000;     BAS[ATNO][ 11].d[ 55] =        -3.625880827092;
  BAS[ATNO][ 11].a[ 56] =        20.308000000000;     BAS[ATNO][ 11].d[ 56] =        -0.000036618959;
  BAS[ATNO][ 11].a[ 57] =        12.690700000000;     BAS[ATNO][ 11].d[ 57] =         0.005693527763;
  BAS[ATNO][ 11].a[ 58] =         5.119500000000;     BAS[ATNO][ 11].d[ 58] =        -0.055154591811;
  BAS[ATNO][ 11].a[ 59] =         1.377830000000;     BAS[ATNO][ 11].d[ 59] =         0.210877010074;
  BAS[ATNO][ 11].a[ 60] =         0.696824000000;     BAS[ATNO][ 11].d[ 60] =         0.231277710990;
  BAS[ATNO][ 11].a[ 61] =         0.347367000000;     BAS[ATNO][ 11].d[ 61] =        -0.495546577433;
  BAS[ATNO][ 11].a[ 62] =         0.152819000000;     BAS[ATNO][ 11].d[ 62] =        -0.121519965582;
  BAS[ATNO][ 11].a[ 63] =         0.065049000000;     BAS[ATNO][ 11].d[ 63] =         0.357914635501;
  BAS[ATNO][ 11].a[ 64] =         0.027339000000;     BAS[ATNO][ 11].d[ 64] =        -1.041775704257;
  BAS[ATNO][ 11].a[ 65] =         0.027339000000;     BAS[ATNO][ 11].d[ 65] =         0.102834811524;
  BAS[ATNO][ 11].a[ 66] =         0.011500000000;     BAS[ATNO][ 11].d[ 66] =         0.320342122881;
  BAS[ATNO][ 11].a[ 67] =         0.011500000000;     BAS[ATNO][ 11].d[ 67] =        -0.031621318961;

  // Basis function  13 L = d
  InitBFNGauss(BAS[ATNO][ 12]);
  BAS[ATNO][ 12].l  = 2;
  BAS[ATNO][ 12].ng = 46;
  BAS[ATNO][ 12].a[  0] =        22.603200000000;     BAS[ATNO][ 12].d[  0] =        -0.000017576319;
  BAS[ATNO][ 12].a[  1] =         6.339140000000;     BAS[ATNO][ 12].d[  1] =         0.000167392235;
  BAS[ATNO][ 12].a[  2] =         2.177630000000;     BAS[ATNO][ 12].d[  2] =        -0.001393078068;
  BAS[ATNO][ 12].a[  3] =         1.107000000000;     BAS[ATNO][ 12].d[  3] =        -0.003736798144;
  BAS[ATNO][ 12].a[  4] =         0.535372000000;     BAS[ATNO][ 12].d[  4] =        -0.004829544559;
  BAS[ATNO][ 12].a[  5] =         0.248980000000;     BAS[ATNO][ 12].d[  5] =        -0.004161604053;
  BAS[ATNO][ 12].a[  6] =         0.110409000000;     BAS[ATNO][ 12].d[  6] =        -0.002342199308;
  BAS[ATNO][ 12].a[  7] =        22.603200000000;     BAS[ATNO][ 12].d[  7] =        -0.000955305188;
  BAS[ATNO][ 12].a[  8] =         6.339140000000;     BAS[ATNO][ 12].d[  8] =         0.009098074885;
  BAS[ATNO][ 12].a[  9] =         2.177630000000;     BAS[ATNO][ 12].d[  9] =        -0.075716347358;
  BAS[ATNO][ 12].a[ 10] =         1.107000000000;     BAS[ATNO][ 12].d[ 10] =        -0.203101831018;
  BAS[ATNO][ 12].a[ 11] =         0.535372000000;     BAS[ATNO][ 12].d[ 11] =        -0.262494602353;
  BAS[ATNO][ 12].a[ 12] =         0.248980000000;     BAS[ATNO][ 12].d[ 12] =        -0.226190811057;
  BAS[ATNO][ 12].a[ 13] =         0.110409000000;     BAS[ATNO][ 12].d[ 13] =        -0.127302827073;
  BAS[ATNO][ 12].a[ 14] =        22.603200000000;     BAS[ATNO][ 12].d[ 14] =         0.000033266991;
  BAS[ATNO][ 12].a[ 15] =         6.339140000000;     BAS[ATNO][ 12].d[ 15] =        -0.000323664751;
  BAS[ATNO][ 12].a[ 16] =         2.177630000000;     BAS[ATNO][ 12].d[ 16] =         0.003116529112;
  BAS[ATNO][ 12].a[ 17] =         1.107000000000;     BAS[ATNO][ 12].d[ 17] =         0.008519946786;
  BAS[ATNO][ 12].a[ 18] =         0.535372000000;     BAS[ATNO][ 12].d[ 18] =         0.007390109474;
  BAS[ATNO][ 12].a[ 19] =         0.248980000000;     BAS[ATNO][ 12].d[ 19] =        -0.004966332577;
  BAS[ATNO][ 12].a[ 20] =         0.110409000000;     BAS[ATNO][ 12].d[ 20] =        -0.014069605259;
  BAS[ATNO][ 12].a[ 21] =        22.603200000000;     BAS[ATNO][ 12].d[ 21] =         0.001808121940;
  BAS[ATNO][ 12].a[ 22] =         6.339140000000;     BAS[ATNO][ 12].d[ 22] =        -0.017591772674;
  BAS[ATNO][ 12].a[ 23] =         2.177630000000;     BAS[ATNO][ 12].d[ 23] =         0.169389071787;
  BAS[ATNO][ 12].a[ 24] =         1.107000000000;     BAS[ATNO][ 12].d[ 24] =         0.463074730189;
  BAS[ATNO][ 12].a[ 25] =         0.535372000000;     BAS[ATNO][ 12].d[ 25] =         0.401666000593;
  BAS[ATNO][ 12].a[ 26] =         0.248980000000;     BAS[ATNO][ 12].d[ 26] =        -0.269929281939;
  BAS[ATNO][ 12].a[ 27] =         0.110409000000;     BAS[ATNO][ 12].d[ 27] =        -0.764708844141;
  BAS[ATNO][ 12].a[ 28] =        22.603200000000;     BAS[ATNO][ 12].d[ 28] =        -0.000069003828;
  BAS[ATNO][ 12].a[ 29] =         6.339140000000;     BAS[ATNO][ 12].d[ 29] =         0.000705762844;
  BAS[ATNO][ 12].a[ 30] =         2.177630000000;     BAS[ATNO][ 12].d[ 30] =        -0.009258110422;
  BAS[ATNO][ 12].a[ 31] =         1.107000000000;     BAS[ATNO][ 12].d[ 31] =        -0.019031106066;
  BAS[ATNO][ 12].a[ 32] =         0.535372000000;     BAS[ATNO][ 12].d[ 32] =         0.007172816743;
  BAS[ATNO][ 12].a[ 33] =         0.248980000000;     BAS[ATNO][ 12].d[ 33] =         0.029757500641;
  BAS[ATNO][ 12].a[ 34] =         0.110409000000;     BAS[ATNO][ 12].d[ 34] =        -0.008984721549;
  BAS[ATNO][ 12].a[ 35] =        22.603200000000;     BAS[ATNO][ 12].d[ 35] =        -0.003750484598;
  BAS[ATNO][ 12].a[ 36] =         6.339140000000;     BAS[ATNO][ 12].d[ 36] =         0.038359504684;
  BAS[ATNO][ 12].a[ 37] =         2.177630000000;     BAS[ATNO][ 12].d[ 37] =        -0.503195277323;
  BAS[ATNO][ 12].a[ 38] =         1.107000000000;     BAS[ATNO][ 12].d[ 38] =        -1.034375510539;
  BAS[ATNO][ 12].a[ 39] =         0.535372000000;     BAS[ATNO][ 12].d[ 39] =         0.389855742201;
  BAS[ATNO][ 12].a[ 40] =         0.248980000000;     BAS[ATNO][ 12].d[ 40] =         1.617374723788;
  BAS[ATNO][ 12].a[ 41] =         0.110409000000;     BAS[ATNO][ 12].d[ 41] =        -0.488336090739;
  BAS[ATNO][ 12].a[ 42] =         0.045377000000;     BAS[ATNO][ 12].d[ 42] =         0.014755997249;
  BAS[ATNO][ 12].a[ 43] =         0.045377000000;     BAS[ATNO][ 12].d[ 43] =         0.802015507376;
  BAS[ATNO][ 12].a[ 44] =         0.018600000000;     BAS[ATNO][ 12].d[ 44] =        -0.005171398504;
  BAS[ATNO][ 12].a[ 45] =         0.018600000000;     BAS[ATNO][ 12].d[ 45] =        -0.281074991057;

-------------------------------------------
RADIAL EXPECTATION VALUES <R**-3> TO <R**3>
-------------------------------------------
   0 :     0.000000     1.050591     0.972774     1.138095     1.432277     1.991187
   1 :     1.005384     0.887297     0.887648     1.265565     1.797219     2.861271
   2 :     1.001264     0.884422     0.885916     1.269285     1.810385     2.900703
   3 :     1.001264     0.884422     0.885916     1.269285     1.810385     2.900703
   4 :     0.438984     0.466634     0.613427     2.037111     5.204341    82.861007
   5 :     0.000000     0.147162     0.323964     3.639714    15.409812    73.774599
   6 :     0.000000     0.016774     0.109000    10.298393   113.712064  1326.459712
   7 :     0.000000     0.125117     0.271801     5.357003    39.052376   366.680139
   8 :     0.000000     0.523191     0.569621     3.488749    24.845087   267.091419
   9 :     0.460858     0.486652     0.629960     1.956229     4.735711    65.419528
  10 :     0.462426     0.487960     0.631544     1.940787     4.614212    66.751684
  11 :     0.462426     0.487960     0.631544     1.940787     4.614212    66.751684
  12 :     0.454079     0.480578     0.625471     1.970672     4.789246    71.301289
  13 :     0.004100     0.014920     0.107108    10.727713   126.526252  1604.733571
  14 :     0.003570     0.013779     0.103891    10.936383   130.616814  1670.738584
  15 :     0.003570     0.013779     0.103891    10.936383   130.616814  1670.738584
  16 :     0.002595     0.012308     0.102974    10.348223   112.431443  6375.973557
  17 :     0.002620     0.012310     0.102890    10.356498   112.589264  6395.856502
  18 :     0.002620     0.012310     0.102890    10.356498   112.589264  6395.856502
  19 :     0.003955     0.013627     0.104133    10.350805   112.607723  6401.240866
  20 :     0.002733     0.012359     0.102671    10.382870   113.104332  6434.975348
  21 :     0.016757     0.038980     0.163602     8.281781    88.523017  1130.241017
  22 :     0.016213     0.038317     0.163211     8.193711    86.288749  1089.885106
  23 :     0.016213     0.038317     0.163211     8.193711    86.288749  1089.885106
  24 :     0.031724     0.051116     0.179818     6.901251    56.352268  2701.507722
  25 :     0.032534     0.051648     0.180239     6.896148    56.253806  2694.427054
  26 :     0.032534     0.051648     0.180239     6.896148    56.253806  2694.427054
  27 :     0.044346     0.062333     0.189828     6.821741    55.603885  2665.898208
  28 :     0.059535     0.080004     0.220169     6.498498    56.908073   628.750285
  29 :     0.034225     0.053152     0.181531     6.879247    55.952733  2670.318622
  30 :     0.060543     0.081045     0.222035     6.418899    55.574386   609.387160
  31 :     0.060543     0.081045     0.222035     6.418899    55.574386   609.387160
  32 :     0.115293     0.157708     0.327419     4.365110    27.509578   245.609001
  33 :     0.116884     0.159410     0.329462     4.330097    27.067181   240.258670
  34 :     0.116884     0.159410     0.329462     4.330097    27.067181   240.258670
  35 :     0.146323     0.187849     0.352523     4.075349    23.048019   886.518552
  36 :     0.147761     0.189078     0.353700     4.064670    22.937848   880.873683
  37 :     0.147761     0.189078     0.353700     4.064670    22.937848   880.873683
  38 :     0.162182     0.201463     0.363141     4.038847    22.917550   885.907305
  39 :     0.151387     0.192774     0.357225     4.032701    22.609010   863.987626
  40 :     0.787292     0.613620     0.642793     2.499109    10.687477    78.539041
  41 :     0.789887     0.615555     0.644224     2.489403    10.594100    77.563964
  42 :     0.789887     0.615555     0.644224     2.489403    10.594100    77.563964
  43 :     1.063941     0.796178     0.750135     2.215565     8.945682   305.097788
  44 :     1.065717     0.797028     0.750709     2.212662     8.920150   304.244663
  45 :     1.065717     0.797028     0.750709     2.212662     8.920150   304.244663
  46 :     1.061591     0.793967     0.748554     2.222260     8.981781   306.246201
  47 :     1.068634     0.799162     0.752185     2.205275     8.859959   301.570701
  48 :     0.000001     2.010964     0.752297     5.697050    57.466125   702.539850
Making the total density                ... o.k.
o.k.
Initializing the integrals              ... done
Making exponents                        ... done
Making rho(0)                           ... done (         0.001410639)
Integral calculation                    ... Two index integrals                     ... done
Solving the equation system             ... done
atomic density will be written to file 42_Mo_atom42.adf

-------
TIMINGS
-------

Total SCF time: 0 days 0 hours 0 min 1 sec 

Total time                  ....       1.831 sec
Sum of individual times     ....       1.216 sec  ( 66.4%)

Fock matrix formation       ....       1.044 sec  ( 57.0%)
Diagonalization             ....       0.080 sec  (  4.4%)
Density matrix formation    ....       0.002 sec  (  0.1%)
Population analysis         ....       0.000 sec  (  0.0%)
Initial guess               ....       0.001 sec  (  0.0%)
Orbital Transformation      ....       0.000 sec  (  0.0%)
Orbital Orthonormalization  ....       0.000 sec  (  0.0%)
DIIS solution               ....       0.090 sec  (  4.9%)

-------------------------   --------------------
FINAL SINGLE POINT ENERGY       -67.201037742192
-------------------------   --------------------


                            ***************************************
                            *     ORCA property calculations      *
                            ***************************************

                                    ---------------------
                                    Active property flags
                                    ---------------------
   (+) Dipole Moment


------------------------------------------------------------------------------
                       ORCA ELECTRIC PROPERTIES CALCULATION
------------------------------------------------------------------------------

Dipole Moment Calculation                       ... on
Quadrupole Moment Calculation                   ... off
Polarizability Calculation                      ... off
GBWName                                         ... 42_Mo_atom42.gbw
Electron density file                           ... 42_Mo_atom42.scfp
The origin for moment calculation is the CENTER OF MASS  = ( 0.000000,  0.000000  0.000000)

-------------
DIPOLE MOMENT
-------------
                                X             Y             Z
Electronic contribution:     -0.00000       0.00000       0.00000
Nuclear contribution   :      0.00000       0.00000       0.00000
                        -----------------------------------------
Total Dipole Moment    :     -0.00000       0.00000       0.00000
                        -----------------------------------------
Magnitude (a.u.)       :      0.00000
Magnitude (Debye)      :      0.00000



--------------------
Rotational spectrum 
--------------------
 
Rotational constants in cm-1:     0.000000     0.000000     0.000000 
Rotational constants in MHz :     0.000000     0.000000     0.000000 

 Dipole components along the rotational axes: 
x,y,z [a.u.] :    -0.000000     0.000000     0.000000 
x,y,z [Debye]:    -0.000000     0.000000     0.000000 

 

Timings for individual modules:

Sum of individual times         ...        5.918 sec (=   0.099 min)
GTO integral calculation        ...        4.065 sec (=   0.068 min)  68.7 %
SCF iterations                  ...        1.853 sec (=   0.031 min)  31.3 %
                             ****ORCA TERMINATED NORMALLY****
TOTAL RUN TIME: 0 days 0 hours 0 minutes 6 seconds 154 msec
