
                                 *****************
                                 * O   R   C   A *
                                 *****************

           --- An Ab Initio, DFT and Semiempirical electronic structure package ---

                  #######################################################
                  #                        -***-                        #
                  #          Department of theory and spectroscopy      #
                  #               Directorship: Frank Neese             #
                  #        Max Planck Institute fuer Kohlenforschung    #
                  #                Kaiser Wilhelm Platz 1               #
                  #                 D-45470 Muelheim/Ruhr               #
                  #                      Germany                        #
                  #                                                     #
                  #                  All rights reserved                #
                  #                        -***-                        #
                  #######################################################


                         Program Version 4.2.0 -  RELEASE  -


 With contributions from (in alphabetic order):
   Daniel Aravena         : Magnetic Suceptibility
   Michael Atanasov       : Ab Initio Ligand Field Theory (pilot matlab implementation)
   Alexander A. Auer      : GIAO ZORA, VPT2
   Ute Becker             : Parallelization
   Giovanni Bistoni       : ED, misc. LED, open-shell LED, HFLED
   Martin Brehm           : Molecular dynamics
   Dmytro Bykov           : SCF Hessian
   Vijay G. Chilkuri      : MRCI spin determinant printing, contributions to CSF-ICE
   Dipayan Datta          : RHF DLPNO-CCSD density
   Achintya Kumar Dutta   : EOM-CC, STEOM-CC
   Dmitry Ganyushin       : Spin-Orbit,Spin-Spin,Magnetic field MRCI
   Miquel Garcia          : C-PCM Hessian, Gaussian charge scheme
   Yang Guo               : DLPNO-NEVPT2, CIM, IAO-localization
   Andreas Hansen         : Spin unrestricted coupled pair/coupled cluster methods
   Benjamin Helmich-Paris : CASSCF linear response (MC-RPA)
   Lee Huntington         : MR-EOM, pCC
   Robert Izsak           : Overlap fitted RIJCOSX, COSX-SCS-MP3, EOM
   Christian Kollmar      : KDIIS, OOCD, Brueckner-CCSD(T), CCSD density
   Simone Kossmann        : Meta GGA functionals, TD-DFT gradient, OOMP2, MP2 Hessian
   Martin Krupicka        : AUTO-CI
   Lucas Lang             : DCDCAS
   Dagmar Lenk            : GEPOL surface, SMD
   Dimitrios Liakos       : Extrapolation schemes; Compound Job, initial MDCI parallelization
   Dimitrios Manganas     : Further ROCIS development; embedding schemes
   Dimitrios Pantazis     : SARC Basis sets
   Taras Petrenko         : DFT Hessian,TD-DFT gradient, ASA, ECA, R-Raman, ABS, FL, XAS/XES, NRVS
   Peter Pinski           : DLPNO-MP2, DLPNO-MP2 Gradient
   Christoph Reimann      : Effective Core Potentials
   Marius Retegan         : Local ZFS, SOC
   Christoph Riplinger    : Optimizer, TS searches, QM/MM, DLPNO-CCSD(T), (RO)-DLPNO pert. Triples
   Tobias Risthaus        : Range-separated hybrids, TD-DFT gradient, RPA, STAB
   Michael Roemelt        : Original ROCIS implementation
   Masaaki Saitow         : Open-shell DLPNO-CCSD energy and density
   Barbara Sandhoefer     : DKH picture change effects
   Avijit Sen             : IP-ROCIS
   Kantharuban Sivalingam : CASSCF convergence, NEVPT2, FIC-MRCI
   Bernardo de Souza      : ESD, SOC TD-DFT
   Georgi Stoychev        : AutoAux, RI-MP2 NMR
   Willem Van den Heuvel  : Paramagnetic NMR
   Boris Wezisla          : Elementary symmetry handling
   Frank Wennmohs         : Technical directorship


 We gratefully acknowledge several colleagues who have allowed us to
 interface, adapt or use parts of their codes:
   Stefan Grimme, W. Hujo, H. Kruse,             : VdW corrections, initial TS optimization,
                  C. Bannwarth                     DFT functionals, gCP, sTDA/sTD-DF
   Ed Valeev, F. Pavosevic, A. Kumar             : LibInt (2-el integral package), F12 methods
   Garnet Chan, S. Sharma, J. Yang, R. Olivares  : DMRG
   Ulf Ekstrom                                   : XCFun DFT Library
   Mihaly Kallay                                 : mrcc  (arbitrary order and MRCC methods)
   Andreas Klamt, Michael Diedenhofen            : otool_cosmo (COSMO solvation model)
   Jiri Pittner, Ondrej Demel                    : Mk-CCSD
   Frank Weinhold                                : gennbo (NPA and NBO analysis)
   Christopher J. Cramer and Donald G. Truhlar   : smd solvation model
   Lars Goerigk                                  : TD-DFT with DH, B97 family of functionals
   V. Asgeirsson, H. Jonsson                     : NEB implementation
   FAccTs GmbH                                   : IRC, NEB, NEB-TS, Multilevel, MM, QM/MM, CI optimization
   S Lehtola, MJT Oliveira, MAL Marques          : LibXC Library


 Your calculation uses the libint2 library for the computation of 2-el integrals
 For citations please refer to: http://libint.valeyev.net

 Your ORCA version has been built with support for libXC version: 4.2.3
 For citations please refer to: https://tddft.org/programs/libxc/

 This ORCA versions uses:
   CBLAS   interface :  Fast vector & matrix operations
   LAPACKE interface :  Fast linear algebra routines
   SCALAPACK package :  Parallel linear algebra routines


----- Orbital basis set information -----
Your calculation utilizes the basis: aug-cc-pVTZ-PP 
       Ca, Sr, Ba, Ra : Obtained from the Peterson Research Group Website (tyr0.chem.wsu.edu/~kipeters) Feb. 2017
                        H. Li, H. Feng, W. Sun, Y. Zhang, Q. Fan, K. A. Peterson, Y. Xie, H. F. Schaefer III, Mol. Phys. 111, 2292 (2013)
  Cu-Zn, Ag-Cd, Au-Hg : Obtained from the ccRepo (grant-hill.group.shef.ac.uk/ccrepo) Feb. 2017
                        K. A. Peterson, C. Puzzarini, Theor. Chem. Acc. 114, 283 (2005)
  Ga-Kr, In-Xe, Tl-Rn : Obtained from the ccRepo (grant-hill.group.shef.ac.uk/ccrepo) Feb. 2017
                        K. A. Peterson, J. Chem. Phys. 119, 11099 (2003)
                        K. A. Peterson, D. Figgen, E. Goll, H. Stoll, M. Dolg, J. Chem. Phys. 119, 11113 (2003)
                 Y-Pd : Obtained from the ccRepo (grant-hill.group.shef.ac.uk/ccrepo) Feb. 2017
                        K. A. Peterson, D. Figgen, M. Dolg, H. Stoll, J. Chem. Phys. 126, 124101 (2007)
                Hf-Pt : Obtained from the ccRepo (grant-hill.group.shef.ac.uk/ccrepo) Feb. 2017
                        D. Figgen, K. A. Peterson, M. Dolg, H. Stoll, J. Chem. Phys. 130, 164108 (2009)

cite the ECPs for Ru [SK MCDHF RSC] as follows:
O: B. Metz and H. Stoll, private communication (KAP)
Tl: B. Metz, M. Schweizer, H. Stoll, M. Dolg, W. Liu, Theor. Chem. Acc. 104, 22 (2000)
Ga-As, In-Sb, Pb-Bi: B. Metz, H. Stoll, M. Dolg, J. Chem. Phys. 113, 2563 (2000)
Se-Kr, Te-Xe, Po-Rn: K.A. Peterson, D. Figgen, E. Goll, H. Stoll, and M. Dolg, J. Chem. Phys., in press (2003)
Cu-Zn, Ag-Cd, Au-Hg: D. Figgen, G. Rauhut, M. Dolg, and H. Stoll, Chem. Phys. 311, 227 (2005)
Y-Pd: K.A. Peterson, D. Figgen, M. Dolg, H. Stoll, J. Chem. Phys. 126, 124101 (2007)
I: K. A. Peterson, B. C. Shepler, D. Figgen, H. Stoll, J. Phys. Chem. A 110, 13877 (2006)
Hf-Pt: D. Figgen, K.A. Peterson, M. Dolg, H. Stoll, J. Chem. Phys. 130, 164108 (2009)
Ca, Sr, Ba, Ra: I.S. Lim, H. Stoll, P. Schwerdtfeger, J. Chem. Phys. 124, 034107 (2006)

ECP parameters for Ru [SK MCDHF RSC] have been obtained from:
cc-pVDZ-PP  EMSL  Basis Set Exchange Library   4/7/16 5:27 AM
Ca, Sr, Ba, Ra: http://www.tc.uni-koeln.de/PP/index.en.html 3/16/17 1:54 PM

================================================================================
                                        WARNINGS
                       Please study these warnings very carefully!
================================================================================


WARNING: your system is open-shell and RHF/RKS was chosen
  ===> : WILL SWITCH to UHF/UKS


WARNING: MDCI localization with Augmented Hessian Foster-Boys
  ===> : Switching off randomization!

WARNING: Post HF methods need fully converged wavefunctions
  ===> : Setting SCFConvForced true
         You can overwrite this default with %scf ConvForced false 


INFO   : the flag for use of LIBINT has been found!

================================================================================
                                       INPUT FILE
================================================================================
NAME = 44_Ru.in
|  1> #
|  2> # 44_Ru CCSD(T)/aug-cc-pVTZ-PP
|  3> #
|  4> ! CCSD(T) aug-cc-pVTZ-PP tightscf slowconv
|  5> 
|  6> *xyz 0 5
|  7>  Ru 0.0 0.0 0.0
|  8> *
|  9> 
| 10> %maxcore 5000 
| 11> 
| 12> %pal
| 13> nprocs 24
| 14> end
| 15> 
| 16> 
| 17>                          ****END OF INPUT****
================================================================================

                       ****************************
                       * Single Point Calculation *
                       ****************************

---------------------------------
CARTESIAN COORDINATES (ANGSTROEM)
---------------------------------
  Ru     0.000000    0.000000    0.000000

----------------------------
CARTESIAN COORDINATES (A.U.)
----------------------------
  NO LB      ZA    FRAG     MASS         X           Y           Z
   0 Ru   16.0000*   0   101.070    0.000000    0.000000    0.000000
* core charge reduced due to ECP

--------------------------------
INTERNAL COORDINATES (ANGSTROEM)
--------------------------------
 Ru     0   0   0     0.000000000000     0.00000000     0.00000000

---------------------------
INTERNAL COORDINATES (A.U.)
---------------------------
 Ru     0   0   0     0.000000000000     0.00000000     0.00000000

---------------------
BASIS SET INFORMATION
---------------------
There are 1 groups of distinct atoms

 Group   1 Type Ru  : 38s34p23d3f2g contracted to 6s6p5d3f2g pattern {999911/888811/77711/111/11}

Atom   0Ru   basis set group =>   1
-------------------------
ECP PARAMETER INFORMATION
-------------------------

 Group 1, Type Ru ECP SK MCDHF RSC (replacing 28 core electrons, lmax=4)

Atom   0Ru   ECP group =>   1



           ************************************************************
           *        Program running with 24 parallel MPI-processes    *
           *              working on a common directory               *
           ************************************************************
------------------------------------------------------------------------------
                           ORCA GTO INTEGRAL CALCULATION
------------------------------------------------------------------------------

                         BASIS SET STATISTICS AND STARTUP INFO

 # of primitive gaussian shells          ...  100
 # of primitive gaussian functions       ...  294
 # of contracted shells                  ...   22
 # of contracted basis functions         ...   88
 Highest angular momentum                ...    4
 Maximum contraction depth               ...    9
 Integral package used                   ... LIBINT
 Integral threshhold            Thresh   ...  2.500e-11
 Primitive cut-off              TCut     ...  2.500e-12


------------------------------ INTEGRAL EVALUATION ----------------------------


 * One electron integrals 

   ECP integrals                         ... done
 Pre-screening matrix                    ... done
 Shell pair data                         ... done (   0.000 sec)



           ************************************************************
           *        Program running with 24 parallel MPI-processes    *
           *              working on a common directory               *
           ************************************************************
-------------------------------------------------------------------------------
                                 ORCA SCF
-------------------------------------------------------------------------------

------------
SCF SETTINGS
------------
Hamiltonian:
 Ab initio Hamiltonian  Method          .... Hartree-Fock(GTOs)


General Settings:
 Integral files         IntName         .... 44_Ru
 Hartree-Fock type      HFTyp           .... UHF
 Total Charge           Charge          ....    0
 Multiplicity           Mult            ....    5
 Number of Electrons    NEL             ....   16
 Basis Dimension        Dim             ....   88
 Nuclear Repulsion      ENuc            ....      0.0000000000 Eh

Convergence Acceleration:
 DIIS                   CNVDIIS         .... on
   Start iteration      DIISMaxIt       ....     0
   Startup error        DIISStart       ....  0.200000
   # of expansion vecs  DIISMaxEq       ....     5
   Bias factor          DIISBfac        ....   1.050
   Max. coefficient     DIISMaxC        ....  10.000
 Newton-Raphson         CNVNR           .... off
 SOSCF                  CNVSOSCF        .... off
 Level Shifting         CNVShift        .... on
   Level shift para.    LevelShift      ....    0.2500
   Turn off err/grad.   ShiftErr        ....    0.0000
 Zerner damping         CNVZerner       .... off
 Static damping         CNVDamp         .... on
   Fraction old density DampFac         ....    0.8500
   Max. Damping (<1)    DampMax         ....    0.9800
   Min. Damping (>=0)   DampMin         ....    0.0000
   Turn off err/grad.   DampErr         ....    0.0300
 Fernandez-Rico         CNVRico         .... off

SCF Procedure:
 Maximum # iterations   MaxIter         ....   125
 SCF integral mode      SCFMode         .... Direct
   Integral package                     .... LIBINT
 Reset frequency        DirectResetFreq ....    20
 Integral Threshold     Thresh          ....  2.500e-11 Eh
 Primitive CutOff       TCut            ....  2.500e-12 Eh

Convergence Tolerance:
 Convergence Check Mode ConvCheckMode   .... Total+1el-Energy
 Convergence forced     ConvForced      .... 1
 Energy Change          TolE            ....  1.000e-08 Eh
 1-El. energy change                    ....  1.000e-05 Eh
 DIIS Error             TolErr          ....  5.000e-07


Diagonalization of the overlap matrix:
Smallest eigenvalue                        ... 4.954e-05
Time for diagonalization                   ...    0.003 sec
Threshold for overlap eigenvalues          ... 1.000e-08
Number of eigenvalues below threshold      ... 0
Time for construction of square roots      ...    0.012 sec
Total time needed                          ...    0.016 sec

-------------------
DFT GRID GENERATION
-------------------

General Integration Accuracy     IntAcc      ...  4.340
Radial Grid Type                 RadialGrid  ... Gauss-Chebyshev
Angular Grid (max. acc.)         AngularGrid ... Lebedev-110
Angular grid pruning method      GridPruning ... 3 (G Style)
Weight generation scheme         WeightScheme... Becke
Basis function cutoff            BFCut       ...    1.0000e-11
Integration weight cutoff        WCut        ...    1.0000e-14
Grids for H and He will be reduced by one unit

# of grid points (after initial pruning)     ...   3280 (   0.0 sec)
# of grid points (after weights+screening)   ...   3280 (   0.0 sec)
Grid point division into batches done        ...    0.0 sec
Reduced shell lists constructed in    0.0 sec

Total number of grid points                  ...     3280
Total number of batches                      ...       52
Average number of points per batch           ...       63
Average number of grid points per atom       ...     3280
Average number of shells per batch           ...    14.00 (63.64%)
Average number of basis functions per batch  ...    46.00 (52.27%)
Average number of large shells per batch     ...    12.75 (91.07%)
Average number of large basis fcns per batch ...    39.75 (86.41%)
Maximum spatial batch extension              ...  19.06, 29.99, 29.99 au
Average spatial batch extension              ...   1.10,  1.53,  1.73 au

Time for grid setup =    0.071 sec

------------------------------
INITIAL GUESS: MODEL POTENTIAL
------------------------------
Loading Hartree-Fock densities                     ... done
  calling /sw/apps/orca/orca_4_2_0_linux_x86-64_openmpi314/orca 44_Ru_atom44.inp > 44_Ru_atom44.out in order to generate an atomic fitting density for atom 0 (Ru with ECP) on-the-fly... 
    atom 0 (Ru), assumed electronic state with S=5: 1s2 2s2 2p6 3s2 3p6 4s2 3d10 4p6 5s2 4d6           ... done
Calculating cut-offs                               ... done
Setting up the integral package                    ... done
Initializing the effective Hamiltonian             ... done
Starting the Coulomb interaction                   ... done (   0.0 sec)
Reading the grid                                   ... done
Mapping shells                                     ... done
Starting the XC term evaluation                    ... done (   0.0 sec)
Transforming the Hamiltonian                       ... done (   0.0 sec)
Diagonalizing the Hamiltonian                      ... done (   0.0 sec)
Back transforming the eigenvectors                 ... done (   0.0 sec)
Now organizing SCF variables                       ... done
                      ------------------
                      INITIAL GUESS DONE (   6.2 sec)
                      ------------------
--------------
SCF ITERATIONS
--------------
ITER       Energy         Delta-E        Max-DP      RMS-DP      [F,P]     Damp
               ***  Starting incremental Fock matrix formation  ***
  0    -93.7356851868   0.000000000000 0.32684297  0.01243416  0.2116626 0.8500
  1    -93.7473028697  -0.011617682865 0.27810736  0.01063689  0.1764977 0.8500
                               ***Turning on DIIS***
  2    -93.7565079943  -0.009205124658 0.23617372  0.00900901  0.1456752 0.8500
  3    -93.9259928189  -0.169484824545 0.20094927  0.00757263  0.1206583 0.8500
  4    -93.9743480177  -0.048355198823 0.17087489  0.00640179  0.1021479 0.8500
  5    -93.9561574600   0.018190557709 0.14515473  0.00543961  0.0876154 0.8500
  6    -93.9286257301   0.027531729887 0.12326232  0.00462821  0.0753886 0.8500
  7    -93.8883513740   0.040274356167 0.10459414  0.00394438  0.0648271 0.8500
  8    -93.8661096535   0.022241720401 0.08880683  0.00335640  0.0554570 0.8500
  9    -93.8555274754   0.010582178102 0.07545013  0.00285289  0.0472862 0.8500
 10    -93.8490273067   0.006500168768 0.06411692  0.00242426  0.0402804 0.8500
 11    -93.8435217801   0.005505526532 0.05448581  0.00206030  0.0343158 0.8500
 12    -93.8382119426   0.005309837504 0.30864901  0.01167598  0.0292426 0.0000
 13    -93.8059149854   0.032296957283 0.00822615  0.00008929  0.0066035 0.0000
 14    -93.8059463834  -0.000031398054 0.01004402  0.00010312  0.0065497 0.0000
 15    -93.8059771593  -0.000030775886 0.01025876  0.00009752  0.0064862 0.0000
 16    -93.8059262788   0.000050880533 0.00588505  0.00005746  0.0064308 0.0000
 17    -93.8053724640   0.000553814733 0.00134567  0.00001510  0.0063884 0.0000
 18    -93.8052597099   0.000112754088 0.00048229  0.00000483  0.0063616 0.0000
 19    -93.8057743203  -0.000514610343 0.00322262  0.00003199  0.0063701 0.0000
               *** Restarting incremental Fock matrix formation ***
                                   *** Resetting DIIS ***
 20    -93.8064542637  -0.000679943386 0.00780740  0.00007861  0.0063745 0.0000
 21    -93.8065841760  -0.000129912321 0.00731760  0.00007523  0.0063716 0.0000
 22    -93.8066006064  -0.000016430400 0.00257616  0.00002698  0.0063592 0.0000
 23    -93.8064017690   0.000198837378 0.00460225  0.00004944  0.0063345 0.0000
 24    -93.8063467805   0.000054988503 0.00098580  0.00001033  0.0063012 0.0000
 25    -93.8065383075  -0.000191527020 0.00689318  0.00007325  0.0063185 0.0000
 26    -93.8068062794  -0.000267971885 0.00818690  0.00008788  0.0063523 0.0000
 27    -93.8069749181  -0.000168638630 0.00406762  0.00004436  0.0063586 0.0000
 28    -93.8069470017   0.000027916331 0.00700801  0.00007890  0.0063384 0.0000
 29    -93.8068783576   0.000068644142 0.00043943  0.00000743  0.0062742 0.0000
 30    -93.8068881190  -0.000009761396 0.00595348  0.00006615  0.0063129 0.0000
 31    -93.8070364076  -0.000148288596 0.00733912  0.00008214  0.0063469 0.0000
 32    -93.8072302835  -0.000193875913 0.00442569  0.00005013  0.0063599 0.0000
 33    -93.8072956362  -0.000065352713 0.00526179  0.00006209  0.0063498 0.0000
 34    -93.8072092384   0.000086397819 0.00020704  0.00000392  0.0062889 0.0000
 35    -93.8071729765   0.000036261855 0.00605536  0.00007041  0.0063149 0.0000
 36    -93.8073298999  -0.000156923352 0.00738941  0.00008637  0.0063589 0.0000
 37    -93.8075333508  -0.000203450925 0.00394999  0.00004666  0.0063789 0.0000
 38    -93.8076346534  -0.000101302633 0.00576572  0.00007069  0.0063669 0.0000
 39    -93.8075397985   0.000094854911 0.00053856  0.00000834  0.0063008 0.0000
               *** Restarting incremental Fock matrix formation ***
                                   *** Resetting DIIS ***
 40    -93.8074679327   0.000071865871 0.00748893  0.00008970  0.0063354 0.0000
 41    -93.8076498029  -0.000181870296 0.00750716  0.00009186  0.0063804 0.0000
 42    -93.8078687139  -0.000218910957 0.00346060  0.00004308  0.0064005 0.0000
 43    -93.8079790401  -0.000110326171 0.00547210  0.00006972  0.0063883 0.0000
 44    -93.8079030872   0.000075952839 0.00103108  0.00001279  0.0063281 0.0000
 45    -93.8077960208   0.000107066426 0.00690321  0.00008711  0.0063477 0.0000
 46    -93.8079359271  -0.000139906289 0.00801629  0.00010227  0.0064063 0.0000
 47    -93.8081804635  -0.000244536389 0.00477267  0.00006192  0.0064323 0.0000
 48    -93.8083345483  -0.000154084778 0.00562852  0.00007529  0.0064245 0.0000
 49    -93.8082154501   0.000119098205 0.00018147  0.00000447  0.0063550 0.0000
 50    -93.8081299085   0.000085541541 0.00599616  0.00007926  0.0063841 0.0000
 51    -93.8082872434  -0.000157334858 0.00748360  0.00009976  0.0064324 0.0000
 52    -93.8085281776  -0.000240934268 0.00556582  0.00007548  0.0064558 0.0000
 53    -93.8087286752  -0.000200497543 0.00233446  0.00003366  0.0064538 0.0000
 54    -93.8086580855   0.000070589657 0.00059201  0.00000801  0.0064074 0.0000
 55    -93.8085831064   0.000074979133 0.00479457  0.00006669  0.0064164 0.0000
 56    -93.8087194437  -0.000136337280 0.00601728  0.00008407  0.0064542 0.0000
 57    -93.8089063758  -0.000186932125 0.00625258  0.00008900  0.0064674 0.0000
 58    -93.8091269866  -0.000220610776 0.00283240  0.00004087  0.0064721 0.0000
 59    -93.8092628074  -0.000135820800 0.00651989  0.00009563  0.0064550 0.0000
               *** Restarting incremental Fock matrix formation ***
                                   *** Resetting DIIS ***
 60    -93.8089542080   0.000308599390 0.00709704  0.00010345  0.0064015 0.0000
 61    -93.8091900083  -0.000235800302 0.00880777  0.00013055  0.0064656 0.0000
 62    -93.8094645797  -0.000274571388 0.00871334  0.00013249  0.0064833 0.0000
 63    -93.8097954894  -0.000330909741 0.00566126  0.00008802  0.0064727 0.0000
 64    -93.8100073989  -0.000211909475 0.00250086  0.00004072  0.0064425 0.0000
 65    -93.8098764567   0.000130942199 0.00085928  0.00001314  0.0064057 0.0000
 66    -93.8097271176   0.000149339132 0.00617155  0.00009799  0.0064176 0.0000
 67    -93.8100160911  -0.000288973534 0.00736615  0.00011874  0.0064382 0.0000
 68    -93.8102352614  -0.000219170309 0.01006408  0.00016713  0.0064170 0.0000
 69    -93.8106237164  -0.000388454986 0.01127659  0.00019391  0.0063766 0.0000
 70    -93.8110512098  -0.000427493429 0.01267924  0.00022729  0.0063969 0.0000
 71    -93.8115804480  -0.000529238194 0.01857279  0.00035256  0.0063694 0.0000
 72    -93.8121838359  -0.000603387906 0.01638722  0.00030565  0.0062490 0.0000
 73    -93.8138844862  -0.001700650249 0.04434352  0.00080382  0.0060061 0.0000
 74    -93.8144311755  -0.000546689375 0.01360687  0.00025866  0.0051580 0.0000
 75    -93.8128191024   0.001612073161 0.06446170  0.00113502  0.0052203 0.0000
 76    -93.8219130732  -0.009093970861 0.03108712  0.00051676  0.0036033 0.0000
 77    -93.8181616620   0.003751411236 0.02918619  0.00048273  0.0022709 0.0000
 78    -93.8175882445   0.000573417488 0.00860548  0.00013843  0.0013600 0.0000
 79    -93.8167749584   0.000813286167 0.00759973  0.00012168  0.0006001 0.0000
               *** Restarting incremental Fock matrix formation ***
                                   *** Resetting DIIS ***
 80    -93.8157685473   0.001006411062 0.00038588  0.00001004  0.0004101 0.0000
 81    -93.8158757170  -0.000107169721 0.00034334  0.00000666  0.0002305 0.0000
 82    -93.8157154225   0.000160294478 0.00036812  0.00000581  0.0002136 0.0000
 83    -93.8157838721  -0.000068449523 0.00038653  0.00000526  0.0002001 0.0000
 84    -93.8157762022   0.000007669889 0.00047216  0.00000614  0.0001853 0.0000
 85    -93.8157743514   0.000001850745 0.00066992  0.00000867  0.0001661 0.0000
 86    -93.8157737464   0.000000605048 0.00068635  0.00000885  0.0001379 0.0000
 87    -93.8157726841   0.000001062261 0.00069116  0.00000892  0.0001078 0.0000
 88    -93.8157744625  -0.000001778418 0.00054069  0.00000694  0.0000771 0.0000
 89    -93.8157734257   0.000001036795 0.00055974  0.00000719  0.0000524 0.0000
 90    -93.8157694034   0.000004022338 0.00018336  0.00000231  0.0000276 0.0000
 91    -93.8157714719  -0.000002068527 0.00023671  0.00000303  0.0000180 0.0000
 92    -93.8157702033   0.000001268673 0.00011974  0.00000152  0.0000096 0.0000
 93    -93.8157722031  -0.000001999798 0.00004931  0.00000064  0.0000056 0.0000
 94    -93.8157721199   0.000000083124 0.00001550  0.00000021  0.0000028 0.0000
 95    -93.8157730325  -0.000000912525 0.00000429  0.00000008  0.0000013 0.0000
 96    -93.8157725172   0.000000515244 0.00000751  0.00000010  0.0000011 0.0000
 97    -93.8157728289  -0.000000311729 0.00000622  0.00000008  0.0000010 0.0000
                            ***DIIS convergence achieved***

               *****************************************************
               *                     SUCCESS                       *
               *           SCF CONVERGED AFTER  98 CYCLES          *
               *****************************************************


----------------
TOTAL SCF ENERGY
----------------

Total Energy       :          -93.81577285 Eh           -2552.85696 eV

Components:
Nuclear Repulsion  :            0.00000000 Eh               0.00000 eV
Electronic Energy  :          -93.81577285 Eh           -2552.85696 eV
One Electron Energy:         -164.84644934 Eh           -4485.69994 eV
Two Electron Energy:           71.03067649 Eh            1932.84297 eV

Virial components:
Potential Energy   :         -128.36945085 Eh           -3493.11034 eV
Kinetic Energy     :           34.55367800 Eh             940.25338 eV
Virial Ratio       :            3.71507342


---------------
SCF CONVERGENCE
---------------

  Last Energy change         ...   -2.0643e-08  Tolerance :   1.0000e-08
  Last MAX-Density change    ...    5.5226e-06  Tolerance :   1.0000e-07
  Last RMS-Density change    ...    7.4171e-08  Tolerance :   5.0000e-09
  Last DIIS Error            ...    9.2742e-07  Tolerance :   5.0000e-07

             **** THE GBW FILE WAS UPDATED (44_Ru.gbw) ****
             **** DENSITY FILE WAS UPDATED (44_Ru.scfp) ****
             **** ENERGY FILE WAS UPDATED (44_Ru.en.tmp) ****
----------------------
UHF SPIN CONTAMINATION
----------------------

Expectation value of <S**2>     :     6.004678
Ideal value S*(S+1) for S=2.0   :     6.000000
Deviation                       :     0.004678

             **** THE GBW FILE WAS UPDATED (44_Ru.gbw) ****
             **** DENSITY FILE WAS UPDATED (44_Ru.scfp) ****
----------------
ORBITAL ENERGIES
----------------
                 SPIN UP ORBITALS
  NO   OCC          E(Eh)            E(eV) 
   0   1.0000      -3.533260       -96.1449 
   1   1.0000      -2.262631       -61.5693 
   2   1.0000      -2.262630       -61.5693 
   3   1.0000      -2.262629       -61.5693 
   4   1.0000      -0.437899       -11.9158 
   5   1.0000      -0.437898       -11.9158 
   6   1.0000      -0.437898       -11.9158 
   7   1.0000      -0.397545       -10.8177 
   8   1.0000      -0.397544       -10.8177 
   9   1.0000      -0.237922        -6.4742 
  10   0.0000       0.017563         0.4779 
  11   0.0000       0.017563         0.4779 
  12   0.0000       0.017563         0.4779 
  13   0.0000       0.034198         0.9306 
  14   0.0000       0.059588         1.6215 
  15   0.0000       0.059588         1.6215 
  16   0.0000       0.059589         1.6215 
  17   0.0000       0.073062         1.9881 
  18   0.0000       0.073062         1.9881 
  19   0.0000       0.073062         1.9881 
  20   0.0000       0.073392         1.9971 
  21   0.0000       0.073392         1.9971 
  22   0.0000       0.219543         5.9741 
  23   0.0000       0.219543         5.9741 
  24   0.0000       0.219544         5.9741 
  25   0.0000       0.240278         6.5383 
  26   0.0000       0.240278         6.5383 
  27   0.0000       0.240278         6.5383 
  28   0.0000       0.243405         6.6234 
  29   0.0000       0.243405         6.6234 
  30   0.0000       0.326368         8.8809 
  31   0.0000       0.631280        17.1780 
  32   0.0000       0.635605        17.2957 
  33   0.0000       0.635605        17.2957 
  34   0.0000       0.635605        17.2957 
  35   0.0000       0.639114        17.3912 
  36   0.0000       0.639114        17.3912 
  37   0.0000       0.639114        17.3912 
  38   0.0000       0.780468        21.2376 
  39   0.0000       0.780469        21.2376 
  40   0.0000       0.780469        21.2376 
  41   0.0000       0.804662        21.8960 
  42   0.0000       0.804663        21.8960 
  43   0.0000       0.804663        21.8960 
  44   0.0000       0.819355        22.2958 
  45   0.0000       0.819355        22.2958 
  46   0.0000       1.590904        43.2907 
  47   0.0000       1.608797        43.7776 
  48   0.0000       1.608797        43.7776 
  49   0.0000       1.608798        43.7776 
  50   0.0000       1.623462        44.1767 
  51   0.0000       1.623463        44.1767 
  52   0.0000       1.623463        44.1767 
  53   0.0000       1.914219        52.0886 
  54   0.0000       1.914219        52.0886 
  55   0.0000       1.914220        52.0886 
  56   0.0000       1.922973        52.3268 
  57   0.0000       1.922973        52.3268 
  58   0.0000       1.923388        52.3381 
  59   0.0000       1.925954        52.4079 
  60   0.0000       1.925954        52.4079 
  61   0.0000       1.925954        52.4079 
  62   0.0000       1.933936        52.6251 
  63   0.0000       2.707589        73.6772 
  64   0.0000       2.707590        73.6773 
  65   0.0000       2.707591        73.6773 
  66   0.0000       2.895217        78.7829 
  67   0.0000       2.895218        78.7829 
  68   0.0000       2.895218        78.7829 
  69   0.0000       2.921816        79.5066 
  70   0.0000       2.921816        79.5066 
  71   0.0000       4.128002       112.3287 
  72   0.0000       4.150544       112.9420 
  73   0.0000       4.150545       112.9421 
  74   0.0000       4.150546       112.9421 
  75   0.0000       4.168940       113.4426 
  76   0.0000       4.168940       113.4426 
  77   0.0000       4.168941       113.4426 
  78   0.0000       4.893185       133.1503 
  79   0.0000       4.893186       133.1503 
  80   0.0000       4.893186       133.1504 
  81   0.0000       4.913126       133.6929 
  82   0.0000       4.913126       133.6929 
  83   0.0000       4.919779       133.8740 
  84   0.0000       4.919779       133.8740 
  85   0.0000       4.919779       133.8740 
  86   0.0000       4.929367       134.1349 
  87   0.0000       6.268408       170.5721 

                 SPIN DOWN ORBITALS
  NO   OCC          E(Eh)            E(eV) 
   0   1.0000      -3.350551       -91.1731 
   1   1.0000      -2.035009       -55.3754 
   2   1.0000      -2.035008       -55.3754 
   3   1.0000      -2.035006       -55.3753 
   4   1.0000      -0.330833        -9.0024 
   5   1.0000      -0.330833        -9.0024 
   6   0.0000       0.006829         0.1858 
   7   0.0000       0.024824         0.6755 
   8   0.0000       0.024824         0.6755 
   9   0.0000       0.024824         0.6755 
  10   0.0000       0.068874         1.8742 
  11   0.0000       0.072889         1.9834 
  12   0.0000       0.072889         1.9834 
  13   0.0000       0.072889         1.9834 
  14   0.0000       0.074919         2.0387 
  15   0.0000       0.074919         2.0387 
  16   0.0000       0.088637         2.4119 
  17   0.0000       0.088637         2.4119 
  18   0.0000       0.088637         2.4119 
  19   0.0000       0.173623         4.7245 
  20   0.0000       0.173624         4.7245 
  21   0.0000       0.173624         4.7246 
  22   0.0000       0.255553         6.9540 
  23   0.0000       0.255553         6.9540 
  24   0.0000       0.264061         7.1855 
  25   0.0000       0.264061         7.1855 
  26   0.0000       0.264061         7.1855 
  27   0.0000       0.303856         8.2683 
  28   0.0000       0.303856         8.2684 
  29   0.0000       0.303857         8.2684 
  30   0.0000       0.391434        10.6515 
  31   0.0000       0.669949        18.2302 
  32   0.0000       0.669949        18.2303 
  33   0.0000       0.669950        18.2303 
  34   0.0000       0.675596        18.3839 
  35   0.0000       0.675596        18.3839 
  36   0.0000       0.675596        18.3839 
  37   0.0000       0.681726        18.5507 
  38   0.0000       0.833294        22.6751 
  39   0.0000       0.833294        22.6751 
  40   0.0000       0.833294        22.6751 
  41   0.0000       0.848814        23.0974 
  42   0.0000       0.848815        23.0974 
  43   0.0000       0.901560        24.5327 
  44   0.0000       0.901560        24.5327 
  45   0.0000       0.901561        24.5327 
  46   0.0000       1.703007        46.3412 
  47   0.0000       1.703008        46.3412 
  48   0.0000       1.703009        46.3412 
  49   0.0000       1.730464        47.0883 
  50   0.0000       1.730465        47.0883 
  51   0.0000       1.730465        47.0884 
  52   0.0000       1.764169        48.0055 
  53   0.0000       1.957163        53.2571 
  54   0.0000       1.960758        53.3549 
  55   0.0000       1.960758        53.3549 
  56   0.0000       1.960758        53.3549 
  57   0.0000       1.961678        53.3800 
  58   0.0000       1.961678        53.3800 
  59   0.0000       1.963512        53.4299 
  60   0.0000       1.963512        53.4299 
  61   0.0000       1.963512        53.4299 
  62   0.0000       1.993165        54.2368 
  63   0.0000       2.765837        75.2622 
  64   0.0000       2.765837        75.2622 
  65   0.0000       2.765837        75.2623 
  66   0.0000       2.952583        80.3439 
  67   0.0000       2.952583        80.3439 
  68   0.0000       2.998633        81.5969 
  69   0.0000       2.998633        81.5970 
  70   0.0000       2.998634        81.5970 
  71   0.0000       4.234289       115.2209 
  72   0.0000       4.234289       115.2209 
  73   0.0000       4.234290       115.2209 
  74   0.0000       4.252943       115.7285 
  75   0.0000       4.252943       115.7285 
  76   0.0000       4.252943       115.7285 
  77   0.0000       4.276552       116.3709 
  78   0.0000       4.976763       135.4246 
  79   0.0000       4.979956       135.5115 
  80   0.0000       4.979956       135.5115 
  81   0.0000       4.979956       135.5115 
  82   0.0000       4.982615       135.5839 
  83   0.0000       4.982615       135.5839 
  84   0.0000       4.989140       135.7614 
  85   0.0000       4.989140       135.7614 
  86   0.0000       4.989140       135.7614 
  87   0.0000       6.288726       171.1249 

                    ********************************
                    * MULLIKEN POPULATION ANALYSIS *
                    ********************************

--------------------------------------------
MULLIKEN ATOMIC CHARGES AND SPIN POPULATIONS
--------------------------------------------
   0 Ru:   -0.000000    4.000000
Sum of atomic charges         :   -0.0000000
Sum of atomic spin populations:    4.0000000

-----------------------------------------------------
MULLIKEN REDUCED ORBITAL CHARGES AND SPIN POPULATIONS
-----------------------------------------------------
CHARGE
  0 Rus       :     2.999904  s :     2.999904
      pz      :     1.999233  p :     5.997699
      px      :     1.999233
      py      :     1.999233
      dz2     :     1.249787  d :     6.999748
      dxz     :     1.374903
      dyz     :     1.625188
      dx2y2   :     1.047059
      dxy     :     1.702810
      f0      :     0.000049  f :     0.002301
      f+1     :     0.000421
      f-1     :     0.000512
      f+2     :     0.000046
      f-2     :     0.000674
      f+3     :     0.000176
      f-3     :     0.000423
      g0      :     0.000080  g :     0.000349
      g+1     :     0.000010
      g-1     :     0.000011
      g+2     :     0.000009
      g-2     :     0.000070
      g+3     :     0.000084
      g-3     :     0.000017
      g+4     :     0.000049
      g-4     :     0.000018

SPIN
  0 Rus       :     1.000014  s :     1.000014
      pz      :     0.000680  p :     0.002041
      px      :     0.000680
      py      :     0.000680
      dz2     :     0.750181  d :     3.000055
      dxz     :     0.625059
      dyz     :     0.374760
      dx2y2   :     0.952921
      dxy     :     0.297133
      f0      :    -0.000043  f :    -0.002041
      f+1     :    -0.000374
      f-1     :    -0.000454
      f+2     :    -0.000040
      f-2     :    -0.000598
      f+3     :    -0.000156
      f-3     :    -0.000375
      g0      :    -0.000024  g :    -0.000069
      g+1     :     0.000002
      g-1     :    -0.000001
      g+2     :     0.000004
      g-2     :    -0.000008
      g+3     :    -0.000030
      g-3     :    -0.000004
      g+4     :    -0.000009
      g-4     :    -0.000000


                     *******************************
                     * LOEWDIN POPULATION ANALYSIS *
                     *******************************

-------------------------------------------
LOEWDIN ATOMIC CHARGES AND SPIN POPULATIONS
-------------------------------------------
   0 Ru:   -0.000000    4.000000

----------------------------------------------------
LOEWDIN REDUCED ORBITAL CHARGES AND SPIN POPULATIONS
----------------------------------------------------
CHARGE
  0 Rus       :     2.999904  s :     2.999904
      pz      :     1.999233  p :     5.997699
      px      :     1.999233
      py      :     1.999233
      dz2     :     1.249787  d :     6.999748
      dxz     :     1.374903
      dyz     :     1.625188
      dx2y2   :     1.047059
      dxy     :     1.702810
      f0      :     0.000049  f :     0.002301
      f+1     :     0.000421
      f-1     :     0.000512
      f+2     :     0.000046
      f-2     :     0.000674
      f+3     :     0.000176
      f-3     :     0.000423
      g0      :     0.000080  g :     0.000349
      g+1     :     0.000010
      g-1     :     0.000011
      g+2     :     0.000009
      g-2     :     0.000070
      g+3     :     0.000084
      g-3     :     0.000017
      g+4     :     0.000049
      g-4     :     0.000018

SPIN
  0 Rus       :     1.000014  s :     1.000014
      pz      :     0.000680  p :     0.002041
      px      :     0.000680
      py      :     0.000680
      dz2     :     0.750181  d :     3.000055
      dxz     :     0.625059
      dyz     :     0.374760
      dx2y2   :     0.952921
      dxy     :     0.297133
      f0      :    -0.000043  f :    -0.002041
      f+1     :    -0.000374
      f-1     :    -0.000454
      f+2     :    -0.000040
      f-2     :    -0.000598
      f+3     :    -0.000156
      f-3     :    -0.000375
      g0      :    -0.000024  g :    -0.000069
      g+1     :     0.000002
      g-1     :    -0.000001
      g+2     :     0.000004
      g-2     :    -0.000008
      g+3     :    -0.000030
      g-3     :    -0.000004
      g+4     :    -0.000009
      g-4     :    -0.000000


                      *****************************
                      * MAYER POPULATION ANALYSIS *
                      *****************************

  NA   - Mulliken gross atomic population
  ZA   - Total nuclear charge
  QA   - Mulliken gross atomic charge
  VA   - Mayer's total valence
  BVA  - Mayer's bonded valence
  FA   - Mayer's free valence

  ATOM       NA         ZA         QA         VA         BVA        FA
  0 Ru    16.0000    16.0000    -0.0000     4.0094     0.0000     4.0094

  Mayer bond orders larger than 0.100000


-------
TIMINGS
-------

Total SCF time: 0 days 0 hours 1 min 19 sec 

Total time                  ....      79.292 sec
Sum of individual times     ....      67.450 sec  ( 85.1%)

Fock matrix formation       ....      58.770 sec  ( 74.1%)
Diagonalization             ....       0.702 sec  (  0.9%)
Density matrix formation    ....       0.068 sec  (  0.1%)
Population analysis         ....       0.072 sec  (  0.1%)
Initial guess               ....       6.147 sec  (  7.8%)
Orbital Transformation      ....       0.000 sec  (  0.0%)
Orbital Orthonormalization  ....       0.000 sec  (  0.0%)
DIIS solution               ....       1.621 sec  (  2.0%)


           ************************************************************
           *        Program running with 24 parallel MPI-processes    *
           *              working on a common directory               *
           ************************************************************


------------------------------------------------------------------------------- 
                              ORCA-MATRIX DRIVEN CI                            
------------------------------------------------------------------------------- 

--------------------------------
AUTOMATIC CHOICE OF INCORE LEVEL
--------------------------------

Memory available                           ...   2500.00 MB
Memory needed for S+T                      ...      7.66 MB
Memory needed for J+K                      ...     15.38 MB
Memory needed for DIIS                     ...    107.22 MB
Memory needed for 3-ext                    ...     36.21 MB
Memory needed for 4-ext                    ...    143.01 MB
Memory needed for triples                  ...     18.10 MB
 -> Final InCoreLevel    ... 5
 -> check shows that triples correction can be computed


Wavefunction type
-----------------
Correlation treatment                      ...      CCSD     
Single excitations                         ... ON
Orbital optimization                       ... OFF
Calculation of Z vector                    ... OFF
Calculation of Brueckner orbitals          ... OFF
Perturbative triple excitations            ... ON
Calculation of F12 correction              ... OFF
Frozen core treatment                      ... chemical core (0 el)
Reference Wavefunction                     ... UHF
  Alpha-MOs occ    :     0 ...    9 ( 10 MO's/ 10 electrons)
  Beta-MOs occ     :     0 ...    5 (  6 MO's/  6 electrons)
  Alpha-MOs virt   :    10 ...   87 ( 78 MO's              )
  Beta-MOs virt    :     6 ...   87 ( 82 MO's              )
Number of AO's                             ...     88
Number of electrons                        ...     16
Number of correlated electrons             ...     16

Algorithmic settings
--------------------
Integral transformation                    ... AO direct full transformation
K(C) Formation                             ... FULL-MO TRAFO
Maximum number of iterations               ...        50
Convergence tolerance (max. residuum)      ... 1.000e-05
Level shift for amplitude update           ... 2.000e-01
Maximum number of DIIS vectors             ...         7
DIIS turned on at iteration                ...         0
Damping before turning on DIIS             ...     0.500
Damping after turning on DIIS              ...     0.000
Pair specific amplitude update             ... OFF
Natural orbital iterations                 ... OFF
Perturbative natural orbital generation    ... OFF
Printlevel                                 ... 2

Memory handling:
----------------
Maximum memory for working arrays          ...   2500 MB
Data storage in matrix containers          ... UNCOMPRESSED
Data type for integral storage             ... DOUBLE
In-Core Storage of quantities:
   Amplitudes+Sigma Vector      ... YES
   J+K operators                ... YES
   DIIS vectors                 ... YES
   3-external integrals         ... YES
   4-external integrals         ... YES


Initializing the integral package          ... done
Warning: reference  - re-canonicalizations have been set to INT 1 VIRT 1

--------------------------
UNRESTRICTED FOCK OPERATOR
--------------------------

<ss|ss>:          231 b            0 skpd (  0.0%)    0.002 s ( 0.008 ms/b)
<ss|sp>:          756 b            0 skpd (  0.0%)    0.016 s ( 0.021 ms/b)
<ss|sd>:          630 b            0 skpd (  0.0%)    0.013 s ( 0.021 ms/b)
<ss|sf>:          378 b            0 skpd (  0.0%)    0.001 s ( 0.003 ms/b)
<ss|sg>:          252 b            0 skpd (  0.0%)    0.002 s ( 0.006 ms/b)
<ss|pp>:          441 b            0 skpd (  0.0%)    0.009 s ( 0.021 ms/b)
<ss|pd>:          630 b            0 skpd (  0.0%)    0.011 s ( 0.018 ms/b)
<ss|pf>:          378 b            0 skpd (  0.0%)    0.001 s ( 0.003 ms/b)
<ss|pg>:          252 b            0 skpd (  0.0%)    0.002 s ( 0.007 ms/b)
<ss|dd>:          315 b            0 skpd (  0.0%)    0.008 s ( 0.026 ms/b)
<ss|df>:          315 b            0 skpd (  0.0%)    0.002 s ( 0.005 ms/b)
<ss|dg>:          210 b            0 skpd (  0.0%)    0.003 s ( 0.012 ms/b)
<ss|ff>:          126 b            0 skpd (  0.0%)    0.000 s ( 0.003 ms/b)
<ss|fg>:          126 b            0 skpd (  0.0%)    0.001 s ( 0.005 ms/b)
<ss|gg>:           63 b            0 skpd (  0.0%)    0.001 s ( 0.014 ms/b)
<sp|sp>:          666 b            0 skpd (  0.0%)    0.011 s ( 0.016 ms/b)
<sp|sd>:         1080 b            0 skpd (  0.0%)    0.016 s ( 0.015 ms/b)
<sp|sf>:          648 b            0 skpd (  0.0%)    0.002 s ( 0.003 ms/b)
<sp|sg>:          432 b            0 skpd (  0.0%)    0.003 s ( 0.008 ms/b)
<sp|pp>:          756 b            0 skpd (  0.0%)    0.016 s ( 0.021 ms/b)
<sp|pd>:         1080 b            0 skpd (  0.0%)    0.022 s ( 0.020 ms/b)
<sp|pf>:          648 b            0 skpd (  0.0%)    0.004 s ( 0.006 ms/b)
<sp|pg>:          432 b            0 skpd (  0.0%)    0.005 s ( 0.012 ms/b)
<sp|dd>:          540 b            0 skpd (  0.0%)    0.024 s ( 0.045 ms/b)
<sp|df>:          540 b            0 skpd (  0.0%)    0.005 s ( 0.010 ms/b)
<sp|dg>:          360 b            0 skpd (  0.0%)    0.008 s ( 0.021 ms/b)
<sp|ff>:          216 b            0 skpd (  0.0%)    0.001 s ( 0.006 ms/b)
<sp|fg>:          216 b            0 skpd (  0.0%)    0.002 s ( 0.009 ms/b)
<sp|gg>:          108 b            0 skpd (  0.0%)    0.003 s ( 0.026 ms/b)
<sd|sd>:          465 b            0 skpd (  0.0%)    0.013 s ( 0.028 ms/b)
<sd|sf>:          540 b            0 skpd (  0.0%)    0.003 s ( 0.006 ms/b)
<sd|sg>:          360 b            0 skpd (  0.0%)    0.005 s ( 0.013 ms/b)
<sd|pp>:          630 b            0 skpd (  0.0%)    0.017 s ( 0.027 ms/b)
<sd|pd>:          900 b            1 skpd (  0.1%)    0.029 s ( 0.032 ms/b)
<sd|pf>:          540 b            0 skpd (  0.0%)    0.005 s ( 0.010 ms/b)
<sd|pg>:          360 b            0 skpd (  0.0%)    0.010 s ( 0.027 ms/b)
<sd|dd>:          450 b            0 skpd (  0.0%)    0.038 s ( 0.083 ms/b)
<sd|df>:          450 b            4 skpd (  0.9%)    0.010 s ( 0.022 ms/b)
<sd|dg>:          300 b            0 skpd (  0.0%)    0.015 s ( 0.050 ms/b)
<sd|ff>:          180 b            0 skpd (  0.0%)    0.003 s ( 0.015 ms/b)
<sd|fg>:          180 b            0 skpd (  0.0%)    0.004 s ( 0.022 ms/b)
<sd|gg>:           90 b            0 skpd (  0.0%)    0.006 s ( 0.063 ms/b)
<sf|sf>:          171 b            0 skpd (  0.0%)    0.001 s ( 0.005 ms/b)
<sf|sg>:          216 b            0 skpd (  0.0%)    0.001 s ( 0.006 ms/b)
<sf|pp>:          378 b            0 skpd (  0.0%)    0.004 s ( 0.011 ms/b)
<sf|pd>:          540 b            0 skpd (  0.0%)    0.008 s ( 0.014 ms/b)
<sf|pf>:          324 b            0 skpd (  0.0%)    0.002 s ( 0.005 ms/b)
<sf|pg>:          216 b            0 skpd (  0.0%)    0.003 s ( 0.015 ms/b)
<sf|dd>:          270 b            0 skpd (  0.0%)    0.011 s ( 0.042 ms/b)
<sf|df>:          270 b            0 skpd (  0.0%)    0.003 s ( 0.012 ms/b)
<sf|dg>:          180 b            0 skpd (  0.0%)    0.005 s ( 0.028 ms/b)
<sf|ff>:          108 b            0 skpd (  0.0%)    0.001 s ( 0.011 ms/b)
<sf|fg>:          108 b            0 skpd (  0.0%)    0.002 s ( 0.015 ms/b)
<sf|gg>:           54 b            0 skpd (  0.0%)    0.002 s ( 0.042 ms/b)
<sg|sg>:           78 b            0 skpd (  0.0%)    0.002 s ( 0.024 ms/b)
<sg|pp>:          252 b            0 skpd (  0.0%)    0.006 s ( 0.022 ms/b)
<sg|pd>:          360 b            0 skpd (  0.0%)    0.010 s ( 0.029 ms/b)
<sg|pf>:          216 b            0 skpd (  0.0%)    0.002 s ( 0.010 ms/b)
<sg|pg>:          144 b            0 skpd (  0.0%)    0.004 s ( 0.031 ms/b)
<sg|dd>:          180 b            0 skpd (  0.0%)    0.015 s ( 0.082 ms/b)
<sg|df>:          180 b            0 skpd (  0.0%)    0.004 s ( 0.025 ms/b)
<sg|dg>:          120 b            0 skpd (  0.0%)    0.007 s ( 0.060 ms/b)
<sg|ff>:           72 b            0 skpd (  0.0%)    0.001 s ( 0.018 ms/b)
<sg|fg>:           72 b            0 skpd (  0.0%)    0.002 s ( 0.029 ms/b)
<sg|gg>:           36 b            0 skpd (  0.0%)    0.003 s ( 0.089 ms/b)
<pp|pp>:          231 b            0 skpd (  0.0%)    0.014 s ( 0.060 ms/b)
<pp|pd>:          630 b            0 skpd (  0.0%)    0.025 s ( 0.040 ms/b)
<pp|pf>:          378 b            0 skpd (  0.0%)    0.005 s ( 0.013 ms/b)
<pp|pg>:          252 b            0 skpd (  0.0%)    0.008 s ( 0.033 ms/b)
<pp|dd>:          315 b            0 skpd (  0.0%)    0.032 s ( 0.103 ms/b)
<pp|df>:          315 b            0 skpd (  0.0%)    0.008 s ( 0.027 ms/b)
<pp|dg>:          210 b            0 skpd (  0.0%)    0.013 s ( 0.063 ms/b)
<pp|ff>:          126 b            0 skpd (  0.0%)    0.002 s ( 0.019 ms/b)
<pp|fg>:          126 b            0 skpd (  0.0%)    0.003 s ( 0.027 ms/b)
<pp|gg>:           63 b            0 skpd (  0.0%)    0.005 s ( 0.081 ms/b)
<pd|pd>:          465 b            0 skpd (  0.0%)    0.050 s ( 0.107 ms/b)
<pd|pf>:          540 b            0 skpd (  0.0%)    0.012 s ( 0.022 ms/b)
<pd|pg>:          360 b            0 skpd (  0.0%)    0.022 s ( 0.062 ms/b)
<pd|dd>:          450 b            0 skpd (  0.0%)    0.081 s ( 0.181 ms/b)
<pd|df>:          450 b            0 skpd (  0.0%)    0.023 s ( 0.052 ms/b)
<pd|dg>:          300 b            0 skpd (  0.0%)    0.036 s ( 0.120 ms/b)
<pd|ff>:          180 b            0 skpd (  0.0%)    0.007 s ( 0.037 ms/b)
<pd|fg>:          180 b            0 skpd (  0.0%)    0.010 s ( 0.053 ms/b)
<pd|gg>:           90 b            0 skpd (  0.0%)    0.015 s ( 0.165 ms/b)
<pf|pf>:          171 b            0 skpd (  0.0%)    0.003 s ( 0.020 ms/b)
<pf|pg>:          216 b            0 skpd (  0.0%)    0.007 s ( 0.032 ms/b)
<pf|dd>:          270 b            0 skpd (  0.0%)    0.021 s ( 0.077 ms/b)
<pf|df>:          270 b            0 skpd (  0.0%)    0.006 s ( 0.024 ms/b)
<pf|dg>:          180 b            0 skpd (  0.0%)    0.010 s ( 0.058 ms/b)
<pf|ff>:          108 b            0 skpd (  0.0%)    0.003 s ( 0.024 ms/b)
<pf|fg>:          108 b            0 skpd (  0.0%)    0.004 s ( 0.035 ms/b)
<pf|gg>:           54 b            0 skpd (  0.0%)    0.005 s ( 0.095 ms/b)
<pg|pg>:           78 b            0 skpd (  0.0%)    0.008 s ( 0.107 ms/b)
<pg|dd>:          180 b            0 skpd (  0.0%)    0.029 s ( 0.161 ms/b)
<pg|df>:          180 b            0 skpd (  0.0%)    0.008 s ( 0.046 ms/b)
<pg|dg>:          120 b            0 skpd (  0.0%)    0.013 s ( 0.110 ms/b)
<pg|ff>:           72 b            0 skpd (  0.0%)    0.003 s ( 0.036 ms/b)
<pg|fg>:           72 b            0 skpd (  0.0%)    0.004 s ( 0.058 ms/b)
<pg|gg>:           36 b            0 skpd (  0.0%)    0.006 s ( 0.179 ms/b)
<dd|dd>:          120 b            0 skpd (  0.0%)    0.070 s ( 0.586 ms/b)
<dd|df>:          225 b            0 skpd (  0.0%)    0.021 s ( 0.094 ms/b)
<dd|dg>:          150 b            0 skpd (  0.0%)    0.033 s ( 0.222 ms/b)
<dd|ff>:           90 b            0 skpd (  0.0%)    0.006 s ( 0.066 ms/b)
<dd|fg>:           90 b            0 skpd (  0.0%)    0.009 s ( 0.100 ms/b)
<dd|gg>:           45 b            0 skpd (  0.0%)    0.013 s ( 0.293 ms/b)
<df|df>:          120 b            0 skpd (  0.0%)    0.009 s ( 0.074 ms/b)
<df|dg>:          150 b            0 skpd (  0.0%)    0.014 s ( 0.094 ms/b)
<df|ff>:           90 b            0 skpd (  0.0%)    0.004 s ( 0.042 ms/b)
<df|fg>:           90 b            0 skpd (  0.0%)    0.005 s ( 0.057 ms/b)
<df|gg>:           45 b            0 skpd (  0.0%)    0.007 s ( 0.163 ms/b)
<dg|dg>:           55 b            0 skpd (  0.0%)    0.016 s ( 0.298 ms/b)
<dg|ff>:           60 b            0 skpd (  0.0%)    0.004 s ( 0.058 ms/b)
<dg|fg>:           60 b            0 skpd (  0.0%)    0.005 s ( 0.090 ms/b)
<dg|gg>:           30 b            0 skpd (  0.0%)    0.009 s ( 0.285 ms/b)
<ff|ff>:           21 b            0 skpd (  0.0%)    0.001 s ( 0.051 ms/b)
<ff|fg>:           36 b            0 skpd (  0.0%)    0.002 s ( 0.054 ms/b)
<ff|gg>:           18 b            0 skpd (  0.0%)    0.003 s ( 0.157 ms/b)
<fg|fg>:           21 b            0 skpd (  0.0%)    0.003 s ( 0.130 ms/b)
<fg|gg>:           18 b            0 skpd (  0.0%)    0.005 s ( 0.276 ms/b)
<gg|gg>:            6 b            0 skpd (  0.0%)    0.004 s ( 0.583 ms/b)
Recanonicalizing the internal orbitals
Recanonicalizing the virtual orbitals
Time needed for Fock operator              ...            1.255 sec
Reference energy                           ...    -93.815772456
Warning: for UHF the TrafoType has to be JK
Warning: for UHF the K(C)-option cannot be MO but must be AOX

-------------------------------
PARTIAL EXCHANGE TRANSFORMATION
-------------------------------

Transformation type                        ... two-operators
Generation of integrals (i,mue|j,nue)      ... ON
Generation of integrals (mue,kappa|nue,tau)... ON
Generation of integrals (i,mue|a,nue)      ... ON
Dimension of the basis                     ...   88
Number of internal alpha-MOs               ...   10 (   0-   9)
Number of internal beta-MOs                ...    6 (   0-   5)
Number of external alpha-MOs               ...   78 (  10-  87)
Number of external beta-MOs                ...   82 (   6-  87)
Pair cutoff                                ... 0.000e+00 Eh
Number of AO pairs in the trafo            ... 3916
Total Number of distinct AO pairs          ... 3916
Memory devoted for trafo                   ... 2500.0 MB 
Max. Number of MO pairs treated together   ... 42314      
Number Format for Storage                  ... Double (8 Byte)
Integral package used                      ... LIBINT

Starting integral evaluation:
    ... done with AO integral generation
Closing buffer AOK[aa] ( 0.00 GB; CompressionRatio= 0.00)
Closing buffer AOK[bb] ( 0.00 GB; CompressionRatio= 0.00)
Closing buffer AOK[ab] ( 0.00 GB; CompressionRatio= 0.00)
Closing buffer AOK[ba] ( 0.00 GB; CompressionRatio= 0.00)
Collecting buffer AOK 
Closing buffer IAAO1[aa] ( 0.00 GB; CompressionRatio= 0.00)
Closing buffer IAAO1[bb] ( 0.00 GB; CompressionRatio= 0.00)
Closing buffer IAAO1[ab] ( 0.00 GB; CompressionRatio= 0.00)
Closing buffer IAAO1[ba] ( 0.00 GB; CompressionRatio= 0.00)
Closing buffer IAAO2[aa] ( 0.00 GB; CompressionRatio= 0.00)
Closing buffer IAAO2[bb] ( 0.00 GB; CompressionRatio= 0.00)
Closing buffer IAAO2[ab] ( 0.00 GB; CompressionRatio= 0.00)
Closing buffer IAAO2[ba] ( 0.00 GB; CompressionRatio= 0.00)
Collecting buffer IAAO 
Closing buffer PRQS    ( 0.00 GB; CompressionRatio= 0.00)
Collecting buffer PRQS 
Number of alpha/alpha MO pairs in trafo    ...   55
Number of beta /beta  MO pairs in trafo    ...   21
Number of alpha/ beta MO pairs in trafo    ...   60
------------------------
SORTING OF (i,mue|j,nue)
------------------------

SORTING OF ALPHA/ALPHA PAIRS
IBATCH = 1 of  1
Closing buffer KAO[aa] ( 0.00 GB; CompressionRatio= 1.00)
Collecting buffer KAO 
SORTING OF BETA /BETA  PAIRS
IBATCH = 1 of  1
Closing buffer KAO[bb] ( 0.00 GB; CompressionRatio= 1.00)
Collecting buffer KAO 
SORTING OF ALPHA/BETA  PAIRS
IBATCH = 1 of  1
Closing buffer KAO[ab] ( 0.00 GB; CompressionRatio= 0.999806339165)
Collecting buffer KAO[ab] 
------------------------
SORTING OF (i,mue|a,nue)
------------------------

Number of alpha/alpha (i,a) pairs in trafo  ...  780
Number of beta /beta  (i,a) pairs in trafo  ...  492
Number of alpha/ beta (i,a) pairs in trafo  ...  820
Number of beta /alpha (i,a) pairs in trafo  ...  468
Setting up the alpha/alpha list             ... done
Setting up the beta /beta  list             ... done
Setting up the alpha/beta  list             ... done
Setting up the beta /alpha list             ... done
    ... Now sorting (i,mue|a,nue)integrals
    ... Integrals (i,b|a,c) will be made on the fly
SORTING OF ALPHA/ALPHA PAIRS
IBATCH = 1 of  1
Closing buffer IPAQ[aa]  0.00 GB; CompressionRatio= 1.00)
SORTING OF BETA /BETA  PAIRS
IBATCH = 1 of  1
Closing buffer IPAQ[bb]( 0.00 GB; CompressionRatio= 1.00)
SORTING OF ALPHA/BETA  PAIRS (NMatSort_ab=35)
IBATCH = 1 of  1
Closing buffer IPAQ[ab]( 0.00 GB; CompressionRatio= 1.00)
SORTING OF BETA/ALPHA  PAIRS
IBATCH = 1 of  1
Closing buffer IPAQ[ba]( 0.00 GB; CompressionRatio= 1.00)
N(AO-Batches) Done                         ...         0 
N(AO-Batches) Skipped                      ...         0 
N(IJ)-pairs Skipped                        ...         0 
TOTAL TIME for half transformation         ...     8.078 sec
AO-integral generation                     ...     0.000 sec
Half transformation                        ...     0.000 sec
K-integral sorting                         ...     1.393 sec
<ss|**>: 
------------------------------
PARTIAL COULOMB TRANSFORMATION
------------------------------

Transformation type                        ... two-operators
Dimension of the basis                     ...   88
Number of internal alpha-MOs               ...   10 (0-9)
Number of internal beta-MOs                ...    6 (0-5)
Pair cutoff                                ... 0.000e+00 Eh
Number of AO pairs included in the trafo   ... 3916
Total Number of distinct AO pairs          ... 3916
Memory devoted for trafo                   ... 2500.0 MB 
Max. Number of MO pairs treated together   ... 83677      
Max. Number of MOs treated per batch       ...  950      
Number Format for Storage                  ... Double (8 Byte)
AO-integral source                         ... DIRECT
Integral package used                      ... LIBINT

Starting integral evaluation:
<sp|**>:         5313 b        0 skpd     0.053 s (  0.010 ms/b)
<sd|**>:         9108 b        0 skpd     0.157 s (  0.017 ms/b)
<sf|**>:         7590 b        0 skpd     0.166 s (  0.022 ms/b)
        4554 b        0 skpd     0.049 s (  0.011 ms/b)
<sg|**>:         3036 b        0 skpd     0.083 s (  0.027 ms/b)
<pp|**>:         5313 b        0 skpd     0.155 s (  0.029 ms/b)
<pd|**>:         7590 b        0 skpd     0.326 s (  0.043 ms/b)
<pf|**>:         4554 b        0 skpd     0.102 s (  0.022 ms/b)
<pg|**>:         3036 b        0 skpd     0.160 s (  0.053 ms/b)
<dd|**>:         3795 b        0 skpd     0.436 s (  0.115 ms/b)
<df|**>:         3795 b        0 skpd     0.166 s (  0.044 ms/b)
<dg|**>:         2530 b        0 skpd     0.237 s (  0.094 ms/b)
<ff|**>:         1518 b        0 skpd     0.091 s (  0.060 ms/b)
<fg|**>:         1518 b        0 skpd     0.127 s (  0.083 ms/b)
<gg|**>:          759 b        0 skpd     0.141 s (  0.186 ms/b)
Closing buffer AOJ[aa] ( 0.00 GB; CompressionRatio= 0.97)
Closing buffer AOJ[bb] ( 0.00 GB; CompressionRatio= 0.00)
Collecting buffer AOJ 
    ... done with AO integral generation
Number of Alpha-MO pairs included          ...   55
Number of Beta-MO pairs included           ...   21
    ... Now sorting integrals
SORTING ALPHA/ALPHA PAIRS
IBATCH = 1 of  1
Closing buffer JAO[aa] ( 0.00 GB; CompressionRatio= 1.00)
SORTING BETA/BETA PAIRS
IBATCH = 1 of  1
Closing buffer JAO[bb] ( 0.00 GB; CompressionRatio= 1.00)
Collecting buffer JAO 
TOTAL TIME for half transformation         ...     2.716 sec
AO-integral generation                     ...     2.297 sec
Half transformation                        ...     0.160 sec
J-integral sorting                         ...     0.119 sec

-------------------------- SECOND HALF TRANSFORMATION -------------------------
Formation of (ij|kl),(ij|ka), (ij|ab)      ... ok (     0.198 sec)
Formation of (ik|jl),(ik|ja), (ia|jb)      ... ok (     0.260 sec)


-----------------------
SPIN UNRESTRICTED GUESS
-----------------------

Entering MDCI_UHF_Guess, Tailored=0
Spin-components of the MP2 energy:
EMP2(aa)=     -0.125011591
EMP2(bb)=     -0.043991252
EMP2(ab)=     -0.340979952

Initial guess performed in     0.021 sec
E(0)                                       ...    -93.815772456
E(MP2)                                     ...     -0.509982795
Initial E(tot)                             ...    -94.325755251
<T|T>                                      ...      0.110852375
Number of pairs included                   ... 120

------------------------------------------------
                  UHF COUPLED CLUSTER ITERATIONS
------------------------------------------------

Number of amplitudes to be optimized       ...       571716

Iter       E(tot)           E(Corr)          Delta-E          Residual     Time      <S|S>**1/2
  0    -94.325755251     -0.509982795     -0.000000000      0.026315324    1.72      0.000000875
                           *** Turning on DIIS ***
  1    -94.313327662     -0.497555206      0.012427590      0.008945289    1.73      0.035538930
  2    -94.321708572     -0.505936116     -0.008380911      0.005472835    1.72      0.045488392
  3    -94.322951844     -0.507179388     -0.001243272      0.002790248    1.73      0.055784118
  4    -94.323547235     -0.507774779     -0.000595391      0.000928641    1.74      0.062561159
  5    -94.323740610     -0.507968154     -0.000193375      0.000287044    1.75      0.066162002
  6    -94.323764342     -0.507991886     -0.000023732      0.000074537    1.75      0.067035854
  7    -94.323769295     -0.507996839     -0.000004953      0.000016594    1.75      0.067247025
  8    -94.323769605     -0.507997149     -0.000000309      0.000006303    1.77      0.067279893
               --- The Coupled-Cluster iterations have converged ---

----------------------
COUPLED CLUSTER ENERGY
----------------------

E(0)                                       ...    -93.815772456
E(CORR)                                    ...     -0.507997149
E(TOT)                                     ...    -94.323769605
Singles norm <S|S>**1/2                    ...      0.067279893 ( 0.049747839, 0.017532053)  
T1 diagnostic                              ...      0.016819973                              

------------------
LARGEST AMPLITUDES
------------------
   9a-> 30a  -1a-> -1a       0.056040
   9a-> 13a  -1a-> -1a       0.045290
   4b-> 22b  -1b-> -1b       0.022736
   5b-> 23b  -1b-> -1b       0.022736
   8a-> 45a   5b-> 42b       0.020843
   7a-> 44a   4b-> 41b       0.020843
   7a-> 51a   4b-> 47b       0.018914
   9a-> 15a   4b-> 26b       0.018238
   4b-> 41b  -1b-> -1b       0.017926
   5b-> 42b  -1b-> -1b       0.017926
   9a-> 23a   4b-> 26b       0.017512
   9a-> 16a   5b-> 24b       0.016317
   5a-> 42a   5b-> 42b       0.016221
   4a-> 41a   4b-> 41b       0.015872
   9a-> 14a   5b-> 25b       0.015804
   6a-> 43a   4b-> 41b       0.015564

----------------------
UHF TRIPLES CORRECTION (Algorithm 1)
----------------------

Multiplier for the singles contribution    ...      1.000000000

SPIN-CASE Alpha-Alpha-Alpha:
10% done
20% done
30% done
40% done
50% done
60% done
70% done
80% done
90% done


SPIN-CASE Beta-Beta-Beta:
10% done
20% done
30% done
40% done
50% done
60% done
70% done
80% done
90% done


SPIN-CASE Alpha-Alpha-Beta:
10% done
20% done
30% done
40% done
50% done
60% done
70% done
80% done
90% done


SPIN-CASE Beta-Beta-Alpha:
10% done
20% done
30% done
40% done
50% done
60% done
70% done
80% done
90% done


Triples Correction (T)                     ...     -0.017860735
    alpha-alpha-alpha ... -0.001988180 ( 11.1%)
    alpha-alpha-beta  ... -0.010888945 ( 61.0%)
    alpha-beta -beta  ... -0.004787060 ( 26.8%)
    beta -beta -beta  ... -0.000196551 (  1.1%)
Scaling of triples based on CCSD energies (Peterson et al. Molecular Physics 113, 1551 (2015))
E(T*) = f*E(T) where f = E(F12-CCSD)/E(CCSD) 
f = CCSD (with F12)/ CCSD (without F12)    ...      1.000000000
Scaled triples correction (T)              ...     -0.017860735

Final correlation energy                   ...     -0.525857884
E(CCSD)                                    ...    -94.323769605
E(CCSD(T))                                 ...    -94.341630340



        !!!!!!!!!!!!!!!!!!!!!!!!!!!!!!!!!!!!!!!!!!!!!!!!!!!!!!!!!!!!!!!!!!!!!!!!!! 
        !  Warning: Densities are linearized densities                           !
        !!!!!!!!!!!!!!!!!!!!!!!!!!!!!!!!!!!!!!!!!!!!!!!!!!!!!!!!!!!!!!!!!!!!!!!!!! 

NORM  =      1.120264023 sqrt=     1.058425256
W(HF) =      0.892646715
------------------------------------------------------------------------------
                           ORCA POPULATION ANALYSIS
------------------------------------------------------------------------------
Input electron density              ... 44_Ru.mdcip
Input spin density                  ... 44_Ru.mdcir
BaseName (.gbw .S,...)              ... 44_Ru

                    ********************************
                    * MULLIKEN POPULATION ANALYSIS *
                    ********************************

------------------------------------------
MULLIKEN ATOMIC CHARGES AND SPIN DENSITIES
------------------------------------------
   0 Ru:   -0.000000    4.000000
Sum of atomic charges       :   -0.0000000
Sum of atomic spin densities:    4.0000000

---------------------------------------------------
MULLIKEN REDUCED ORBITAL CHARGES AND SPIN DENSITIES
---------------------------------------------------
CHARGE
  0 Rus       :     2.978552  s :     2.978552
      pz      :     1.997719  p :     5.993157
      px      :     1.997719
      py      :     1.997719
      dz2     :     1.241581  d :     6.938399
      dxz     :     1.363309
      dyz     :     1.606834
      dx2y2   :     1.044323
      dxy     :     1.682352
      f0      :     0.010965  f :     0.080159
      f+1     :     0.011152
      f-1     :     0.011774
      f+2     :     0.010958
      f-2     :     0.012782
      f+3     :     0.011202
      f-3     :     0.011326
      g0      :     0.001077  g :     0.009732
      g+1     :     0.001042
      g-1     :     0.001091
      g+2     :     0.001030
      g-2     :     0.001117
      g+3     :     0.001146
      g-3     :     0.001118
      g+4     :     0.001056
      g-4     :     0.001056

SPIN
  0 Rus       :     0.982248  s :     0.982248
      pz      :     0.010841  p :     0.032523
      px      :     0.010841
      py      :     0.010841
      dz2     :     0.737807  d :     2.956198
      dxz     :     0.615689
      dyz     :     0.371382
      dx2y2   :     0.935699
      dxy     :     0.295621
      f0      :     0.004227  f :     0.025659
      f+1     :     0.003955
      f-1     :     0.003293
      f+2     :     0.004236
      f-2     :     0.002218
      f+3     :     0.003956
      f-3     :     0.003775
      g0      :     0.000406  g :     0.003372
      g+1     :     0.000396
      g-1     :     0.000369
      g+2     :     0.000397
      g-2     :     0.000303
      g+3     :     0.000374
      g-3     :     0.000357
      g+4     :     0.000386
      g-4     :     0.000385


                     *******************************
                     * LOEWDIN POPULATION ANALYSIS *
                     *******************************

-----------------------------------------
LOEWDIN ATOMIC CHARGES AND SPIN DENSITIES
-----------------------------------------
   0 Ru:   -0.000000    4.000000

--------------------------------------------------
LOEWDIN REDUCED ORBITAL CHARGES AND SPIN DENSITIES
--------------------------------------------------
CHARGE
  0 Rus       :     2.978552  s :     2.978552
      pz      :     1.997719  p :     5.993157
      px      :     1.997719
      py      :     1.997719
      dz2     :     1.241581  d :     6.938399
      dxz     :     1.363309
      dyz     :     1.606834
      dx2y2   :     1.044323
      dxy     :     1.682352
      f0      :     0.010965  f :     0.080159
      f+1     :     0.011152
      f-1     :     0.011774
      f+2     :     0.010958
      f-2     :     0.012782
      f+3     :     0.011202
      f-3     :     0.011326
      g0      :     0.001077  g :     0.009732
      g+1     :     0.001042
      g-1     :     0.001091
      g+2     :     0.001030
      g-2     :     0.001117
      g+3     :     0.001146
      g-3     :     0.001118
      g+4     :     0.001056
      g-4     :     0.001056

SPIN
  0 Rus       :     0.982248  s :     0.982248
      pz      :     0.010841  p :     0.032523
      px      :     0.010841
      py      :     0.010841
      dz2     :     0.737807  d :     2.956198
      dxz     :     0.615689
      dyz     :     0.371382
      dx2y2   :     0.935699
      dxy     :     0.295621
      f0      :     0.004227  f :     0.025659
      f+1     :     0.003955
      f-1     :     0.003293
      f+2     :     0.004236
      f-2     :     0.002218
      f+3     :     0.003956
      f-3     :     0.003775
      g0      :     0.000406  g :     0.003372
      g+1     :     0.000396
      g-1     :     0.000369
      g+2     :     0.000397
      g-2     :     0.000303
      g+3     :     0.000374
      g-3     :     0.000357
      g+4     :     0.000386
      g-4     :     0.000385


                      *****************************
                      * MAYER POPULATION ANALYSIS *
                      *****************************

  NA   - Mulliken gross atomic population
  ZA   - Total nuclear charge
  QA   - Mulliken gross atomic charge
  VA   - Mayer's total valence
  BVA  - Mayer's bonded valence
  FA   - Mayer's free valence

  ATOM       NA         ZA         QA         VA         BVA        FA
  0 Ru    16.0000    16.0000    -0.0000     4.7074     0.0000     4.7074





------------------------------------------------------------------------------- 
                                     TIMINGS                                   
------------------------------------------------------------------------------- 


Total execution time                   ...       29.864 sec

Fock Matrix Formation                  ...        1.255 sec (  4.2%)
Initial Guess                          ...        0.021 sec (  0.1%)
DIIS Solver                            ...        0.370 sec (  1.2%)
State Vector Update                    ...        0.019 sec (  0.1%)
Sigma-vector construction              ...       15.263 sec ( 51.1%)
  <0|H|D>                              ...        0.001 sec (  0.0% of sigma)
  <D|H|D>(0-ext Fock)                  ...        0.008 sec (  0.0% of sigma)
  <D|H|D>(0-ext)                       ...        0.026 sec (  0.2% of sigma)
  <D|H|D>(2-ext Fock)                  ...        0.004 sec (  0.0% of sigma)
  <D|H|D>(2-ext)                       ...        0.096 sec (  0.6% of sigma)
  <D|H|D>(4-ext)                       ...        3.476 sec ( 22.8% of sigma)
  <S|H|0>                              ...        0.151 sec (  1.0% of sigma)
  <S|H|D>(1-ext)                       ...        0.002 sec (  0.0% of sigma)
  <D|H|S>(1-ext)                       ...        0.036 sec (  0.2% of sigma)
  Fock-dressing                        ...       10.092 sec ( 66.1% of sigma)
  (ik|jl)-dressing                     ...        0.033 sec (  0.2% of sigma)
  (ij|ab),(ia|jb)-dressing             ...        1.056 sec (  6.9% of sigma)
  Pair energies                        ...        0.002 sec (  0.0% of sigma)
Total Time for computing (T)           ...        0.963 sec (  3.2% of ALL)
  I/O of integral and amplitudes       ...        0.203 sec ( 21.1% of (T))
  External N**7 contributions          ...        0.248 sec ( 25.8% of (T))
  Internal N**7 contributions          ...        0.133 sec ( 13.8% of (T))
  N**6 triples energy contributions    ...        0.344 sec ( 35.7% of (T))


-------------------------   --------------------
FINAL SINGLE POINT ENERGY       -94.341630340066
-------------------------   --------------------


                            ***************************************
                            *     ORCA property calculations      *
                            ***************************************

                                    ---------------------
                                    Active property flags
                                    ---------------------
   (+) Dipole Moment


------------------------------------------------------------------------------
                       ORCA ELECTRIC PROPERTIES CALCULATION
------------------------------------------------------------------------------

Dipole Moment Calculation                       ... on
Quadrupole Moment Calculation                   ... off
Polarizability Calculation                      ... off
GBWName                                         ... 44_Ru.gbw
Electron density file                           ... 44_Ru.scfp
The origin for moment calculation is the CENTER OF MASS  = ( 0.000000,  0.000000  0.000000)

-------------
DIPOLE MOMENT
-------------
                                X             Y             Z
Electronic contribution:      0.00000      -0.00000       0.00000
Nuclear contribution   :      0.00000       0.00000       0.00000
                        -----------------------------------------
Total Dipole Moment    :      0.00000      -0.00000       0.00000
                        -----------------------------------------
Magnitude (a.u.)       :      0.00000
Magnitude (Debye)      :      0.00000



--------------------
Rotational spectrum 
--------------------
 
Rotational constants in cm-1:     0.000000     0.000000     0.000000 
Rotational constants in MHz :     0.000000     0.000000     0.000000 

 Dipole components along the rotational axes: 
x,y,z [a.u.] :     0.000000    -0.000000     0.000000 
x,y,z [Debye]:     0.000000    -0.000000     0.000000 

 

                           *** MDCI DENSITY ***

------------------------------------------------------------------------------
                       ORCA ELECTRIC PROPERTIES CALCULATION
------------------------------------------------------------------------------

Dipole Moment Calculation                       ... on
Quadrupole Moment Calculation                   ... off
Polarizability Calculation                      ... off
GBWName                                         ... 44_Ru.gbw
Electron density file                           ... 44_Ru.mdcip
The origin for moment calculation is the CENTER OF MASS  = ( 0.000000,  0.000000  0.000000)

-------------
DIPOLE MOMENT
-------------
                                X             Y             Z
Electronic contribution:      0.00000      -0.00000       0.00000
Nuclear contribution   :      0.00000       0.00000       0.00000
                        -----------------------------------------
Total Dipole Moment    :      0.00000      -0.00000       0.00000
                        -----------------------------------------
Magnitude (a.u.)       :      0.00000
Magnitude (Debye)      :      0.00000



--------------------
Rotational spectrum 
--------------------
 
Rotational constants in cm-1:     0.000000     0.000000     0.000000 
Rotational constants in MHz :     0.000000     0.000000     0.000000 

 Dipole components along the rotational axes: 
x,y,z [a.u.] :     0.000000    -0.000000     0.000000 
x,y,z [Debye]:     0.000000    -0.000000     0.000000 

 

Timings for individual modules:

Sum of individual times         ...      111.362 sec (=   1.856 min)
GTO integral calculation        ...        1.003 sec (=   0.017 min)   0.9 %
SCF iterations                  ...       79.713 sec (=   1.329 min)  71.6 %
MDCI module                     ...       30.646 sec (=   0.511 min)  27.5 %
                             ****ORCA TERMINATED NORMALLY****
TOTAL RUN TIME: 0 days 0 hours 1 minutes 52 seconds 120 msec
