
                                 *****************
                                 * O   R   C   A *
                                 *****************

           --- An Ab Initio, DFT and Semiempirical electronic structure package ---

                  #######################################################
                  #                        -***-                        #
                  #          Department of theory and spectroscopy      #
                  #               Directorship: Frank Neese             #
                  #        Max Planck Institute fuer Kohlenforschung    #
                  #                Kaiser Wilhelm Platz 1               #
                  #                 D-45470 Muelheim/Ruhr               #
                  #                      Germany                        #
                  #                                                     #
                  #                  All rights reserved                #
                  #                        -***-                        #
                  #######################################################


                         Program Version 4.2.0 -  RELEASE  -


 With contributions from (in alphabetic order):
   Daniel Aravena         : Magnetic Suceptibility
   Michael Atanasov       : Ab Initio Ligand Field Theory (pilot matlab implementation)
   Alexander A. Auer      : GIAO ZORA, VPT2
   Ute Becker             : Parallelization
   Giovanni Bistoni       : ED, misc. LED, open-shell LED, HFLED
   Martin Brehm           : Molecular dynamics
   Dmytro Bykov           : SCF Hessian
   Vijay G. Chilkuri      : MRCI spin determinant printing, contributions to CSF-ICE
   Dipayan Datta          : RHF DLPNO-CCSD density
   Achintya Kumar Dutta   : EOM-CC, STEOM-CC
   Dmitry Ganyushin       : Spin-Orbit,Spin-Spin,Magnetic field MRCI
   Miquel Garcia          : C-PCM Hessian, Gaussian charge scheme
   Yang Guo               : DLPNO-NEVPT2, CIM, IAO-localization
   Andreas Hansen         : Spin unrestricted coupled pair/coupled cluster methods
   Benjamin Helmich-Paris : CASSCF linear response (MC-RPA)
   Lee Huntington         : MR-EOM, pCC
   Robert Izsak           : Overlap fitted RIJCOSX, COSX-SCS-MP3, EOM
   Christian Kollmar      : KDIIS, OOCD, Brueckner-CCSD(T), CCSD density
   Simone Kossmann        : Meta GGA functionals, TD-DFT gradient, OOMP2, MP2 Hessian
   Martin Krupicka        : AUTO-CI
   Lucas Lang             : DCDCAS
   Dagmar Lenk            : GEPOL surface, SMD
   Dimitrios Liakos       : Extrapolation schemes; Compound Job, initial MDCI parallelization
   Dimitrios Manganas     : Further ROCIS development; embedding schemes
   Dimitrios Pantazis     : SARC Basis sets
   Taras Petrenko         : DFT Hessian,TD-DFT gradient, ASA, ECA, R-Raman, ABS, FL, XAS/XES, NRVS
   Peter Pinski           : DLPNO-MP2, DLPNO-MP2 Gradient
   Christoph Reimann      : Effective Core Potentials
   Marius Retegan         : Local ZFS, SOC
   Christoph Riplinger    : Optimizer, TS searches, QM/MM, DLPNO-CCSD(T), (RO)-DLPNO pert. Triples
   Tobias Risthaus        : Range-separated hybrids, TD-DFT gradient, RPA, STAB
   Michael Roemelt        : Original ROCIS implementation
   Masaaki Saitow         : Open-shell DLPNO-CCSD energy and density
   Barbara Sandhoefer     : DKH picture change effects
   Avijit Sen             : IP-ROCIS
   Kantharuban Sivalingam : CASSCF convergence, NEVPT2, FIC-MRCI
   Bernardo de Souza      : ESD, SOC TD-DFT
   Georgi Stoychev        : AutoAux, RI-MP2 NMR
   Willem Van den Heuvel  : Paramagnetic NMR
   Boris Wezisla          : Elementary symmetry handling
   Frank Wennmohs         : Technical directorship


 We gratefully acknowledge several colleagues who have allowed us to
 interface, adapt or use parts of their codes:
   Stefan Grimme, W. Hujo, H. Kruse,             : VdW corrections, initial TS optimization,
                  C. Bannwarth                     DFT functionals, gCP, sTDA/sTD-DF
   Ed Valeev, F. Pavosevic, A. Kumar             : LibInt (2-el integral package), F12 methods
   Garnet Chan, S. Sharma, J. Yang, R. Olivares  : DMRG
   Ulf Ekstrom                                   : XCFun DFT Library
   Mihaly Kallay                                 : mrcc  (arbitrary order and MRCC methods)
   Andreas Klamt, Michael Diedenhofen            : otool_cosmo (COSMO solvation model)
   Jiri Pittner, Ondrej Demel                    : Mk-CCSD
   Frank Weinhold                                : gennbo (NPA and NBO analysis)
   Christopher J. Cramer and Donald G. Truhlar   : smd solvation model
   Lars Goerigk                                  : TD-DFT with DH, B97 family of functionals
   V. Asgeirsson, H. Jonsson                     : NEB implementation
   FAccTs GmbH                                   : IRC, NEB, NEB-TS, Multilevel, MM, QM/MM, CI optimization
   S Lehtola, MJT Oliveira, MAL Marques          : LibXC Library


 Your calculation uses the libint2 library for the computation of 2-el integrals
 For citations please refer to: http://libint.valeyev.net

 Your ORCA version has been built with support for libXC version: 4.2.3
 For citations please refer to: https://tddft.org/programs/libxc/

 This ORCA versions uses:
   CBLAS   interface :  Fast vector & matrix operations
   LAPACKE interface :  Fast linear algebra routines
   SCALAPACK package :  Parallel linear algebra routines


----- Orbital basis set information -----
Your calculation utilizes the basis: def2-SVP
   F. Weigend and R. Ahlrichs, Phys. Chem. Chem. Phys. 7, 3297 (2005).

----- AuxJ basis set information -----
Your calculation utilizes the auxiliary basis: def2/J
   F. Weigend, Phys. Chem. Chem. Phys. 8, 1057 (2006).

================================================================================
                                        WARNINGS
                       Please study these warnings very carefully!
================================================================================


INFO   : the flag for use of LIBINT has been found!

================================================================================
                                       INPUT FILE
================================================================================
NAME = 45_Rh_atom45.inp
|  1> # input to generate an atomic fitting density for Rh
|  2> # this file is use internally by ORCA
|  3> #
|  4> # atomic ground state (S=4): 1s2 2s2 2p6 3s2 3p6 4s2 3d10 4p6 5s2 4d7 
|  5> #
|  6> ! RHF AllowRHF def2-SVP def2/J  NoMulliken NoLoewdin NoMayer NoPrintMOs 
|  7> 
|  8> %output print[p_atomdensfit] 2 end
|  9> 
| 10> %scf
| 11>   guess hcore
| 12>   maxiter 1000
| 13>   maxdisk 500000
| 14>   SCFMode Conventional
| 15>   lshift 1.000000
| 16>   hftyp rohf
| 17>   rohf_case sahf
| 18>   rohf_numop   2
| 19>   rohf_norb[1] 5
| 20>   rohf_nel[1]  7
| 21> end
| 22> 
| 23> %basis
| 24>   NewECP 45
| 25>     N_core 28
| 26>     lmax g
| 27>     s 2
| 28>       1      12.1948160000    225.3120540000  2
| 29>       2       5.4051370000     32.4415820000  2
| 30>     p 4
| 31>       1      11.2807550000     52.8728260000  2
| 32>       2      10.9272480000    105.7455260000  2
| 33>       3       5.0901170000      8.6193440000  2
| 34>       4       4.8518320000     16.9734590000  2
| 35>     d 4
| 36>       1       9.1363370000     25.1085010000  2
| 37>       2       8.9648080000     37.6957310000  2
| 38>       3       3.6436120000      4.2025840000  2
| 39>       4       3.6360070000      6.2927900000  2
| 40>     f 2
| 41>       1       8.6162280000     -9.6735680000  2
| 42>       2       8.6294350000    -12.8998470000  2
| 43>     g 1
| 44>       1       1.0000000000      0.0000000000  2
| 45>   end
| 46>   NewGTO 45
| 47>     s 9 
| 48>      1     228.9320000000      0.0005686199
| 49>      2      19.9087000000     -0.0468540796
| 50>      3      12.4468000000      0.2726642544
| 51>      4       7.7782100000     -0.2304191995
| 52>      5       4.5800600000     -0.5101101143
| 53>      6       1.2906800000      0.8107338498
| 54>      7       0.5934140000      0.4984193692
| 55>      8       0.1491580000      0.0331901834
| 56>      9       0.0719530000     -0.0115255650
| 57>     s 9 
| 58>      1     228.9320000000     -0.0002508802
| 59>      2      19.9087000000      0.0204750620
| 60>      3      12.4468000000     -0.1229178130
| 61>      4       7.7782100000      0.1230108815
| 62>      5       4.5800600000      0.2028339493
| 63>      6       1.2906800000     -0.4511298199
| 64>      7       0.5934140000     -0.4146847490
| 65>      8       0.1491580000      0.3635793719
| 66>      9       0.0719530000      0.8158516409
| 67>     s 9 
| 68>      1     228.9320000000     -0.0002566658
| 69>      2      19.9087000000      0.0083405850
| 70>      3      12.4468000000     -0.0987668741
| 71>      4       7.7782100000      0.0083479483
| 72>      5       4.5800600000      0.5700115029
| 73>      6       1.2906800000     -1.5752208235
| 74>      7       0.5934140000      0.5205423353
| 75>      8       0.1491580000      2.0938528924
| 76>      9       0.0719530000     -1.2896791245
| 77>     s 9 
| 78>      1     228.9320000000     -0.0004750727
| 79>      2      19.9087000000      0.0392704948
| 80>      3      12.4468000000     -0.2325897115
| 81>      4       7.7782100000      0.2557509815
| 82>      5       4.5800600000      0.3838214158
| 83>      6       1.2906800000     -2.1642714744
| 84>      7       0.5934140000      2.3758334840
| 85>      8       0.1491580000     -0.8104078960
| 86>      9       0.0719530000     -0.6598904389
| 87>     s 1 
| 88>      1       0.0317520000      1.0000000000
| 89>     s 1 
| 90>      1       0.0140000000      1.0000000000
| 91>     p 8 
| 92>      1      24.2117000000     -0.0015790532
| 93>      2      15.1331000000      0.0271989160
| 94>      3       6.4472000000     -0.1914694480
| 95>      4       1.7777600000      0.4476730761
| 96>      5       0.8990200000      0.4777400887
| 97>      6       0.4445220000      0.2058259315
| 98>      7       0.1886740000      0.0243528201
| 99>      8       0.0785140000     -0.0000580020
|100>     p 8 
|101>      1      24.2117000000     -0.0001620134
|102>      2      15.1331000000     -0.0080172096
|103>      3       6.4472000000      0.0692791486
|104>      4       1.7777600000     -0.1976846046
|105>      5       0.8990200000     -0.2261535541
|106>      6       0.4445220000     -0.0412520539
|107>      7       0.1886740000      0.4228844888
|108>      8       0.0785140000      0.6868055808
|109>     p 8 
|110>      1      24.2117000000      0.0001479909
|111>      2      15.1331000000     -0.0134430083
|112>      3       6.4472000000      0.1102179699
|113>      4       1.7777600000     -0.3385256152
|114>      5       0.8990200000     -0.3711208583
|115>      6       0.4445220000      0.2152955219
|116>      7       0.1886740000      0.6849652189
|117>      8       0.0785140000      0.3098355192
|118>     p 8 
|119>      1      24.2117000000      0.0023326689
|120>      2      15.1331000000     -0.0276366590
|121>      3       6.4472000000      0.2001063394
|122>      4       1.7777600000     -0.8163804481
|123>      5       0.8990200000     -0.3922731000
|124>      6       0.4445220000      1.5357010145
|125>      7       0.1886740000     -0.1149953110
|126>      8       0.0785140000     -0.8389235059
|127>     p 1 
|128>      1       0.0321950000      1.0000000000
|129>     p 1 
|130>      1       0.0132000000      1.0000000000
|131>     d 7 
|132>      1      29.4998000000      0.0016955112
|133>      2       7.4043700000     -0.0186425345
|134>      3       3.0595900000      0.1062358563
|135>      4       1.5820500000      0.2970127098
|136>      5       0.7748340000      0.3681978916
|137>      6       0.3630560000      0.3005462885
|138>      7       0.1610470000      0.1617236581
|139>     d 7 
|140>      1      29.4998000000     -0.0021465505
|141>      2       7.4043700000      0.0241937631
|142>      3       3.0595900000     -0.1538028651
|143>      4       1.5820500000     -0.4576503292
|144>      5       0.7748340000     -0.3255172877
|145>      6       0.3630560000      0.3186930360
|146>      7       0.1610470000      0.6463929304
|147>     d 7 
|148>      1      29.4998000000      0.0036039502
|149>      2       7.4043700000     -0.0431688743
|150>      3       3.0595900000      0.3349936532
|151>      4       1.5820500000      0.7596029959
|152>      5       0.7748340000     -0.4606785898
|153>      6       0.3630560000     -0.9473772477
|154>      7       0.1610470000      0.4015840393
|155>     d 1 
|156>      1       0.0656200000      1.0000000000
|157>     d 1 
|158>      1       0.0267000000      1.0000000000
|159>   end
|160>   NewAuxGTO 45
|161>     S 1
|162>      1 1310.72 1.0
|163>     S 1
|164>      1  655.36 1.0
|165>     S 1
|166>      1  327.68 1.0
|167>     S 1
|168>      1  163.84 1.0
|169>     S 1
|170>      1   81.82 1.0
|171>     S 1
|172>      1   40.96 1.0
|173>     S 1
|174>      1   20.48 1.0
|175>     S 1
|176>      1   10.24 1.0
|177>     S 1
|178>      1    5.12 1.0
|179>     S 1
|180>      1    2.56 1.0
|181>     S 1
|182>      1    1.28 1.0
|183>     S 1
|184>      1    0.64 1.0
|185>     S 1
|186>      1    0.32 1.0
|187>     S 1
|188>      1    0.16 1.0
|189>     S 1
|190>      1    0.08 1.0
|191>     S 1
|192>      1    0.04 1.0
|193>     S 1
|194>      1    0.02 1.0
|195>     S 1
|196>      1    0.01 1.0
|197>   end
|198> end
|199> 
|200> * xyz 0 4
|201> 45  0.0 0.0 0.0
|202> *
|203> 
|204> 
|205>                          ****END OF INPUT****
================================================================================

                       ****************************
                       * Single Point Calculation *
                       ****************************

---------------------------------
CARTESIAN COORDINATES (ANGSTROEM)
---------------------------------
  Rh     0.000000    0.000000    0.000000

----------------------------
CARTESIAN COORDINATES (A.U.)
----------------------------
  NO LB      ZA    FRAG     MASS         X           Y           Z
   0 Rh   17.0000*   0   102.910    0.000000    0.000000    0.000000
* core charge reduced due to ECP

--------------------------------
INTERNAL COORDINATES (ANGSTROEM)
--------------------------------
 Rh     0   0   0     0.000000000000     0.00000000     0.00000000

---------------------------
INTERNAL COORDINATES (A.U.)
---------------------------
 Rh     0   0   0     0.000000000000     0.00000000     0.00000000

---------------------
BASIS SET INFORMATION
---------------------
There are 1 groups of distinct atoms

 Group   1 Type Rh  : 38s34p23d contracted to 6s6p5d pattern {999911/888811/77711}

Atom   0Rh   basis set group =>   1
---------------------------------
AUXILIARY/J BASIS SET INFORMATION
---------------------------------
There are 1 groups of distinct atoms

 Group   1 Type Rh  : 18s contracted to 18s pattern {111111111111111111}

Atom   0Rh   basis set group =>   1
-------------------------
ECP PARAMETER INFORMATION
-------------------------

 Group 1, Type Rh ECP (replacing 28 core electrons, lmax=4)

Atom   0Rh   ECP group =>   1

------------------------------------------------------------------------------
                           ORCA GTO INTEGRAL CALCULATION
------------------------------------------------------------------------------

                         BASIS SET STATISTICS AND STARTUP INFO

 # of primitive gaussian shells          ...   95
 # of primitive gaussian functions       ...  255
 # of contracted shells                  ...   17
 # of contracted basis functions         ...   49
 Highest angular momentum                ...    2
 Maximum contraction depth               ...    9
 Integral package used                   ... LIBINT
 Integral threshhold            Thresh   ...  1.000e-10
 Primitive cut-off              TCut     ...  1.000e-11
 Storage cut-off                TCutStore... -1.000e+00
 Buffer length                           ... 1048576 integrals/buffer
 Generate file with integrals 4 distinct ...false


------------------------------ INTEGRAL EVALUATION ----------------------------


 * One electron integrals 

   ECP integrals                         ... done
 Pre-screening matrix                    ... done
 Shell pair data                         ... done (   0.000 sec)
 Statistics run                          ... done
 Maximum amount of storage needed        ...     8 MB
 Maximum amount of storage dedicated     ... 500000 MB
 Beginning two electron integral evaluation:
 Starting repulsion integrals
  <ss|ss>  ...          231 b.         0 skpd (  0.0%)     0.012 s. (  0.050 ms/b)
  <ss|sp>  ...          756 b.         0 skpd (  0.0%)     0.032 s. (  0.042 ms/b)
  <ss|sd>  ...          630 b.         0 skpd (  0.0%)     0.063 s. (  0.100 ms/b)
  <ss|pp>  ...          441 b.         0 skpd (  0.0%)     0.052 s. (  0.117 ms/b)
  <ss|pd>  ...          630 b.         0 skpd (  0.0%)     0.077 s. (  0.122 ms/b)
  <ss|dd>  ...          315 b.         0 skpd (  0.0%)     0.051 s. (  0.162 ms/b)
  <sp|sp>  ...          666 b.         0 skpd (  0.0%)     0.073 s. (  0.110 ms/b)
  <sp|sd>  ...         1080 b.         0 skpd (  0.0%)     0.130 s. (  0.120 ms/b)
  <sp|pp>  ...          756 b.         0 skpd (  0.0%)     0.121 s. (  0.160 ms/b)
  <sp|pd>  ...         1080 b.         0 skpd (  0.0%)     0.221 s. (  0.205 ms/b)
  <sp|dd>  ...          540 b.         0 skpd (  0.0%)     0.169 s. (  0.312 ms/b)
  <sd|sd>  ...          465 b.         0 skpd (  0.0%)     0.091 s. (  0.196 ms/b)
  <sd|pp>  ...          630 b.         0 skpd (  0.0%)     0.165 s. (  0.262 ms/b)
  <sd|pd>  ...          900 b.         0 skpd (  0.0%)     0.336 s. (  0.373 ms/b)
  <sd|dd>  ...          450 b.         0 skpd (  0.0%)     0.267 s. (  0.593 ms/b)
  <pp|pp>  ...          231 b.         0 skpd (  0.0%)     0.079 s. (  0.340 ms/b)
  <pp|pd>  ...          630 b.         0 skpd (  0.0%)     0.281 s. (  0.446 ms/b)
  <pp|dd>  ...          315 b.         0 skpd (  0.0%)     0.230 s. (  0.730 ms/b)
  <pd|pd>  ...          465 b.         0 skpd (  0.0%)     0.379 s. (  0.815 ms/b)
  <pd|dd>  ...          450 b.         0 skpd (  0.0%)     0.564 s. (  1.254 ms/b)
  <dd|dd>  ...          120 b.         0 skpd (  0.0%)     0.279 s. (  2.326 ms/b)


                                      INTEGRAL STATISTICS

Integral type statistics:
 Number of integrals retained            ...     750925 
 One   Center Integrals retained         ...     750925 (100.0%)
 Two   Center Integrals retained         ...          0 (  0.0%)
 Three Center Integrals retained         ...          0 (  0.0%)
 Four  Center Integrals retained         ...          0 (  0.0%)

Storage statistics:
 Number of char integrals                ...          0 (  0.0%)
 Number of short int integrals           ...          0 (  0.0%)
 Number of double/float integrals        ...     750925 (100.0%)
 Amount of memory used                   ...          9 MB
 Amount of memory estimated              ...          8 MB ( 95.6%)

Prescreening statistics:
 Total number of shell quadruples        ...      11781 
 Number of skipped shell quadruples      ...          0 (  0.0%)
 # of negligible batches done            ...          0 (  0.0%)

Timings:
 Total evaluation time               ...     4.001 sec (   0.067 min)
 One electron matrix time            ...     0.021 sec (   0.000 min) =  0.5%
 Schwartz matrix evaluation time     ...     0.222 sec (   0.004 min) =  5.5%
 Statistics run                      ...     0.006 sec (   0.000 min) =  0.1%
 Repulsion integral time             ...     3.670 sec (   0.061 min) = 91.7%

-------------------------------------------------------------------------------
                                 ORCA SCF
-------------------------------------------------------------------------------

------------
SCF SETTINGS
------------
Hamiltonian:
 Ab initio Hamiltonian  Method          .... Hartree-Fock(GTOs)


General Settings:
 Integral files         IntName         .... 45_Rh_atom45
 Hartree-Fock type      HFTyp           .... ROHF
 Total Charge           Charge          ....    0
 Multiplicity           Mult            ....    4
 Number of Electrons    NEL             ....   17
 Basis Dimension        Dim             ....   49
 Nuclear Repulsion      ENuc            ....      0.0000000000 Eh

Convergence Acceleration:
 DIIS                   CNVDIIS         .... on
   Start iteration      DIISMaxIt       ....    12
   Startup error        DIISStart       ....  0.200000
   # of expansion vecs  DIISMaxEq       ....     5
   Bias factor          DIISBfac        ....   1.050
   Max. coefficient     DIISMaxC        ....  10.000
 Newton-Raphson         CNVNR           .... off
 SOSCF                  CNVSOSCF        .... off
 Level Shifting         CNVShift        .... on
   Level shift para.    LevelShift      ....    1.0000
   Turn off err/grad.   ShiftErr        ....    0.0010
 Zerner damping         CNVZerner       .... off
 Static damping         CNVDamp         .... on
   Fraction old density DampFac         ....    0.7000
   Max. Damping (<1)    DampMax         ....    0.9800
   Min. Damping (>=0)   DampMin         ....    0.0000
   Turn off err/grad.   DampErr         ....    0.1000
 Fernandez-Rico         CNVRico         .... off

SCF Procedure:
 Maximum # iterations   MaxIter         ....  1000
 SCF integral mode      SCFMode         .... Conventional
 Integral Threshold     Thresh          ....  1.000e-10 Eh
 Primitive CutOff       TCut            ....  1.000e-11 Eh
 Integral Buffer length BufferLength    .... 1048576
 Integral index format  IndFormat       ....     0
 Integral value format  ValFormat       ....     0
 Integral Storage       Thresh          ....  1.000e-10 Eh

Convergence Tolerance:
 Convergence Check Mode ConvCheckMode   .... Total+1el-Energy
 Convergence forced     ConvForced      .... 0
 Energy Change          TolE            ....  1.000e-06 Eh
 1-El. energy change                    ....  1.000e-03 Eh
 DIIS Error             TolErr          ....  1.000e-06


Diagonalization of the overlap matrix:
Smallest eigenvalue                        ... 1.672e-03
Time for diagonalization                   ...    0.001 sec
Threshold for overlap eigenvalues          ... 1.000e-08
Number of eigenvalues below threshold      ... 0
Time for construction of square roots      ...    0.003 sec
Total time needed                          ...    0.004 sec

--------------------
INITIAL GUESS: HCORE
--------------------
AVERAGE-CONFIGURATION (SAHF) CASE FOUND

-------------------
FINAL ROHF SETTINGS
-------------------
Number of operators             ... 2
  operator   0:   5 orbitals  10 electrons n(mue)= 2.000
  operator   1:   5 orbitals   7 electrons n(mue)= 1.400
Vector coupling coefficients a and b (Zerner convention):
   1.000    1.000           1.000    1.000 
   1.000    0.969           1.000    1.122 

                      -----------------
                      INTIAL GUESS DONE 
                      -----------------

 InCore treatment chosen:
   Memory dedicated               ...    1024 MB
   Memory needed                  ...      9 MB
   Number of tiny    integrals    ...       0
   Number of small   integrals    ...       0
   Number of regular integrals    ...  750925

--------------
SCF ITERATIONS
--------------
ITER       Energy         Delta-E        Max-DP      RMS-DP      [F,P]     Damp
  0    -96.4561834749   0.000000000000 0.78378819  0.03138079  1.5271191 0.7000
  1   -104.8573703264  -8.401186851490 0.45417897  0.02062784  0.5259308 0.7000
                            ****Activating DIIS****
  2   -103.4925850220   1.364785304388 0.19722893  0.01227404  0.1480365 0.7000
  3   -102.7455406374   0.747044384549 0.16091252  0.00923447  0.2576658 0.7000
  4   -101.8637036033   0.881837034134 0.11402027  0.00652198  0.2945330 0.7000
  5   -101.2877323756   0.575971227643 0.07994343  0.00461775  0.4267394 0.7000
  6   -100.8319815695   0.455750806147 0.06467219  0.00329389  0.5358535 0.7000
  7   -100.6098672165   0.222114353011 0.24365632  0.00592122  0.5448352 0.7000
  8   -102.0261566394  -1.416289422890 0.43585653  0.01331114  0.6839332 0.7000
  9   -106.8384342988  -4.812277659378 0.42969114  0.01308659  0.3410218 0.7000
 10   -108.5492299924  -1.710795693638 0.30078380  0.00980210  0.2154081 0.7000
 11   -108.6913962519  -0.142166259519 0.22168000  0.00710648  0.1029630 0.7000
 12   -108.7801882531  -0.088792001149 0.52161508  0.01668461  0.0751343 0.0000
 13   -109.0634202325  -0.283231979485 0.01254334  0.00038573  0.1666740 0.7000
 14   -108.9873693971   0.076050835491 0.00858709  0.00030614  0.1899973 0.7000
 15   -108.9632824547   0.024086942323 0.00714947  0.00019168  0.2008380 0.7000
 16   -108.9684860872  -0.005203632440 0.00819332  0.00017143  0.1970761 0.7000
 17   -108.9945852841  -0.026099196920 0.03918523  0.00155077  0.1833305 0.7000
 18   -109.2255514073  -0.230966123237 0.12397996  0.00503176  0.0663483 0.0000
 19   -109.2824818167  -0.056930409360 0.07156669  0.00199423  0.0795235 0.0000
 20   -109.3158875517  -0.033405734974 0.08036989  0.00209757  0.0242690 0.0000
 21   -109.3208880467  -0.005000494990 0.05532886  0.00139999  0.0185609 0.0000
 22   -109.3261185007  -0.005230453997 0.03052632  0.00077361  0.0149285 0.0000
 23   -109.3281079001  -0.001989399482 0.03240234  0.00076995  0.0132328 0.0000
 24   -109.3292901859  -0.001182285747 0.02913762  0.00063825  0.0109216 0.0000
 25   -109.3300515029  -0.000761316973 0.05005317  0.00106723  0.0084849 0.0000
 26   -109.3308683938  -0.000816890898 0.03615859  0.00076296  0.0042269 0.0000
 27   -109.3311026252  -0.000234231413 0.00849547  0.00017255  0.0019695 0.0000
 28   -109.3311439280  -0.000041302834 0.00254317  0.00010624  0.0015718 0.0000
 29   -109.3311661290  -0.000022201018 0.00258510  0.00006136  0.0006560 0.0000
 30   -109.3311691658  -0.000003036813 0.00068084  0.00002195  0.0001886 0.0000
                 **** Energy Check signals convergence ****

               *****************************************************
               *                     SUCCESS                       *
               *           SCF CONVERGED AFTER  31 CYCLES          *
               *****************************************************


----------------
TOTAL SCF ENERGY
----------------

Total Energy       :         -109.33116990 Eh           -2975.05238 eV

Components:
Nuclear Repulsion  :            0.00000000 Eh               0.00000 eV
Electronic Energy  :         -109.33116990 Eh           -2975.05238 eV
One Electron Energy:         -192.74566041 Eh           -5244.87606 eV
Two Electron Energy:           83.41449051 Eh            2269.82368 eV

Virial components:
Potential Energy   :         -149.98789875 Eh           -4081.37822 eV
Kinetic Energy     :           40.65672885 Eh            1106.32584 eV
Virial Ratio       :            3.68912854


---------------
SCF CONVERGENCE
---------------

  Last Energy change         ...   -7.3304e-07  Tolerance :   1.0000e-06
  Last MAX-Density change    ...    2.5080e-04  Tolerance :   1.0000e-05
  Last RMS-Density change    ...    1.1713e-05  Tolerance :   1.0000e-06
  Last DIIS Error            ...    1.4752e-04  Tolerance :   1.0000e-06

             **** THE GBW FILE WAS UPDATED (45_Rh_atom45.gbw) ****
             **** DENSITY FILE WAS UPDATED (45_Rh_atom45.scfp) ****
             **** ENERGY FILE WAS UPDATED (45_Rh_atom45.en.tmp) ****
             **** THE GBW FILE WAS UPDATED (45_Rh_atom45.gbw) ****
             **** DENSITY FILE WAS UPDATED (45_Rh_atom45.scfp) ****
----------------
ORBITAL ENERGIES
----------------

  NO   OCC          E(Eh)            E(eV) 
   0   2.0000      -3.779605      -102.8483 
   1   2.0000      -2.406625       -65.4876 
   2   2.0000      -2.403699       -65.4080 
   3   2.0000      -2.399109       -65.2831 
   4   2.0000      -0.451166       -12.2769 
   5   1.4000      -0.487376       -13.2622 
   6   1.4000      -0.486423       -13.2363 
   7   1.4000      -0.473819       -12.8933 
   8   1.4000      -0.465800       -12.6751 
   9   1.4000      -0.255470        -6.9517 
  10   0.0000      -0.004142        -0.1127 
  11   0.0000      -0.003471        -0.0945 
  12   0.0000      -0.002479        -0.0675 
  13   0.0000       0.011169         0.3039 
  14   0.0000       0.033449         0.9102 
  15   0.0000       0.034690         0.9440 
  16   0.0000       0.036634         0.9969 
  17   0.0000       0.055950         1.5225 
  18   0.0000       0.055974         1.5231 
  19   0.0000       0.056308         1.5322 
  20   0.0000       0.056497         1.5374 
  21   0.0000       0.056524         1.5381 
  22   0.0000       0.184226         5.0130 
  23   0.0000       0.186201         5.0668 
  24   0.0000       0.189300         5.1511 
  25   0.0000       0.229054         6.2329 
  26   0.0000       0.229168         6.2360 
  27   0.0000       0.230905         6.2832 
  28   0.0000       0.230734         6.2786 
  29   0.0000       0.231744         6.3061 
  30   0.0000       0.278321         7.5735 
  31   0.0000       0.699273        19.0282 
  32   0.0000       0.703931        19.1549 
  33   0.0000       0.711204        19.3529 
  34   0.0000       0.831856        22.6360 
  35   0.0000       0.832224        22.6460 
  36   0.0000       0.839628        22.8474 
  37   0.0000       0.837453        22.7882 
  38   0.0000       0.840815        22.8797 
  39   0.0000       1.930099        52.5207 
  40   0.0000       2.624700        71.4217 
  41   0.0000       2.634030        71.6756 
  42   0.0000       2.648657        72.0736 
  43   0.0000       3.123685        84.9998 
  44   0.0000       3.124310        85.0168 
  45   0.0000       3.133504        85.2670 
  46   0.0000       3.142325        85.5070 
  47   0.0000       3.139367        85.4265 
  48   0.0000       7.486016       203.7048 
CleanUpVectors: The p-vectors have cracked symmetry
CleanUpVectors: The p-vectors have cracked symmetry
CleanUpVectors: The p-vectors have cracked symmetry
CleanUpVectors: The d-vectors have cracked symmetry at i=4
CleanUpVectors: The d-vectors have cracked symmetry at i=5
CleanUpVectors: The d-vectors have cracked symmetry at i=6
CleanUpVectors: The d-vectors have cracked symmetry at i=7
CleanUpVectors: The d-vectors have cracked symmetry at i=8
CleanUpVectors: The p-vectors have cracked symmetry
CleanUpVectors: The p-vectors have cracked symmetry
CleanUpVectors: The p-vectors have cracked symmetry
CleanUpVectors: The p-vectors have cracked symmetry
CleanUpVectors: The p-vectors have cracked symmetry
CleanUpVectors: The p-vectors have cracked symmetry
CleanUpVectors: The d-vectors have cracked symmetry at i=17
CleanUpVectors: The d-vectors have cracked symmetry at i=18
CleanUpVectors: The d-vectors have cracked symmetry at i=19
CleanUpVectors: The d-vectors have cracked symmetry at i=20
CleanUpVectors: The d-vectors have cracked symmetry at i=21
CleanUpVectors: The p-vectors have cracked symmetry
CleanUpVectors: The p-vectors have cracked symmetry
CleanUpVectors: The p-vectors have cracked symmetry
CleanUpVectors: The d-vectors have cracked symmetry at i=25
CleanUpVectors: The d-vectors have cracked symmetry at i=26
CleanUpVectors: The d-vectors have cracked symmetry at i=27
CleanUpVectors: The d-vectors have cracked symmetry at i=28
CleanUpVectors: The d-vectors have cracked symmetry at i=29
CleanUpVectors: The p-vectors have cracked symmetry
CleanUpVectors: The p-vectors have cracked symmetry
CleanUpVectors: The p-vectors have cracked symmetry
CleanUpVectors: The d-vectors have cracked symmetry at i=34
CleanUpVectors: The d-vectors have cracked symmetry at i=35
CleanUpVectors: The d-vectors have cracked symmetry at i=36
CleanUpVectors: The d-vectors have cracked symmetry at i=37
CleanUpVectors: The d-vectors have cracked symmetry at i=38
CleanUpVectors: The p-vectors have cracked symmetry
CleanUpVectors: The p-vectors have cracked symmetry
CleanUpVectors: The p-vectors have cracked symmetry
CleanUpVectors: The d-vectors have cracked symmetry at i=43
CleanUpVectors: The d-vectors have cracked symmetry at i=44
--------------------------
ATOM BASIS FOR ELEMENT Rh
--------------------------
 NewGTO Rh
 S 38
    1        228.932000000000         0.000567820865
    2         19.908700000000        -0.046788239425
    3         12.446800000000         0.272281101802
    4          7.778210000000        -0.230095410395
    5          4.580060000000        -0.509393298611
    6          1.290680000000         0.809594592359
    7          0.593414000000         0.497718981551
    8          0.149158000000         0.033143543972
    9          0.071953000000        -0.011509369074
   10        228.932000000000         0.000000480314
   11         19.908700000000        -0.000039199843
   12         12.446800000000         0.000235328177
   13          7.778210000000        -0.000235506358
   14          4.580060000000        -0.000388328936
   15          1.290680000000         0.000863695469
   16          0.593414000000         0.000793920781
   17          0.149158000000        -0.000696078695
   18          0.071953000000        -0.001561961401
   19        228.932000000000         0.000000440960
   20         19.908700000000        -0.000014329376
   21         12.446800000000         0.000169684456
   22          7.778210000000        -0.000014342026
   23          4.580060000000        -0.000979296880
   24          1.290680000000         0.002706276681
   25          0.593414000000        -0.000894307365
   26          0.149158000000        -0.003597302151
   27          0.071953000000         0.002215707467
   28        228.932000000000         0.000000459277
   29         19.908700000000        -0.000037964816
   30         12.446800000000         0.000224856491
   31          7.778210000000        -0.000247247687
   32          4.580060000000        -0.000371059993
   33          1.290680000000         0.002092313050
   34          0.593414000000        -0.002296840975
   35          0.149158000000         0.000783463182
   36          0.071953000000         0.000637950180
   37          0.031752000000         0.005180093011
   38          0.014000000000        -0.000934829417
 P 95
    1         24.211700000000        -0.000167054419
    2         15.133100000000         0.002877483227
    3          6.447200000000        -0.020256326579
    4          1.777760000000         0.047361143645
    5          0.899020000000         0.050542054400
    6          0.444522000000         0.021775156980
    7          0.188674000000         0.002576383241
    8          0.078514000000        -0.000006136266
    9         24.211700000000         0.001563374046
   10         15.133100000000        -0.026928845305
   11          6.447200000000         0.189568258746
   12          1.777760000000        -0.443227921793
   13          0.899020000000        -0.472996385032
   14          0.444522000000        -0.203782190040
   15          0.188674000000        -0.024111009616
   16          0.078514000000         0.000057426071
   17         24.211700000000        -0.000146321116
   18         15.133100000000         0.002520355702
   19          6.447200000000        -0.017742292197
   20          1.777760000000         0.041483101391
   21          0.899020000000         0.044269225907
   22          0.444522000000         0.019072618929
   23          0.188674000000         0.002256625558
   24          0.078514000000        -0.000005374687
   25         24.211700000000        -0.000000045338
   26         15.133100000000        -0.000002243555
   27          6.447200000000         0.000019387242
   28          1.777760000000        -0.000055320531
   29          0.899020000000        -0.000063287350
   30          0.444522000000        -0.000011544073
   31          0.188674000000         0.000118341004
   32          0.078514000000         0.000192197312
   33         24.211700000000         0.000000424296
   34         15.133100000000         0.000020996246
   35          6.447200000000        -0.000181434957
   36          1.777760000000         0.000517715626
   37          0.899020000000         0.000592272874
   38          0.444522000000         0.000108034882
   39          0.188674000000        -0.001107490936
   40          0.078514000000        -0.001798673103
   41         24.211700000000        -0.000000039711
   42         15.133100000000        -0.000001965105
   43          6.447200000000         0.000016981071
   44          1.777760000000        -0.000048454641
   45          0.899020000000        -0.000055432689
   46          0.444522000000        -0.000010111326
   47          0.188674000000         0.000103653575
   48          0.078514000000         0.000168343498
   49         24.211700000000        -0.000000106237
   50         15.133100000000         0.000009650255
   51          6.447200000000        -0.000079121539
   52          1.777760000000         0.000243015434
   53          0.899020000000         0.000266414393
   54          0.444522000000        -0.000154552956
   55          0.188674000000        -0.000491712037
   56          0.078514000000        -0.000222419840
   57         24.211700000000         0.000000994219
   58         15.133100000000        -0.000090311638
   59          6.447200000000         0.000740456685
   60          1.777760000000        -0.002274253055
   61          0.899020000000        -0.002493231555
   62          0.444522000000         0.001446379466
   63          0.188674000000         0.004601673173
   64          0.078514000000         0.002081509772
   65         24.211700000000        -0.000000093052
   66         15.133100000000         0.000008452551
   67          6.447200000000        -0.000069301680
   68          1.777760000000         0.000212854528
   69          0.899020000000         0.000233349418
   70          0.444522000000        -0.000135371223
   71          0.188674000000        -0.000430685129
   72          0.078514000000        -0.000194815075
   73         24.211700000000        -0.000000275331
   74         15.133100000000         0.000003262027
   75          6.447200000000        -0.000023619072
   76          1.777760000000         0.000096359509
   77          0.899020000000         0.000046301015
   78          0.444522000000        -0.000181262788
   79          0.188674000000         0.000013573196
   80          0.078514000000         0.000099020325
   81         24.211700000000         0.000002576677
   82         15.133100000000        -0.000030527585
   83          6.447200000000         0.000221038418
   84          1.777760000000        -0.000901777741
   85          0.899020000000        -0.000433306739
   86          0.444522000000         0.001696342672
   87          0.188674000000        -0.000127024370
   88          0.078514000000        -0.000926678910
   89         24.211700000000        -0.000000241159
   90         15.133100000000         0.000002857173
   91          6.447200000000        -0.000020687684
   92          1.777760000000         0.000084400228
   93          0.899020000000         0.000040554547
   94          0.444522000000        -0.000158766070
   95          0.188674000000         0.000011888612
 D 95
    1        228.932000000000         0.000000001583
    2         19.908700000000        -0.000001499722
    3         12.446800000000         0.000013959722
    4          7.778210000000        -0.000018877534
    5          4.580060000000        -0.000070973959
    6          1.290680000000         0.000400281932
    7          0.593414000000         0.000535233619
    8          0.149158000000         0.000141797757
    9          0.071953000000        -0.000102075045
   10        228.932000000000         0.000000000695
   11         19.908700000000        -0.000000652316
   12         12.446800000000         0.000006263723
   13          7.778210000000        -0.000010030886
   14          4.580060000000        -0.000028089559
   15          1.290680000000         0.000221696276
   16          0.593414000000         0.000443236706
   17          0.149158000000        -0.001546066347
   18          0.071953000000        -0.007191802107
   19        228.932000000000         0.000000000772
   20         19.908700000000        -0.000000288336
   21         12.446800000000         0.000005461329
   22          7.778210000000        -0.000000738660
   23          4.580060000000        -0.000085655879
   24          1.290680000000         0.000839977369
   25          0.593414000000        -0.000603730323
   26          0.149158000000        -0.009661495062
   27          0.071953000000         0.012336088760
   28        228.932000000000         0.000000000057
   29         19.908700000000        -0.000000054452
   30         12.446800000000         0.000000515847
   31          7.778210000000        -0.000000907665
   32          4.580060000000        -0.000002313376
   33          1.290680000000         0.000046289375
   34          0.593414000000        -0.000110521399
   35          0.149158000000         0.000149984118
   36          0.071953000000         0.000253169330
   37          0.031752000000         0.004379507571
   38          0.014000000000         0.004106979349
   39         29.499800000000         0.000743372396
   40          7.404370000000        -0.008173549981
   41          3.059590000000         0.046577576738
   42          1.582050000000         0.130220932599
   43          0.774834000000         0.161431047370
   44          0.363056000000         0.131770179142
   45          0.161047000000         0.070905401979
   46         29.499800000000         0.000294851545
   47          7.404370000000        -0.003241960364
   48          3.059590000000         0.018474549981
   49          1.582050000000         0.051650886465
   50          0.774834000000         0.064030079751
   51          0.363056000000         0.052265380277
   52          0.161047000000         0.028123949001
   53         29.499800000000         0.001460065813
   54          7.404370000000        -0.016053758471
   55          3.059590000000         0.091483525374
   56          1.582050000000         0.255768350911
   57          0.774834000000         0.317068476992
   58          0.363056000000         0.258811242906
   59          0.161047000000         0.139266071689
   60         29.499800000000        -0.000143886703
   61          7.404370000000         0.001582067299
   62          3.059590000000        -0.009015527058
   63          1.582050000000        -0.025205483488
   64          0.774834000000        -0.031246494075
   65          0.363056000000        -0.025505354694
   66          0.161047000000        -0.013724405924
   67         29.499800000000         0.000187540611
   68          7.404370000000        -0.002062052029
   69          3.059590000000         0.011750755403
   70          1.582050000000         0.032852596344
   71          0.774834000000         0.040726394220
   72          0.363056000000         0.033243445728
   73          0.161047000000         0.017888264992
   74         29.499800000000         0.000010745315
   75          7.404370000000        -0.000121110403
   76          3.059590000000         0.000769914414
   77          1.582050000000         0.002290929919
   78          0.774834000000         0.001629491439
   79          0.363056000000        -0.001595330243
   80          0.161047000000        -0.003235747489
   81         29.499800000000         0.000004262345
   82          7.404370000000        -0.000048040874
   83          3.059590000000         0.000305402016
   84          1.582050000000         0.000908743365
   85          0.774834000000         0.000646370507
   86          0.363056000000        -0.000632819783
   87          0.161047000000        -0.001283524230
   88         29.499800000000         0.000021135043
   89          7.404370000000        -0.000238212992
   90          3.059590000000         0.001514350643
   91          1.582050000000         0.004506047855
   92          0.774834000000         0.003205059371
   93          0.363056000000        -0.003137867450
   94          0.161047000000        -0.006364416874
   95         29.499800000000        -0.000002056589
 S 38
    1        228.932000000000         0.000391092603
    2         19.908700000000        -0.032225892823
    3         12.446800000000         0.187536477379
    4          7.778210000000        -0.158480637991
    5          4.580060000000        -0.350850000936
    6          1.290680000000         0.557616804660
    7          0.593414000000         0.342809192071
    8          0.149158000000         0.022827965081
    9          0.071953000000        -0.007927199202
   10        228.932000000000        -0.000386777214
   11         19.908700000000         0.031566012106
   12         12.446800000000        -0.189500045138
   13          7.778210000000         0.189643527067
   14          4.580060000000         0.312705226442
   15          1.290680000000        -0.695498228838
   16          0.593414000000        -0.639311558965
   17          0.149158000000         0.560523374967
   18          0.071953000000         1.257782895767
   19        228.932000000000         0.000225517229
   20         19.908700000000        -0.007328384285
   21         12.446800000000         0.086780676415
   22          7.778210000000        -0.007334853986
   23          4.580060000000        -0.500835773501
   24          1.290680000000         1.384054419181
   25          0.593414000000        -0.457370108873
   26          0.149158000000        -1.839746088680
   27          0.071953000000         1.133165626660
   28        228.932000000000         0.000504099234
   29         19.908700000000        -0.041669888336
   30         12.446800000000         0.246800743298
   31          7.778210000000        -0.271377147021
   32          4.580060000000        -0.407272574966
   33          1.290680000000         2.296506604422
   34          0.593414000000        -2.520994871277
   35          0.149158000000         0.859923123071
   36          0.071953000000         0.700209178495
   37          0.031752000000        -3.179585208682
   38          0.014000000000         1.252229175740
 D 95
    1         29.499800000000         0.000173935253
    2          7.404370000000        -0.001912457999
    3          3.059590000000         0.010898282807
    4          1.582050000000         0.030469265475
    5          0.774834000000         0.037771849272
    6          0.363056000000         0.030831760223
    7          0.161047000000         0.016590539427
    8         29.499800000000        -0.000942781490
    9          7.404370000000         0.010366098704
   10          3.059590000000        -0.059071977169
   11          1.582050000000        -0.165152601233
   12          0.774834000000        -0.204734806155
   13          0.363056000000        -0.167117432012
   14          0.161047000000        -0.089925723496
   15         29.499800000000        -0.000058630216
   16          7.404370000000         0.000644652667
   17          3.059590000000        -0.003673600714
   18          1.582050000000        -0.010270601103
   19          0.774834000000        -0.012732161106
   20          0.363056000000        -0.010392791084
   21          0.161047000000        -0.005592350517
   22         29.499800000000         0.000156368665
   23          7.404370000000        -0.001719309339
   24          3.059590000000         0.009797610937
   25          1.582050000000         0.027392022574
   26          0.774834000000         0.033957082057
   27          0.363056000000         0.027717907172
   28          0.161047000000         0.014914978206
   29         29.499800000000         0.001369224816
   30          7.404370000000        -0.015054940878
   31          3.059590000000         0.085791689734
   32          1.582050000000         0.239855197046
   33          0.774834000000         0.297341409736
   34          0.363056000000         0.242708769258
   35          0.161047000000         0.130601346679
   36         29.499800000000         0.000004908173
   37          7.404370000000        -0.000055319995
   38          3.059590000000         0.000351676328
   39          1.582050000000         0.001046435560
   40          0.774834000000         0.000744308140
   41          0.363056000000        -0.000728704219
   42          0.161047000000        -0.001478002975
   43         29.499800000000        -0.000026603774
   44          7.404370000000         0.000299851046
   45          3.059590000000        -0.001906191681
   46          1.582050000000        -0.005671996095
   47          0.774834000000        -0.004034374427
   48          0.363056000000         0.003949796472
   49          0.161047000000         0.008011221545
   50         29.499800000000        -0.000001654450
   51          7.404370000000         0.000018647302
   52          3.059590000000        -0.000118543300
   53          1.582050000000        -0.000352733223
   54          0.774834000000        -0.000250891903
   55          0.363056000000         0.000245632123
   56          0.161047000000         0.000498206266
   57         29.499800000000         0.000004412472
   58          7.404370000000        -0.000049732953
   59          3.059590000000         0.000316158784
   60          1.582050000000         0.000940750820
   61          0.774834000000         0.000669136753
   62          0.363056000000        -0.000655108750
   63          0.161047000000        -0.001328732092
   64         29.499800000000         0.000038637318
   65          7.404370000000        -0.000435481071
   66          3.059590000000         0.002768409203
   67          1.582050000000         0.008237579856
   68          0.774834000000         0.005859221508
   69          0.363056000000        -0.005736386857
   70          0.161047000000        -0.011634894684
   71         29.499800000000        -0.000001866473
   72          7.404370000000         0.000022357005
   73          3.059590000000        -0.000173492011
   74          1.582050000000        -0.000393395666
   75          0.774834000000         0.000238583789
   76          0.363056000000         0.000490643278
   77          0.161047000000        -0.000207978933
   78         29.499800000000         0.000010116845
   79          7.404370000000        -0.000121181705
   80          3.059590000000         0.000940378985
   81          1.582050000000         0.002132323067
   82          0.774834000000        -0.001293196036
   83          0.363056000000        -0.002659434427
   84          0.161047000000         0.001127308495
   85         29.499800000000         0.000000629152
   86          7.404370000000        -0.000007536115
   87          3.059590000000         0.000058480807
   88          1.582050000000         0.000132606084
   89          0.774834000000        -0.000080421989
   90          0.363056000000        -0.000165386376
   91          0.161047000000         0.000070105683
   92         29.499800000000        -0.000001677968
   93          7.404370000000         0.000020099060
   94          3.059590000000        -0.000155970189
   95          1.582050000000        -0.000353664678
 P 95
    1         24.211700000000         0.000001847468
    2         15.133100000000        -0.000031822315
    3          6.447200000000         0.000224016320
    4          1.777760000000        -0.000523770639
    5          0.899020000000        -0.000558948583
    6          0.444522000000        -0.000240813186
    7          0.188674000000        -0.000028492426
    8         24.211700000000         0.000000315263
    9         15.133100000000        -0.000005430355
   10          6.447200000000         0.000038227522
   11          1.777760000000        -0.000089379442
   12          0.899020000000        -0.000095382423
   13          0.444522000000        -0.000041093843
   14          0.188674000000        -0.000004862123
   15         24.211700000000         0.000001259195
   16         15.133100000000        -0.000021689409
   17          6.447200000000         0.000152684730
   18          1.777760000000        -0.000356990859
   19          0.899020000000        -0.000380967393
   20          0.444522000000        -0.000164133114
   21          0.188674000000        -0.000019419828
   22         24.211700000000         0.000077568526
   23         15.133100000000         0.003838467272
   24          6.447200000000        -0.033169364130
   25          1.777760000000         0.094647130709
   26          0.899020000000         0.108277450531
   27          0.444522000000         0.019750594870
   28          0.188674000000        -0.202467984633
   29          0.078514000000        -0.328827718827
   30         24.211700000000         0.000013236770
   31         15.133100000000         0.000655019656
   32          6.447200000000        -0.005660224240
   33          1.777760000000         0.016151168331
   34          0.899020000000         0.018477129913
   35          0.444522000000         0.003370362947
   36          0.188674000000        -0.034550381791
   37          0.078514000000        -0.056113183768
   38         24.211700000000         0.000052869048
   39         15.133100000000         0.002616217148
   40          6.447200000000        -0.022607528756
   41          1.777760000000         0.064509458812
   42          0.899020000000         0.073799593109
   43          0.444522000000         0.013461582794
   44          0.188674000000        -0.137997845445
   45          0.078514000000        -0.224121936131
   46         24.211700000000         0.000045314704
   47         15.133100000000        -0.004116239191
   48          6.447200000000         0.033748660799
   49          1.777760000000        -0.103656292795
   50          0.899020000000        -0.113636932105
   51          0.444522000000         0.065923329442
   52          0.188674000000         0.209735843010
   53          0.078514000000         0.094871406636
   54         24.211700000000         0.000007732780
   55         15.133100000000        -0.000702420365
   56          6.447200000000         0.005759078986
   57          1.777760000000        -0.017688547143
   58          0.899020000000        -0.019391704802
   59          0.444522000000         0.011249562272
   60          0.188674000000         0.035790613832
   61          0.078514000000         0.016189440154
   62         24.211700000000         0.000030885533
   63         15.133100000000        -0.002805540544
   64          6.447200000000         0.023002364968
   65          1.777760000000        -0.070649910890
   66          0.899020000000        -0.077452501055
   67          0.444522000000         0.044931930567
   68          0.188674000000         0.142951462180
   69          0.078514000000         0.064662320484
   70         24.211700000000        -0.000110488103
   71         15.133100000000         0.001309025056
   72          6.447200000000        -0.009478143222
   73          1.777760000000         0.038668294237
   74          0.899020000000         0.018580224070
   75          0.444522000000        -0.072739295541
   76          0.188674000000         0.005446814083
   77          0.078514000000         0.039736058162
   78         24.211700000000        -0.000018854369
   79         15.133100000000         0.000223380084
   80          6.447200000000        -0.001617408637
   81          1.777760000000         0.006598595484
   82          0.899020000000         0.003170643678
   83          0.444522000000        -0.012412680636
   84          0.188674000000         0.000929477845
   85          0.078514000000         0.006780805286
   86         24.211700000000        -0.000075306327
   87         15.133100000000         0.000892203465
   88          6.447200000000        -0.006460099585
   89          1.777760000000         0.026355481838
   90          0.899020000000         0.012663883103
   91          0.444522000000        -0.049577547196
   92          0.188674000000         0.003712431915
   93          0.078514000000         0.027083246879
   94          0.032195000000         0.309472957106
   95          0.032195000000         0.052810368224
 P 95
    1         24.211700000000         0.000188705161
    2         15.133100000000        -0.003250413497
    3          6.447200000000         0.022881605942
    4          1.777760000000        -0.053499286831
    5          0.899020000000        -0.057092452954
    6          0.444522000000        -0.024597281218
    7          0.188674000000        -0.002910290069
    8          0.078514000000         0.000006931544
    9         24.211700000000         0.000032201809
   10         15.133100000000        -0.000554670545
   11          6.447200000000         0.003904657928
   12          1.777760000000        -0.009129447250
   13          0.899020000000        -0.009742607210
   14          0.444522000000        -0.004197431306
   15          0.188674000000        -0.000496629792
   16         24.211700000000         0.000128617400
   17         15.133100000000        -0.002215412279
   18          6.447200000000         0.015595612936
   19          1.777760000000        -0.036463969003
   20          0.899020000000        -0.038912994137
   21          0.444522000000        -0.016764980489
   22          0.188674000000        -0.001983591430
   23          0.078514000000         0.000004724392
   24         24.211700000000         0.000121129002
   25         15.133100000000         0.005994051104
   26          6.447200000000        -0.051796420185
   27          1.777760000000         0.147798508655
   28          0.899020000000         0.169083263164
   29          0.444522000000         0.030842017555
   30          0.188674000000        -0.316168762381
   31          0.078514000000        -0.513488851516
   32         24.211700000000         0.000020670198
   33         15.133100000000         0.001022861735
   34          6.447200000000        -0.008838859615
   35          1.777760000000         0.025221246270
   36          0.899020000000         0.028853407650
   37          0.444522000000         0.005263071511
   38          0.188674000000        -0.053952981605
   39          0.078514000000        -0.087624894856
   40         24.211700000000         0.000082558936
   41         15.133100000000         0.004085416958
   42          6.447200000000        -0.035303331539
   43          1.777760000000         0.100736300566
   44          0.899020000000         0.115243533739
   45          0.444522000000         0.021021259137
   46          0.188674000000        -0.215493862330
   47          0.078514000000        -0.349983012373
   48         24.211700000000         0.000096245400
   49         15.133100000000        -0.008742616668
   50          6.447200000000         0.071679897781
   51          1.777760000000        -0.220159031380
   52          0.899020000000        -0.241357241578
   53          0.444522000000         0.140016741522
   54          0.188674000000         0.445464899407
   55          0.078514000000         0.201500520880
   56         24.211700000000         0.000016423907
   57         15.133100000000        -0.001491893863
   58          6.447200000000         0.012231898488
   59          1.777760000000        -0.037569290782
   60          0.899020000000        -0.041186683710
   61          0.444522000000         0.023893317679
   62          0.188674000000         0.076016869416
   63          0.078514000000         0.034385287827
   64         24.211700000000         0.000065598805
   65         15.133100000000        -0.005958780427
   66          6.447200000000         0.048855484356
   67          1.777760000000        -0.150055684317
   68          0.899020000000        -0.164503930740
   69          0.444522000000         0.095432414619
   70          0.188674000000         0.303619342349
   71          0.078514000000         0.137338442858
   72         24.211700000000        -0.000248324707
   73         15.133100000000         0.002942065739
   74          6.447200000000        -0.021302358048
   75          1.777760000000         0.086907934356
   76          0.899020000000         0.041759506739
   77          0.444522000000        -0.163483340725
   78          0.188674000000         0.012241847490
   79          0.078514000000         0.089307759819
   80         24.211700000000        -0.000042375655
   81         15.133100000000         0.000502052187
   82          6.447200000000        -0.003635165357
   83          1.777760000000         0.014830504280
   84          0.899020000000         0.007126098992
   85          0.444522000000        -0.027897802453
   86          0.188674000000         0.002089024126
   87          0.078514000000         0.015240025252
   88         24.211700000000        -0.000169252806
   89         15.133100000000         0.002005249046
   90          6.447200000000        -0.014519231368
   91          1.777760000000         0.059234588200
   92          0.899020000000         0.028462386127
   93          0.444522000000        -0.111426746444
   94          0.188674000000         0.008343781270
   95          0.078514000000         0.060870257879
 D 95
    1         29.499800000000        -0.000000440494
    2          7.404370000000         0.000004843331
    3          3.059590000000        -0.000027600079
    4          1.582050000000        -0.000077163912
    5          0.774834000000        -0.000095657825
    6          0.363056000000        -0.000078081936
    7          0.161047000000        -0.000042015812
    8         29.499800000000         0.000002336641
    9          7.404370000000        -0.000025691903
   10          3.059590000000         0.000146407201
   11          1.582050000000         0.000409323189
   12          0.774834000000         0.000507425879
   13          0.363056000000         0.000414192933
   14          0.161047000000         0.000222876804
   15         29.499800000000        -0.000000396094
   16          7.404370000000         0.000004355144
   17          3.059590000000        -0.000024818110
   18          1.582050000000        -0.000069386121
   19          0.774834000000        -0.000086015927
   20          0.363056000000        -0.000070211612
   21          0.161047000000        -0.000037780799
   22         29.499800000000         0.000000557970
   23          7.404370000000        -0.000006135007
   24          3.059590000000         0.000034960790
   25          1.582050000000         0.000097742883
   26          0.774834000000         0.000121168968
   27          0.363056000000         0.000098905736
   28          0.161047000000         0.000053221078
   29         29.499800000000         0.000001584172
   30          7.404370000000        -0.000017418331
   31          3.059590000000         0.000099259640
   32          1.582050000000         0.000277508704
   33          0.774834000000         0.000344019351
   34          0.363056000000         0.000280810242
   35          0.161047000000         0.000151103711
   36         29.499800000000        -0.000025864857
   37          7.404370000000         0.000291522706
   38          3.059590000000        -0.001853247354
   39          1.582050000000        -0.005514456842
   40          0.774834000000        -0.003922319990
   41          0.363056000000         0.003840091181
   42          0.161047000000         0.007788710486
   43         29.499800000000         0.000137202551
   44          7.404370000000        -0.001546409466
   45          3.059590000000         0.009830723956
   46          1.582050000000         0.029251952177
   47          0.774834000000         0.020806313303
   48          0.363056000000        -0.020370122894
   49          0.161047000000        -0.041315943377
   50         29.499800000000        -0.000023257790
   51          7.404370000000         0.000262138470
   52          3.059590000000        -0.001666447984
   53          1.582050000000        -0.004958623287
   54          0.774834000000        -0.003526966988
   55          0.363056000000         0.003453026490
   56          0.161047000000         0.007003641936
   57         29.499800000000         0.000032762798
   58          7.404370000000        -0.000369269378
   59          3.059590000000         0.002347492953
   60          1.582050000000         0.006985116449
   61          0.774834000000         0.004968369988
   62          0.363056000000        -0.004864211442
   63          0.161047000000        -0.009865894554
   64         29.499800000000         0.000093019167
   65          7.404370000000        -0.001048418700
   66          3.059590000000         0.006664932577
   67          1.582050000000         0.019831936068
   68          0.774834000000         0.014106049153
   69          0.363056000000        -0.013810325290
   70          0.161047000000        -0.028010956078
   71         29.499800000000         0.000017036490
   72          7.404370000000        -0.000204066667
   73          3.059590000000         0.001583572407
   74          1.582050000000         0.003590773536
   75          0.774834000000        -0.002177706641
   76          0.363056000000        -0.004478414603
   77          0.161047000000         0.001898356574
   78         29.499800000000        -0.000090371656
   79          7.404370000000         0.001082490723
   80          3.059590000000        -0.008400207969
   81          1.582050000000        -0.019047594123
   82          0.774834000000         0.011551848593
   83          0.363056000000         0.023756169200
   84          0.161047000000        -0.010070010029
   85         29.499800000000         0.000015319285
   86          7.404370000000        -0.000183497624
   87          3.059590000000         0.001423955113
   88          1.582050000000         0.003228838992
   89          0.774834000000        -0.001958203169
   90          0.363056000000        -0.004027009654
   91          0.161047000000         0.001707010388
   92         29.499800000000        -0.000021579980
   93          7.404370000000         0.000258489543
   94          3.059590000000        -0.002005897948
   95          1.582050000000        -0.004548402862
 P 95
    1         24.211700000000         0.000358511478
    2         15.133100000000        -0.006175297682
    3          6.447200000000         0.043471616238
    4          1.777760000000        -0.101640613517
    5          0.899020000000        -0.108467089734
    6          0.444522000000        -0.046731141702
    7          0.188674000000        -0.005529114231
    8          0.078514000000         0.000013168893
    9         24.211700000000         0.000061178603
   10         15.133100000000        -0.001053790766
   11          6.447200000000         0.007418263883
   12          1.777760000000        -0.017344579234
   13          0.899020000000        -0.018509491109
   14          0.444522000000        -0.007974489349
   15          0.188674000000        -0.000943522048
   16          0.078514000000         0.000002247221
   17         24.211700000000         0.000244353751
   18         15.133100000000        -0.004208950746
   19          6.447200000000         0.029629323313
   20          1.777760000000        -0.069276067011
   21          0.899020000000        -0.073928847110
   22          0.444522000000        -0.031850946113
   23          0.188674000000        -0.003768525934
   24          0.078514000000         0.000008975636
   25         24.211700000000         0.000772667380
   26         15.133100000000         0.038235333251
   27          6.447200000000        -0.330403153495
   28          1.777760000000         0.942788964317
   29          0.899020000000         1.078561861091
   30          0.444522000000         0.196737531742
   31          0.188674000000        -2.016802623695
   32          0.078514000000        -3.275483811800
   33         24.211700000000         0.000131852713
   34         15.133100000000         0.006524712358
   35          6.447200000000        -0.056382025616
   36          1.777760000000         0.160883305665
   37          0.899020000000         0.184052427579
   38          0.444522000000         0.033572502069
   39          0.188674000000        -0.344159600139
   40          0.078514000000        -0.558948697154
   41         24.211700000000         0.000526633551
   42         15.133100000000         0.026060384888
   43          6.447200000000        -0.225195718624
   44          1.777760000000         0.642584781906
   45          0.899020000000         0.735124682737
   46          0.444522000000         0.134092091350
   47          0.188674000000        -1.374609507689
   48          0.078514000000        -2.232499669072
   49         24.211700000000         0.000470217608
   50         15.133100000000        -0.042713026364
   51          6.447200000000         0.350200115110
   52          1.777760000000        -1.075611440840
   53          0.899020000000        -1.179177655097
   54          0.444522000000         0.684067367784
   55          0.188674000000         2.176368324715
   56          0.078514000000         0.984453212006
   57         24.211700000000         0.000080240824
   58         15.133100000000        -0.007288813442
   59          6.447200000000         0.059760300869
   60          1.777760000000        -0.183548949727
   61          0.899020000000        -0.201222125310
   62          0.444522000000         0.116733461668
   63          0.188674000000         0.371388872461
   64          0.078514000000         0.167993149067
   65         24.211700000000         0.000320490259
   66         15.133100000000        -0.029112284689
   67          6.447200000000         0.238688903996
   68          1.777760000000        -0.733113739437
   69          0.899020000000        -0.803702254704
   70          0.444522000000         0.466245678487
   71          0.188674000000         1.483366074722
   72          0.078514000000         0.670982241497
   73         24.211700000000        -0.001113924821
   74         15.133100000000         0.013197398243
   75          6.447200000000        -0.095557247061
   76          1.777760000000         0.389848059832
   77          0.899020000000         0.187323088537
   78          0.444522000000        -0.733346887934
   79          0.188674000000         0.054913979123
   80          0.078514000000         0.400613098811
   81         24.211700000000        -0.000190086981
   82         15.133100000000         0.002252085181
   83          6.447200000000        -0.016306476178
   84          1.777760000000         0.066526069934
   85          0.899020000000         0.031965963595
   86          0.444522000000        -0.125142821985
   87          0.188674000000         0.009370859039
   88          0.078514000000         0.068363082375
   89         24.211700000000        -0.000759227320
   90         15.133100000000         0.008995064211
   91          6.447200000000        -0.065129774623
   92          1.777760000000         0.265712094633
   93          0.899020000000         0.127675408337
   94          0.444522000000        -0.499833544816
   95          0.188674000000         0.037428192983
 D 95
    1         19.908700000000        -0.000000000665
    2         12.446800000000         0.000000006189
    3          7.778210000000        -0.000000008370
    4          4.580060000000        -0.000000031468
    5          1.290680000000         0.000000177473
    6          0.593414000000         0.000000237307
    7        228.932000000000         0.000000001381
    8         19.908700000000        -0.000001295688
    9         12.446800000000         0.000012441569
   10          7.778210000000        -0.000019924247
   11          4.580060000000        -0.000055794004
   12          1.290680000000         0.000440353045
   13          0.593414000000         0.000880396535
   14          0.149158000000        -0.003070935767
   15          0.071953000000        -0.014285002949
   16        228.932000000000         0.000000001575
   17         19.908700000000        -0.000000588655
   18         12.446800000000         0.000011149647
   19          7.778210000000        -0.000001508022
   20          4.580060000000        -0.000174871875
   21          1.290680000000         0.001714866739
   22          0.593414000000        -0.001232553505
   23          0.149158000000        -0.019724551087
   24          0.071953000000         0.025184902688
   25        228.932000000000        -0.000000001529
   26         19.908700000000         0.000001453682
   27         12.446800000000        -0.000013771421
   28          7.778210000000         0.000024231685
   29          4.580060000000         0.000061759533
   30          1.290680000000        -0.001235774201
   31          0.593414000000         0.002950558162
   32          0.149158000000        -0.004004083095
   33          0.071953000000        -0.006758789165
   34          0.031752000000         0.063167118741
   35          0.014000000000        -0.078269494609
   36         29.499800000000         0.000320295905
   37          7.404370000000        -0.003521726938
   38          3.059590000000         0.020068820412
   39          1.582050000000         0.056108125266
   40          0.774834000000         0.069555587162
   41          0.363056000000         0.056775647126
   42          0.161047000000         0.030550919095
   43         29.499800000000         0.000127050569
   44          7.404370000000        -0.001396950141
   45          3.059590000000         0.007960623295
   46          1.582050000000         0.022256198414
   47          0.774834000000         0.027590352401
   48          0.363056000000         0.022520981792
   49          0.161047000000         0.012118517841
   50         29.499800000000         0.000629876009
   51          7.404370000000        -0.006925631179
   52          3.059590000000         0.039466219503
   53          1.582050000000         0.110339100267
   54          0.774834000000         0.136784126533
   55          0.363056000000         0.111651811412
   56          0.161047000000         0.060079728368
   57         29.499800000000        -0.000061392912
   58          7.404370000000         0.000675029144
   59          3.059590000000        -0.003846703309
   60          1.582050000000        -0.010754558898
   61          0.774834000000        -0.013332109302
   62          0.363056000000        -0.010882506554
   63          0.161047000000        -0.005855865924
   64         29.499800000000         0.000080775536
   65          7.404370000000        -0.000888145548
   66          3.059590000000         0.005061162835
   67          1.582050000000         0.014149927724
   68          0.774834000000         0.017541247841
   69          0.363056000000         0.014318270295
   70          0.161047000000         0.007704646966
   71         29.499800000000        -0.000244672169
   72          7.404370000000         0.002757699152
   73          3.059590000000        -0.017531048348
   74          1.582050000000        -0.052164763267
   75          0.774834000000        -0.037103725637
   76          0.363056000000         0.036325870904
   77          0.161047000000         0.073678378536
   78         29.499800000000        -0.000097051842
   79          7.404370000000         0.001093870971
   80          3.059590000000        -0.006953878516
   81          1.582050000000        -0.020691713317
   82          0.774834000000        -0.014717591067
   83          0.363056000000         0.014409046637
   84          0.161047000000         0.029225319753
   85         29.499800000000        -0.000481031838
   86          7.404370000000         0.005421708147
   87          3.059590000000        -0.034466496318
   88          1.582050000000        -0.102557279254
   89          0.774834000000        -0.072946888151
   90          0.363056000000         0.071417605547
   91          0.161047000000         0.144853605561
   92         29.499800000000         0.000046995826
   93          7.404370000000        -0.000529689787
   94          3.059590000000         0.003367306130
   95          1.582050000000         0.010019636227
 P 95
    1         24.211700000000         0.000340303323
    2         15.133100000000        -0.005861665392
    3          6.447200000000         0.041263770841
    4          1.777760000000        -0.096478469108
    5          0.899020000000        -0.102958240846
    6          0.444522000000        -0.044357750855
    7          0.188674000000        -0.005248300439
    8          0.078514000000         0.000012500069
    9         24.211700000000         0.000058071451
   10         15.133100000000        -0.001000270623
   11          6.447200000000         0.007041503568
   12          1.777760000000        -0.016463679170
   13          0.899020000000        -0.017569427261
   14          0.444522000000        -0.007569479341
   15          0.188674000000        -0.000895602256
   16          0.078514000000         0.000002133089
   17         24.211700000000         0.000231943462
   18         15.133100000000        -0.003995185688
   19          6.447200000000         0.028124503133
   20          1.777760000000        -0.065757659839
   21          0.899020000000        -0.070174133584
   22          0.444522000000        -0.030233293696
   23          0.188674000000        -0.003577129262
   24          0.078514000000         0.000008519779
   25         24.211700000000         0.001499809596
   26         15.133100000000         0.074217860299
   27          6.447200000000        -0.641339122831
   28          1.777760000000         1.830029286927
   29          0.899020000000         2.093575411110
   30          0.444522000000         0.381883389127
   31          0.188674000000        -3.914776272320
   32          0.078514000000        -6.357977799192
   33         24.211700000000         0.000255936731
   34         15.133100000000         0.012664992013
   35          6.447200000000        -0.109442051217
   36          1.777760000000         0.312287449524
   37          0.899020000000         0.357260580578
   38          0.444522000000         0.065166929545
   39          0.188674000000        -0.668041493257
   40          0.078514000000        -1.084964423917
   41         24.211700000000         0.001022238123
   42         15.133100000000         0.050585305267
   43          6.447200000000        -0.437123021026
   44          1.777760000000         1.247308798093
   45          0.899020000000         1.426936196269
   46          0.444522000000         0.260283545464
   47          0.188674000000        -2.668227728328
   48          0.078514000000        -4.333461602862
   49         24.211700000000         0.001274206981
   50         15.133100000000        -0.115744785800
   51          6.447200000000         0.948980691872
   52          1.777760000000        -2.914717743580
   53          0.899020000000        -3.195363961042
   54          0.444522000000         1.853702200421
   55          0.188674000000         5.897575213276
   56          0.078514000000         2.667694983347
   57         24.211700000000         0.000217438514
   58         15.133100000000        -0.019751401910
   59          6.447200000000         0.161939900104
   60          1.777760000000        -0.497385357015
   61          0.899020000000        -0.545276553127
[...]
  BAS[ATNO][ 12].a[ 72] =        15.133100000000;     BAS[ATNO][ 12].d[ 72] =        -0.082744509572;
  BAS[ATNO][ 12].a[ 73] =         6.447200000000;     BAS[ATNO][ 12].d[ 73] =         0.599120932668;
  BAS[ATNO][ 12].a[ 74] =         1.777760000000;     BAS[ATNO][ 12].d[ 74] =        -2.444253475149;
  BAS[ATNO][ 12].a[ 75] =         0.899020000000;     BAS[ATNO][ 12].d[ 75] =        -1.174470665134;
  BAS[ATNO][ 12].a[ 76] =         0.444522000000;     BAS[ATNO][ 12].d[ 76] =         4.597908426418;
  BAS[ATNO][ 12].a[ 77] =         0.188674000000;     BAS[ATNO][ 12].d[ 77] =        -0.344297427984;
  BAS[ATNO][ 12].a[ 78] =         0.078514000000;     BAS[ATNO][ 12].d[ 78] =        -2.511747677756;
  BAS[ATNO][ 12].a[ 79] =        24.211700000000;     BAS[ATNO][ 12].d[ 79] =         0.001191799603;
  BAS[ATNO][ 12].a[ 80] =        15.133100000000;     BAS[ATNO][ 12].d[ 80] =        -0.014120031872;
  BAS[ATNO][ 12].a[ 81] =         6.447200000000;     BAS[ATNO][ 12].d[ 81] =         0.102237679673;
  BAS[ATNO][ 12].a[ 82] =         1.777760000000;     BAS[ATNO][ 12].d[ 82] =        -0.417102441603;
  BAS[ATNO][ 12].a[ 83] =         0.899020000000;     BAS[ATNO][ 12].d[ 83] =        -0.200418895585;
  BAS[ATNO][ 12].a[ 84] =         0.444522000000;     BAS[ATNO][ 12].d[ 84] =         0.784615364332;
  BAS[ATNO][ 12].a[ 85] =         0.188674000000;     BAS[ATNO][ 12].d[ 85] =        -0.058753030040;
  BAS[ATNO][ 12].a[ 86] =         0.078514000000;     BAS[ATNO][ 12].d[ 86] =        -0.428620067327;
  BAS[ATNO][ 12].a[ 87] =        24.211700000000;     BAS[ATNO][ 12].d[ 87] =         0.004760172503;
  BAS[ATNO][ 12].a[ 88] =        15.133100000000;     BAS[ATNO][ 12].d[ 88] =        -0.056396886946;
  BAS[ATNO][ 12].a[ 89] =         6.447200000000;     BAS[ATNO][ 12].d[ 89] =         0.408348006185;
  BAS[ATNO][ 12].a[ 90] =         1.777760000000;     BAS[ATNO][ 12].d[ 90] =        -1.665950860276;
  BAS[ATNO][ 12].a[ 91] =         0.899020000000;     BAS[ATNO][ 12].d[ 91] =        -0.800494071029;
  BAS[ATNO][ 12].a[ 92] =         0.444522000000;     BAS[ATNO][ 12].d[ 92] =         3.133835985645;
  BAS[ATNO][ 12].a[ 93] =         0.188674000000;     BAS[ATNO][ 12].d[ 93] =        -0.234665758757;
  BAS[ATNO][ 12].a[ 94] =         0.078514000000;     BAS[ATNO][ 12].d[ 94] =        -1.711953464359;

  // Basis function  14 L = d
  InitBFNGauss(BAS[ATNO][ 13]);
  BAS[ATNO][ 13].l  = 2;
  BAS[ATNO][ 13].ng = 95;
  BAS[ATNO][ 13].a[  0] =        29.499800000000;     BAS[ATNO][ 13].d[  0] =         0.000153829584;
  BAS[ATNO][ 13].a[  1] =         7.404370000000;     BAS[ATNO][ 13].d[  1] =        -0.001691391552;
  BAS[ATNO][ 13].a[  2] =         3.059590000000;     BAS[ATNO][ 13].d[  2] =         0.009638519370;
  BAS[ATNO][ 13].a[  3] =         1.582050000000;     BAS[ATNO][ 13].d[  3] =         0.026947236612;
  BAS[ATNO][ 13].a[  4] =         0.774834000000;     BAS[ATNO][ 13].d[  4] =         0.033405694025;
  BAS[ATNO][ 13].a[  5] =         0.363056000000;     BAS[ATNO][ 13].d[  5] =         0.027267829564;
  BAS[ATNO][ 13].a[  6] =         0.161047000000;     BAS[ATNO][ 13].d[  6] =         0.014672791894;
  BAS[ATNO][ 13].a[  7] =        29.499800000000;     BAS[ATNO][ 13].d[  7] =        -0.000816003417;
  BAS[ATNO][ 13].a[  8] =         7.404370000000;     BAS[ATNO][ 13].d[  8] =         0.008972144713;
  BAS[ATNO][ 13].a[  9] =         3.059590000000;     BAS[ATNO][ 13].d[  9] =        -0.051128427650;
  BAS[ATNO][ 13].a[ 10] =         1.582050000000;     BAS[ATNO][ 13].d[ 10] =        -0.142944137443;
  BAS[ATNO][ 13].a[ 11] =         0.774834000000;     BAS[ATNO][ 13].d[ 11] =        -0.177203628957;
  BAS[ATNO][ 13].a[ 12] =         0.363056000000;     BAS[ATNO][ 13].d[ 12] =        -0.144644752745;
  BAS[ATNO][ 13].a[ 13] =         0.161047000000;     BAS[ATNO][ 13].d[ 13] =        -0.077833197195;
  BAS[ATNO][ 13].a[ 14] =        29.499800000000;     BAS[ATNO][ 13].d[ 14] =         0.000138324223;
  BAS[ATNO][ 13].a[ 15] =         7.404370000000;     BAS[ATNO][ 13].d[ 15] =        -0.001520906552;
  BAS[ATNO][ 13].a[ 16] =         3.059590000000;     BAS[ATNO][ 13].d[ 16] =         0.008666998034;
  BAS[ATNO][ 13].a[ 17] =         1.582050000000;     BAS[ATNO][ 13].d[ 17] =         0.024231070954;
  BAS[ATNO][ 13].a[ 18] =         0.774834000000;     BAS[ATNO][ 13].d[ 18] =         0.030038543612;
  BAS[ATNO][ 13].a[ 19] =         0.363056000000;     BAS[ATNO][ 13].d[ 19] =         0.024519349514;
  BAS[ATNO][ 13].a[ 20] =         0.161047000000;     BAS[ATNO][ 13].d[ 20] =         0.013193837520;
  BAS[ATNO][ 13].a[ 21] =        29.499800000000;     BAS[ATNO][ 13].d[ 21] =        -0.000194854650;
  BAS[ATNO][ 13].a[ 22] =         7.404370000000;     BAS[ATNO][ 13].d[ 22] =         0.002142471560;
  BAS[ATNO][ 13].a[ 23] =         3.059590000000;     BAS[ATNO][ 13].d[ 23] =        -0.012209032028;
  BAS[ATNO][ 13].a[ 24] =         1.582050000000;     BAS[ATNO][ 13].d[ 24] =        -0.034133839674;
  BAS[ATNO][ 13].a[ 25] =         0.774834000000;     BAS[ATNO][ 13].d[ 25] =        -0.042314713767;
  BAS[ATNO][ 13].a[ 26] =         0.363056000000;     BAS[ATNO][ 13].d[ 26] =        -0.034539932090;
  BAS[ATNO][ 13].a[ 27] =         0.161047000000;     BAS[ATNO][ 13].d[ 27] =        -0.018585903010;
  BAS[ATNO][ 13].a[ 28] =        29.499800000000;     BAS[ATNO][ 13].d[ 28] =        -0.000553225559;
  BAS[ATNO][ 13].a[ 29] =         7.404370000000;     BAS[ATNO][ 13].d[ 29] =         0.006082841899;
  BAS[ATNO][ 13].a[ 30] =         3.059590000000;     BAS[ATNO][ 13].d[ 30] =        -0.034663522704;
  BAS[ATNO][ 13].a[ 31] =         1.582050000000;     BAS[ATNO][ 13].d[ 31] =        -0.096911788243;
  BAS[ATNO][ 13].a[ 32] =         0.774834000000;     BAS[ATNO][ 13].d[ 32] =        -0.120138684053;
  BAS[ATNO][ 13].a[ 33] =         0.363056000000;     BAS[ATNO][ 13].d[ 33] =        -0.098064753821;
  BAS[ATNO][ 13].a[ 34] =         0.161047000000;     BAS[ATNO][ 13].d[ 34] =        -0.052768546229;
  BAS[ATNO][ 13].a[ 35] =        29.499800000000;     BAS[ATNO][ 13].d[ 35] =        -0.000305312781;
  BAS[ATNO][ 13].a[ 36] =         7.404370000000;     BAS[ATNO][ 13].d[ 36] =         0.003441179281;
  BAS[ATNO][ 13].a[ 37] =         3.059590000000;     BAS[ATNO][ 13].d[ 37] =        -0.021876019475;
  BAS[ATNO][ 13].a[ 38] =         1.582050000000;     BAS[ATNO][ 13].d[ 38] =        -0.065093504650;
  BAS[ATNO][ 13].a[ 39] =         0.774834000000;     BAS[ATNO][ 13].d[ 39] =        -0.046299674071;
  BAS[ATNO][ 13].a[ 40] =         0.363056000000;     BAS[ATNO][ 13].d[ 40] =         0.045329032445;
  BAS[ATNO][ 13].a[ 41] =         0.161047000000;     BAS[ATNO][ 13].d[ 41] =         0.091939147720;
  BAS[ATNO][ 13].a[ 42] =        29.499800000000;     BAS[ATNO][ 13].d[ 42] =         0.001619560210;
  BAS[ATNO][ 13].a[ 43] =         7.404370000000;     BAS[ATNO][ 13].d[ 43] =        -0.018254057409;
  BAS[ATNO][ 13].a[ 44] =         3.059590000000;     BAS[ATNO][ 13].d[ 44] =         0.116043391743;
  BAS[ATNO][ 13].a[ 45] =         1.582050000000;     BAS[ATNO][ 13].d[ 45] =         0.345294584715;
  BAS[ATNO][ 13].a[ 46] =         0.774834000000;     BAS[ATNO][ 13].d[ 46] =         0.245600952304;
  BAS[ATNO][ 13].a[ 47] =         0.363056000000;     BAS[ATNO][ 13].d[ 47] =        -0.240452092998;
  BAS[ATNO][ 13].a[ 48] =         0.161047000000;     BAS[ATNO][ 13].d[ 48] =        -0.487699809711;
  BAS[ATNO][ 13].a[ 49] =        29.499800000000;     BAS[ATNO][ 13].d[ 49] =        -0.000274538565;
  BAS[ATNO][ 13].a[ 50] =         7.404370000000;     BAS[ATNO][ 13].d[ 50] =         0.003094323196;
  BAS[ATNO][ 13].a[ 51] =         3.059590000000;     BAS[ATNO][ 13].d[ 51] =        -0.019671010714;
  BAS[ATNO][ 13].a[ 52] =         1.582050000000;     BAS[ATNO][ 13].d[ 52] =        -0.058532359089;
  BAS[ATNO][ 13].a[ 53] =         0.774834000000;     BAS[ATNO][ 13].d[ 53] =        -0.041632865875;
  BAS[ATNO][ 13].a[ 54] =         0.363056000000;     BAS[ATNO][ 13].d[ 54] =         0.040760060754;
  BAS[ATNO][ 13].a[ 55] =         0.161047000000;     BAS[ATNO][ 13].d[ 55] =         0.082672076694;
  BAS[ATNO][ 13].a[ 56] =        29.499800000000;     BAS[ATNO][ 13].d[ 56] =         0.000386737152;
  BAS[ATNO][ 13].a[ 57] =         7.404370000000;     BAS[ATNO][ 13].d[ 57] =        -0.004358913070;
  BAS[ATNO][ 13].a[ 58] =         3.059590000000;     BAS[ATNO][ 13].d[ 58] =         0.027710171259;
  BAS[ATNO][ 13].a[ 59] =         1.582050000000;     BAS[ATNO][ 13].d[ 59] =         0.082453398971;
  BAS[ATNO][ 13].a[ 60] =         0.774834000000;     BAS[ATNO][ 13].d[ 60] =         0.058647410659;
  BAS[ATNO][ 13].a[ 61] =         0.363056000000;     BAS[ATNO][ 13].d[ 61] =        -0.057417907013;
  BAS[ATNO][ 13].a[ 62] =         0.161047000000;     BAS[ATNO][ 13].d[ 62] =        -0.116458550954;
  BAS[ATNO][ 13].a[ 63] =        29.499800000000;     BAS[ATNO][ 13].d[ 63] =         0.001098012685;
  BAS[ATNO][ 13].a[ 64] =         7.404370000000;     BAS[ATNO][ 13].d[ 64] =        -0.012375697093;
  BAS[ATNO][ 13].a[ 65] =         3.059590000000;     BAS[ATNO][ 13].d[ 65] =         0.078673898831;
  BAS[ATNO][ 13].a[ 66] =         1.582050000000;     BAS[ATNO][ 13].d[ 66] =         0.234099252156;
  BAS[ATNO][ 13].a[ 67] =         0.774834000000;     BAS[ATNO][ 13].d[ 67] =         0.166509994099;
  BAS[ATNO][ 13].a[ 68] =         0.363056000000;     BAS[ATNO][ 13].d[ 68] =        -0.163019223706;
  BAS[ATNO][ 13].a[ 69] =         0.161047000000;     BAS[ATNO][ 13].d[ 69] =        -0.330645674111;
  BAS[ATNO][ 13].a[ 70] =        29.499800000000;     BAS[ATNO][ 13].d[ 70] =         0.000802070480;
  BAS[ATNO][ 13].a[ 71] =         7.404370000000;     BAS[ATNO][ 13].d[ 71] =        -0.009607369086;
  BAS[ATNO][ 13].a[ 72] =         3.059590000000;     BAS[ATNO][ 13].d[ 72] =         0.074553893745;
  BAS[ATNO][ 13].a[ 73] =         1.582050000000;     BAS[ATNO][ 13].d[ 73] =         0.169052041743;
  BAS[ATNO][ 13].a[ 74] =         0.774834000000;     BAS[ATNO][ 13].d[ 74] =        -0.102525472666;
  BAS[ATNO][ 13].a[ 75] =         0.363056000000;     BAS[ATNO][ 13].d[ 75] =        -0.210841793527;
  BAS[ATNO][ 13].a[ 76] =         0.161047000000;     BAS[ATNO][ 13].d[ 76] =         0.089373794129;
  BAS[ATNO][ 13].a[ 77] =        29.499800000000;     BAS[ATNO][ 13].d[ 77] =        -0.004254657893;
  BAS[ATNO][ 13].a[ 78] =         7.404370000000;     BAS[ATNO][ 13].d[ 78] =         0.050963188055;
  BAS[ATNO][ 13].a[ 79] =         3.059590000000;     BAS[ATNO][ 13].d[ 79] =        -0.395478103659;
  BAS[ATNO][ 13].a[ 80] =         1.582050000000;     BAS[ATNO][ 13].d[ 80] =        -0.896752369732;
  BAS[ATNO][ 13].a[ 81] =         0.774834000000;     BAS[ATNO][ 13].d[ 81] =         0.543855960703;
  BAS[ATNO][ 13].a[ 82] =         0.363056000000;     BAS[ATNO][ 13].d[ 82] =         1.118430017378;
  BAS[ATNO][ 13].a[ 83] =         0.161047000000;     BAS[ATNO][ 13].d[ 83] =        -0.474091651603;
  BAS[ATNO][ 13].a[ 84] =        29.499800000000;     BAS[ATNO][ 13].d[ 84] =         0.000721225222;
  BAS[ATNO][ 13].a[ 85] =         7.404370000000;     BAS[ATNO][ 13].d[ 85] =        -0.008638987565;
  BAS[ATNO][ 13].a[ 86] =         3.059590000000;     BAS[ATNO][ 13].d[ 86] =         0.067039181614;
  BAS[ATNO][ 13].a[ 87] =         1.582050000000;     BAS[ATNO][ 13].d[ 87] =         0.152012322354;
  BAS[ATNO][ 13].a[ 88] =         0.774834000000;     BAS[ATNO][ 13].d[ 88] =        -0.092191345574;
  BAS[ATNO][ 13].a[ 89] =         0.363056000000;     BAS[ATNO][ 13].d[ 89] =        -0.189589846730;
  BAS[ATNO][ 13].a[ 90] =         0.161047000000;     BAS[ATNO][ 13].d[ 90] =         0.080365299721;
  BAS[ATNO][ 13].a[ 91] =        29.499800000000;     BAS[ATNO][ 13].d[ 91] =        -0.001015975982;
  BAS[ATNO][ 13].a[ 92] =         7.404370000000;     BAS[ATNO][ 13].d[ 92] =         0.012169574223;
  BAS[ATNO][ 13].a[ 93] =         3.059590000000;     BAS[ATNO][ 13].d[ 93] =        -0.094436794867;
  BAS[ATNO][ 13].a[ 94] =         1.582050000000;     BAS[ATNO][ 13].d[ 94] =        -0.214136810111;

-------------------------------------------
RADIAL EXPECTATION VALUES <R**-3> TO <R**3>
-------------------------------------------
   0 :     0.000000     1.329223     1.095711     1.007664     1.120230     1.373781
   1 :     1.476079     1.150498     1.012681     1.105262     1.366195     1.887856
   2 :     1.474838     1.149743     1.012287     1.105885     1.368068     1.892595
   3 :     1.472906     1.148569     1.011675     1.106854     1.370985     1.899980
   4 :     0.841198     0.737592     0.782584     1.542104     2.876780    32.411332
   5 :     0.850624     0.744641     0.787415     1.526511     2.804723    30.945016
   6 :     0.000000     0.180015     0.360330     3.370853    13.165078    58.669533
   7 :     0.000000     0.021323     0.120022     9.525927    97.598570  1058.606897
   8 :     0.000000     0.153556     0.299591     5.004232    34.792496   313.590814
   9 :     0.000000     0.655058     0.640681     3.126393    20.312909   201.327692
  10 :     0.850442     0.744492     0.787316     1.526815     2.806111    30.980478
  11 :     0.846108     0.741378     0.785267     1.532968     2.833715    31.525590
  12 :     0.843369     0.739402     0.783961     1.536940     2.851690    31.884496
  13 :     0.007088     0.020459     0.122441     9.623405   103.206416  1199.471393
  14 :     0.006791     0.019960     0.121289     9.679318   104.183143  1213.679941
  15 :     0.006360     0.019230     0.119596     9.762353   105.638561  1234.906389
  16 :     0.025707     0.050623     0.183356     7.632423    76.424023   914.047536
  17 :     0.025437     0.050387     0.183322     7.605427    75.839000   904.682127
  18 :     0.024987     0.049974     0.183172     7.567410    74.993387   890.990509
  19 :     0.004390     0.017949     0.124762     8.554738    76.998785  3628.063840
  20 :     0.004394     0.017950     0.124757     8.555129    77.004945  3628.475882
  21 :     0.004439     0.017961     0.124681     8.560590    77.091660  3633.874137
  22 :     0.004762     0.018237     0.124946     8.556465    77.038669  3630.849836
  23 :     0.004474     0.017972     0.124636     8.564073    77.147214  3637.339386
  24 :     0.081833     0.099500     0.244605     5.946812    48.169358   493.923270
  25 :     0.082089     0.099812     0.245201     5.926715    47.873986   490.102854
  26 :     0.082462     0.100278     0.246112     5.895504    47.414588   484.161412
  27 :     0.051979     0.072582     0.217143     5.702907    38.736417  1554.308533
  28 :     0.052052     0.072622     0.217167     5.702756    38.733684  1554.115731
  29 :     0.056263     0.075765     0.219473     5.689541    38.624395  1549.423925
  30 :     0.052774     0.073136     0.217493     5.700485    38.695483  1551.352541
  31 :     0.053245     0.073473     0.217709     5.698950    38.670217  1549.544282
  32 :     0.172653     0.207935     0.376112     3.867065    22.183604   183.924383
  33 :     0.173161     0.208442     0.376671     3.859664    22.102276   183.053656
  34 :     0.173954     0.209234     0.377548     3.848084    21.975309   181.697190
  35 :     0.244670     0.263880     0.419453     3.402212    16.113855   521.049437
  36 :     0.244826     0.263993     0.419542     3.401680    16.109311   520.857806
  37 :     0.251676     0.268879     0.422601     3.395918    16.103101   521.427011
  38 :     0.246644     0.265518     0.420732     3.394370    16.046656   518.166678
  39 :     0.247796     0.266485     0.421488     3.389727    16.006893   516.460325
  40 :     1.212123     0.834018     0.754654     2.170486     8.509003    59.584033
  41 :     1.213167     0.834689     0.755078     2.168446     8.492127    59.427300
  42 :     1.214814     0.835749     0.755746     2.165250     8.465769    59.182992
  43 :     1.719971     1.098668     0.884626     1.846307     6.154574   174.333144
  44 :     1.720148     1.098753     0.884674     1.846138     6.153331   174.298185
  45 :     1.721897     1.099818     0.885284     1.844105     6.139869   173.809136
  46 :     1.717679     1.097282     0.883822     1.848562     6.165304   174.555997
  47 :     1.722978     1.100478     0.885663     1.842827     6.131369   173.499593
  48 :     0.000000     2.635060     0.881732     4.896085    44.221260   492.991442
Making the total density                ... o.k.
o.k.
Initializing the integrals              ... done
Making exponents                        ... done
Making rho(0)                           ... done (         0.003185408)
Integral calculation                    ... Two index integrals                     ... done
Solving the equation system             ... done
atomic density will be written to file 45_Rh_atom45.adf

-------
TIMINGS
-------

Total SCF time: 0 days 0 hours 0 min 1 sec 

Total time                  ....       1.627 sec
Sum of individual times     ....       0.987 sec  ( 60.7%)

Fock matrix formation       ....       0.856 sec  ( 52.6%)
Diagonalization             ....       0.062 sec  (  3.8%)
Density matrix formation    ....       0.001 sec  (  0.1%)
Population analysis         ....       0.000 sec  (  0.0%)
Initial guess               ....       0.001 sec  (  0.0%)
Orbital Transformation      ....       0.000 sec  (  0.0%)
Orbital Orthonormalization  ....       0.000 sec  (  0.0%)
DIIS solution               ....       0.068 sec  (  4.2%)

-------------------------   --------------------
FINAL SINGLE POINT ENERGY      -109.331169898870
-------------------------   --------------------


                            ***************************************
                            *     ORCA property calculations      *
                            ***************************************

                                    ---------------------
                                    Active property flags
                                    ---------------------
   (+) Dipole Moment


------------------------------------------------------------------------------
                       ORCA ELECTRIC PROPERTIES CALCULATION
------------------------------------------------------------------------------

Dipole Moment Calculation                       ... on
Quadrupole Moment Calculation                   ... off
Polarizability Calculation                      ... off
GBWName                                         ... 45_Rh_atom45.gbw
Electron density file                           ... 45_Rh_atom45.scfp
The origin for moment calculation is the CENTER OF MASS  = ( 0.000000,  0.000000  0.000000)

-------------
DIPOLE MOMENT
-------------
                                X             Y             Z
Electronic contribution:      0.00000       0.00000      -0.00000
Nuclear contribution   :      0.00000       0.00000       0.00000
                        -----------------------------------------
Total Dipole Moment    :      0.00000       0.00000      -0.00000
                        -----------------------------------------
Magnitude (a.u.)       :      0.00000
Magnitude (Debye)      :      0.00000



--------------------
Rotational spectrum 
--------------------
 
Rotational constants in cm-1:     0.000000     0.000000     0.000000 
Rotational constants in MHz :     0.000000     0.000000     0.000000 

 Dipole components along the rotational axes: 
x,y,z [a.u.] :     0.000000     0.000000    -0.000000 
x,y,z [Debye]:     0.000000     0.000000    -0.000000 

 

Timings for individual modules:

Sum of individual times         ...        5.783 sec (=   0.096 min)
GTO integral calculation        ...        4.129 sec (=   0.069 min)  71.4 %
SCF iterations                  ...        1.654 sec (=   0.028 min)  28.6 %
                             ****ORCA TERMINATED NORMALLY****
TOTAL RUN TIME: 0 days 0 hours 0 minutes 6 seconds 21 msec
