
                                 *****************
                                 * O   R   C   A *
                                 *****************

           --- An Ab Initio, DFT and Semiempirical electronic structure package ---

                  #######################################################
                  #                        -***-                        #
                  #          Department of theory and spectroscopy      #
                  #               Directorship: Frank Neese             #
                  #        Max Planck Institute fuer Kohlenforschung    #
                  #                Kaiser Wilhelm Platz 1               #
                  #                 D-45470 Muelheim/Ruhr               #
                  #                      Germany                        #
                  #                                                     #
                  #                  All rights reserved                #
                  #                        -***-                        #
                  #######################################################


                         Program Version 4.2.0 -  RELEASE  -


 With contributions from (in alphabetic order):
   Daniel Aravena         : Magnetic Suceptibility
   Michael Atanasov       : Ab Initio Ligand Field Theory (pilot matlab implementation)
   Alexander A. Auer      : GIAO ZORA, VPT2
   Ute Becker             : Parallelization
   Giovanni Bistoni       : ED, misc. LED, open-shell LED, HFLED
   Martin Brehm           : Molecular dynamics
   Dmytro Bykov           : SCF Hessian
   Vijay G. Chilkuri      : MRCI spin determinant printing, contributions to CSF-ICE
   Dipayan Datta          : RHF DLPNO-CCSD density
   Achintya Kumar Dutta   : EOM-CC, STEOM-CC
   Dmitry Ganyushin       : Spin-Orbit,Spin-Spin,Magnetic field MRCI
   Miquel Garcia          : C-PCM Hessian, Gaussian charge scheme
   Yang Guo               : DLPNO-NEVPT2, CIM, IAO-localization
   Andreas Hansen         : Spin unrestricted coupled pair/coupled cluster methods
   Benjamin Helmich-Paris : CASSCF linear response (MC-RPA)
   Lee Huntington         : MR-EOM, pCC
   Robert Izsak           : Overlap fitted RIJCOSX, COSX-SCS-MP3, EOM
   Christian Kollmar      : KDIIS, OOCD, Brueckner-CCSD(T), CCSD density
   Simone Kossmann        : Meta GGA functionals, TD-DFT gradient, OOMP2, MP2 Hessian
   Martin Krupicka        : AUTO-CI
   Lucas Lang             : DCDCAS
   Dagmar Lenk            : GEPOL surface, SMD
   Dimitrios Liakos       : Extrapolation schemes; Compound Job, initial MDCI parallelization
   Dimitrios Manganas     : Further ROCIS development; embedding schemes
   Dimitrios Pantazis     : SARC Basis sets
   Taras Petrenko         : DFT Hessian,TD-DFT gradient, ASA, ECA, R-Raman, ABS, FL, XAS/XES, NRVS
   Peter Pinski           : DLPNO-MP2, DLPNO-MP2 Gradient
   Christoph Reimann      : Effective Core Potentials
   Marius Retegan         : Local ZFS, SOC
   Christoph Riplinger    : Optimizer, TS searches, QM/MM, DLPNO-CCSD(T), (RO)-DLPNO pert. Triples
   Tobias Risthaus        : Range-separated hybrids, TD-DFT gradient, RPA, STAB
   Michael Roemelt        : Original ROCIS implementation
   Masaaki Saitow         : Open-shell DLPNO-CCSD energy and density
   Barbara Sandhoefer     : DKH picture change effects
   Avijit Sen             : IP-ROCIS
   Kantharuban Sivalingam : CASSCF convergence, NEVPT2, FIC-MRCI
   Bernardo de Souza      : ESD, SOC TD-DFT
   Georgi Stoychev        : AutoAux, RI-MP2 NMR
   Willem Van den Heuvel  : Paramagnetic NMR
   Boris Wezisla          : Elementary symmetry handling
   Frank Wennmohs         : Technical directorship


 We gratefully acknowledge several colleagues who have allowed us to
 interface, adapt or use parts of their codes:
   Stefan Grimme, W. Hujo, H. Kruse,             : VdW corrections, initial TS optimization,
                  C. Bannwarth                     DFT functionals, gCP, sTDA/sTD-DF
   Ed Valeev, F. Pavosevic, A. Kumar             : LibInt (2-el integral package), F12 methods
   Garnet Chan, S. Sharma, J. Yang, R. Olivares  : DMRG
   Ulf Ekstrom                                   : XCFun DFT Library
   Mihaly Kallay                                 : mrcc  (arbitrary order and MRCC methods)
   Andreas Klamt, Michael Diedenhofen            : otool_cosmo (COSMO solvation model)
   Jiri Pittner, Ondrej Demel                    : Mk-CCSD
   Frank Weinhold                                : gennbo (NPA and NBO analysis)
   Christopher J. Cramer and Donald G. Truhlar   : smd solvation model
   Lars Goerigk                                  : TD-DFT with DH, B97 family of functionals
   V. Asgeirsson, H. Jonsson                     : NEB implementation
   FAccTs GmbH                                   : IRC, NEB, NEB-TS, Multilevel, MM, QM/MM, CI optimization
   S Lehtola, MJT Oliveira, MAL Marques          : LibXC Library


 Your calculation uses the libint2 library for the computation of 2-el integrals
 For citations please refer to: http://libint.valeyev.net

 Your ORCA version has been built with support for libXC version: 4.2.3
 For citations please refer to: https://tddft.org/programs/libxc/

 This ORCA versions uses:
   CBLAS   interface :  Fast vector & matrix operations
   LAPACKE interface :  Fast linear algebra routines
   SCALAPACK package :  Parallel linear algebra routines


----- Orbital basis set information -----
Your calculation utilizes the basis: aug-cc-pVTZ-PP 
       Ca, Sr, Ba, Ra : Obtained from the Peterson Research Group Website (tyr0.chem.wsu.edu/~kipeters) Feb. 2017
                        H. Li, H. Feng, W. Sun, Y. Zhang, Q. Fan, K. A. Peterson, Y. Xie, H. F. Schaefer III, Mol. Phys. 111, 2292 (2013)
  Cu-Zn, Ag-Cd, Au-Hg : Obtained from the ccRepo (grant-hill.group.shef.ac.uk/ccrepo) Feb. 2017
                        K. A. Peterson, C. Puzzarini, Theor. Chem. Acc. 114, 283 (2005)
  Ga-Kr, In-Xe, Tl-Rn : Obtained from the ccRepo (grant-hill.group.shef.ac.uk/ccrepo) Feb. 2017
                        K. A. Peterson, J. Chem. Phys. 119, 11099 (2003)
                        K. A. Peterson, D. Figgen, E. Goll, H. Stoll, M. Dolg, J. Chem. Phys. 119, 11113 (2003)
                 Y-Pd : Obtained from the ccRepo (grant-hill.group.shef.ac.uk/ccrepo) Feb. 2017
                        K. A. Peterson, D. Figgen, M. Dolg, H. Stoll, J. Chem. Phys. 126, 124101 (2007)
                Hf-Pt : Obtained from the ccRepo (grant-hill.group.shef.ac.uk/ccrepo) Feb. 2017
                        D. Figgen, K. A. Peterson, M. Dolg, H. Stoll, J. Chem. Phys. 130, 164108 (2009)

cite the ECPs for Pd [SK MCDHF RSC] as follows:
O: B. Metz and H. Stoll, private communication (KAP)
Tl: B. Metz, M. Schweizer, H. Stoll, M. Dolg, W. Liu, Theor. Chem. Acc. 104, 22 (2000)
Ga-As, In-Sb, Pb-Bi: B. Metz, H. Stoll, M. Dolg, J. Chem. Phys. 113, 2563 (2000)
Se-Kr, Te-Xe, Po-Rn: K.A. Peterson, D. Figgen, E. Goll, H. Stoll, and M. Dolg, J. Chem. Phys., in press (2003)
Cu-Zn, Ag-Cd, Au-Hg: D. Figgen, G. Rauhut, M. Dolg, and H. Stoll, Chem. Phys. 311, 227 (2005)
Y-Pd: K.A. Peterson, D. Figgen, M. Dolg, H. Stoll, J. Chem. Phys. 126, 124101 (2007)
I: K. A. Peterson, B. C. Shepler, D. Figgen, H. Stoll, J. Phys. Chem. A 110, 13877 (2006)
Hf-Pt: D. Figgen, K.A. Peterson, M. Dolg, H. Stoll, J. Chem. Phys. 130, 164108 (2009)
Ca, Sr, Ba, Ra: I.S. Lim, H. Stoll, P. Schwerdtfeger, J. Chem. Phys. 124, 034107 (2006)

ECP parameters for Pd [SK MCDHF RSC] have been obtained from:
cc-pVDZ-PP  EMSL  Basis Set Exchange Library   4/7/16 5:27 AM
Ca, Sr, Ba, Ra: http://www.tc.uni-koeln.de/PP/index.en.html 3/16/17 1:54 PM

================================================================================
                                        WARNINGS
                       Please study these warnings very carefully!
================================================================================


WARNING: MDCI localization with Augmented Hessian Foster-Boys
  ===> : Switching off randomization!

WARNING: Post HF methods need fully converged wavefunctions
  ===> : Setting SCFConvForced true
         You can overwrite this default with %scf ConvForced false 


INFO   : the flag for use of LIBINT has been found!

================================================================================
                                       INPUT FILE
================================================================================
NAME = 46_Pd.in
|  1> #
|  2> # 46_Pd CCSD(T)/aug-cc-pVTZ-PP
|  3> #
|  4> ! CCSD(T) aug-cc-pVTZ-PP tightscf
|  5> 
|  6> *xyz 0 1
|  7>  Pd 0.0 0.0 0.0
|  8> *
|  9> 
| 10> %maxcore 5000 
| 11> 
| 12> %pal
| 13> nprocs 24
| 14> end
| 15> 
| 16> 
| 17>                          ****END OF INPUT****
================================================================================

                       ****************************
                       * Single Point Calculation *
                       ****************************

---------------------------------
CARTESIAN COORDINATES (ANGSTROEM)
---------------------------------
  Pd     0.000000    0.000000    0.000000

----------------------------
CARTESIAN COORDINATES (A.U.)
----------------------------
  NO LB      ZA    FRAG     MASS         X           Y           Z
   0 Pd   18.0000*   0   106.400    0.000000    0.000000    0.000000
* core charge reduced due to ECP

--------------------------------
INTERNAL COORDINATES (ANGSTROEM)
--------------------------------
 Pd     0   0   0     0.000000000000     0.00000000     0.00000000

---------------------------
INTERNAL COORDINATES (A.U.)
---------------------------
 Pd     0   0   0     0.000000000000     0.00000000     0.00000000

---------------------
BASIS SET INFORMATION
---------------------
There are 1 groups of distinct atoms

 Group   1 Type Pd  : 38s34p23d3f2g contracted to 6s6p5d3f2g pattern {999911/888811/77711/111/11}

Atom   0Pd   basis set group =>   1
-------------------------
ECP PARAMETER INFORMATION
-------------------------

 Group 1, Type Pd ECP SK MCDHF RSC (replacing 28 core electrons, lmax=4)

Atom   0Pd   ECP group =>   1


Checking for AutoStart:
The File: 46_Pd.gbw exists
Trying to determine its content:
     ... Fine, the file contains calculation information
     ... Fine, the calculation information was read
     ... Fine, the file contains a basis set
     ... Fine, the basis set was read
     ... Fine, the file contains ECP parameters
     ... Fine, ECP parameters were read
     ... Fine, the file contains a geometry
     ... Fine, the geometry was read
     ... The file does not contain orbitals - skipping AutoStart


           ************************************************************
           *        Program running with 24 parallel MPI-processes    *
           *              working on a common directory               *
           ************************************************************
------------------------------------------------------------------------------
                           ORCA GTO INTEGRAL CALCULATION
------------------------------------------------------------------------------

                         BASIS SET STATISTICS AND STARTUP INFO

 # of primitive gaussian shells          ...  100
 # of primitive gaussian functions       ...  294
 # of contracted shells                  ...   22
 # of contracted basis functions         ...   88
 Highest angular momentum                ...    4
 Maximum contraction depth               ...    9
 Integral package used                   ... LIBINT
 Integral threshhold            Thresh   ...  2.500e-11
 Primitive cut-off              TCut     ...  2.500e-12


------------------------------ INTEGRAL EVALUATION ----------------------------


 * One electron integrals 

   ECP integrals                         ... done
 Pre-screening matrix                    ... done
 Shell pair data                         ... done (   0.000 sec)



           ************************************************************
           *        Program running with 24 parallel MPI-processes    *
           *              working on a common directory               *
           ************************************************************
-------------------------------------------------------------------------------
                                 ORCA SCF
-------------------------------------------------------------------------------

------------
SCF SETTINGS
------------
Hamiltonian:
 Ab initio Hamiltonian  Method          .... Hartree-Fock(GTOs)


General Settings:
 Integral files         IntName         .... 46_Pd
 Hartree-Fock type      HFTyp           .... RHF
 Total Charge           Charge          ....    0
 Multiplicity           Mult            ....    1
 Number of Electrons    NEL             ....   18
 Basis Dimension        Dim             ....   88
 Nuclear Repulsion      ENuc            ....      0.0000000000 Eh

Convergence Acceleration:
 DIIS                   CNVDIIS         .... on
   Start iteration      DIISMaxIt       ....    12
   Startup error        DIISStart       ....  0.200000
   # of expansion vecs  DIISMaxEq       ....     5
   Bias factor          DIISBfac        ....   1.050
   Max. coefficient     DIISMaxC        ....  10.000
 Newton-Raphson         CNVNR           .... off
 SOSCF                  CNVSOSCF        .... off
 Level Shifting         CNVShift        .... on
   Level shift para.    LevelShift      ....    0.2500
   Turn off err/grad.   ShiftErr        ....    0.0010
 Zerner damping         CNVZerner       .... off
 Static damping         CNVDamp         .... on
   Fraction old density DampFac         ....    0.7000
   Max. Damping (<1)    DampMax         ....    0.9800
   Min. Damping (>=0)   DampMin         ....    0.0000
   Turn off err/grad.   DampErr         ....    0.1000
 Fernandez-Rico         CNVRico         .... off

SCF Procedure:
 Maximum # iterations   MaxIter         ....   125
 SCF integral mode      SCFMode         .... Direct
   Integral package                     .... LIBINT
 Reset frequency        DirectResetFreq ....    20
 Integral Threshold     Thresh          ....  2.500e-11 Eh
 Primitive CutOff       TCut            ....  2.500e-12 Eh

Convergence Tolerance:
 Convergence Check Mode ConvCheckMode   .... Total+1el-Energy
 Convergence forced     ConvForced      .... 1
 Energy Change          TolE            ....  1.000e-08 Eh
 1-El. energy change                    ....  1.000e-05 Eh
 DIIS Error             TolErr          ....  5.000e-07


Diagonalization of the overlap matrix:
Smallest eigenvalue                        ... 2.988e-03
Time for diagonalization                   ...    0.002 sec
Threshold for overlap eigenvalues          ... 1.000e-08
Number of eigenvalues below threshold      ... 0
Time for construction of square roots      ...    0.010 sec
Total time needed                          ...    0.012 sec

-------------------
DFT GRID GENERATION
-------------------

General Integration Accuracy     IntAcc      ...  4.340
Radial Grid Type                 RadialGrid  ... Gauss-Chebyshev
Angular Grid (max. acc.)         AngularGrid ... Lebedev-110
Angular grid pruning method      GridPruning ... 3 (G Style)
Weight generation scheme         WeightScheme... Becke
Basis function cutoff            BFCut       ...    1.0000e-11
Integration weight cutoff        WCut        ...    1.0000e-14
Grids for H and He will be reduced by one unit

# of grid points (after initial pruning)     ...   3244 (   0.0 sec)
# of grid points (after weights+screening)   ...   3244 (   0.0 sec)
Grid point division into batches done        ...    0.0 sec
Reduced shell lists constructed in    0.0 sec

Total number of grid points                  ...     3244
Total number of batches                      ...       51
Average number of points per batch           ...       63
Average number of grid points per atom       ...     3244
Average number of shells per batch           ...    13.50 (61.36%)
Average number of basis functions per batch  ...    42.00 (47.73%)
Average number of large shells per batch     ...    12.75 (94.44%)
Average number of large basis fcns per batch ...    39.75 (94.64%)
Maximum spatial batch extension              ...  21.54, 32.49, 32.49 au
Average spatial batch extension              ...   1.19,  1.70,  1.91 au

Time for grid setup =    0.071 sec

------------------------------
INITIAL GUESS: MODEL POTENTIAL
------------------------------
Loading Hartree-Fock densities                     ... done
  calling /sw/apps/orca/orca_4_2_0_linux_x86-64_openmpi314/orca 46_Pd_atom46.inp > 46_Pd_atom46.out in order to generate an atomic fitting density for atom 0 (Pd with ECP) on-the-fly... 
    atom 0 (Pd), assumed electronic state with S=3: 1s2 2s2 2p6 3s2 3p6 4s2 3d10 4p6 5s2 4d8           ... done
Calculating cut-offs                               ... done
Setting up the integral package                    ... done
Initializing the effective Hamiltonian             ... done
Starting the Coulomb interaction                   ... done (   0.0 sec)
Reading the grid                                   ... done
Mapping shells                                     ... done
Starting the XC term evaluation                    ... done (   0.0 sec)
Transforming the Hamiltonian                       ... done (   0.0 sec)
Diagonalizing the Hamiltonian                      ... done (   0.0 sec)
Back transforming the eigenvectors                 ... done (   0.0 sec)
Now organizing SCF variables                       ... done
                      ------------------
                      INITIAL GUESS DONE (   5.9 sec)
                      ------------------
--------------
SCF ITERATIONS
--------------
ITER       Energy         Delta-E        Max-DP      RMS-DP      [F,P]     Damp
               ***  Starting incremental Fock matrix formation  ***
  0   -126.3551496975   0.000000000000 0.09787946  0.00327266  0.4563339 0.7000
  1   -126.4652698892  -0.110120191694 0.06086855  0.00212315  0.2349149 0.7000
                               ***Turning on DIIS***
  2   -126.5140503060  -0.048780416862 0.03664764  0.00123391  0.1235428 0.7000
  3   -126.7529451969  -0.238894890879 0.07202732  0.00240145  0.0696353 0.0000
  4   -126.5630474256   0.189897771311 0.00521066  0.00018121  0.0132046 0.0000
  5   -126.6125306729  -0.049483247306 0.00101250  0.00003681  0.0038555 0.0000
  6   -126.6074449475   0.005085725440 0.00073259  0.00003209  0.0004346 0.0000
  7   -126.6093440113  -0.001899063846 0.00016700  0.00000750  0.0001378 0.0000
  8   -126.6089316774   0.000412333883 0.00002931  0.00000080  0.0000106 0.0000
  9   -126.6090092736  -0.000077596185 0.00000592  0.00000017  0.0000014 0.0000
                            ***DIIS convergence achieved***

               *****************************************************
               *                     SUCCESS                       *
               *           SCF CONVERGED AFTER  10 CYCLES          *
               *****************************************************


----------------
TOTAL SCF ENERGY
----------------

Total Energy       :         -126.60901568 Eh           -3445.20647 eV

Components:
Nuclear Repulsion  :            0.00000000 Eh               0.00000 eV
Electronic Energy  :         -126.60901568 Eh           -3445.20647 eV
One Electron Energy:         -227.73593004 Eh           -6197.00971 eV
Two Electron Energy:          101.12691436 Eh            2751.80324 eV

Virial components:
Potential Energy   :         -175.40987154 Eh           -4773.14527 eV
Kinetic Energy     :           48.80085586 Eh            1327.93880 eV
Virial Ratio       :            3.59440154


---------------
SCF CONVERGENCE
---------------

  Last Energy change         ...   -6.4103e-06  Tolerance :   1.0000e-08
  Last MAX-Density change    ...    7.8109e-07  Tolerance :   1.0000e-07
  Last RMS-Density change    ...    2.7108e-08  Tolerance :   5.0000e-09
  Last DIIS Error            ...    1.7944e-07  Tolerance :   5.0000e-07

             **** THE GBW FILE WAS UPDATED (46_Pd.gbw) ****
             **** DENSITY FILE WAS UPDATED (46_Pd.scfp) ****
             **** ENERGY FILE WAS UPDATED (46_Pd.en.tmp) ****
             **** THE GBW FILE WAS UPDATED (46_Pd.gbw) ****
             **** DENSITY FILE WAS UPDATED (46_Pd.scfp) ****
----------------
ORBITAL ENERGIES
----------------

  NO   OCC          E(Eh)            E(eV) 
   0   2.0000      -3.853284      -104.8532 
   1   2.0000      -2.418570       -65.8126 
   2   2.0000      -2.418570       -65.8126 
   3   2.0000      -2.418570       -65.8126 
   4   2.0000      -0.326411        -8.8821 
   5   2.0000      -0.326411        -8.8821 
   6   2.0000      -0.326411        -8.8821 
   7   2.0000      -0.326411        -8.8821 
   8   2.0000      -0.326411        -8.8821 
   9   0.0000       0.009553         0.2599 
  10   0.0000       0.026482         0.7206 
  11   0.0000       0.026482         0.7206 
  12   0.0000       0.026482         0.7206 
  13   0.0000       0.077885         2.1194 
  14   0.0000       0.095725         2.6048 
  15   0.0000       0.095725         2.6048 
  16   0.0000       0.095725         2.6048 
  17   0.0000       0.097360         2.6493 
  18   0.0000       0.097360         2.6493 
  19   0.0000       0.097360         2.6493 
  20   0.0000       0.097360         2.6493 
  21   0.0000       0.097360         2.6493 
  22   0.0000       0.278238         7.5712 
  23   0.0000       0.278238         7.5712 
  24   0.0000       0.278238         7.5712 
  25   0.0000       0.338693         9.2163 
  26   0.0000       0.338693         9.2163 
  27   0.0000       0.338693         9.2163 
  28   0.0000       0.338693         9.2163 
  29   0.0000       0.338693         9.2163 
  30   0.0000       0.421953        11.4819 
  31   0.0000       0.875852        23.8331 
  32   0.0000       0.875852        23.8331 
  33   0.0000       0.875852        23.8331 
  34   0.0000       0.915228        24.9046 
  35   0.0000       0.915228        24.9046 
  36   0.0000       0.915228        24.9046 
  37   0.0000       0.915228        24.9046 
  38   0.0000       0.915228        24.9046 
  39   0.0000       0.915228        24.9046 
  40   0.0000       0.915228        24.9046 
  41   0.0000       1.130941        30.7745 
  42   0.0000       1.130941        30.7745 
  43   0.0000       1.130941        30.7745 
  44   0.0000       1.130941        30.7745 
  45   0.0000       1.130941        30.7745 
  46   0.0000       2.222890        60.4879 
  47   0.0000       2.222890        60.4879 
  48   0.0000       2.222890        60.4879 
  49   0.0000       2.222890        60.4879 
  50   0.0000       2.222890        60.4879 
  51   0.0000       2.222890        60.4879 
  52   0.0000       2.222890        60.4879 
  53   0.0000       2.277059        61.9619 
  54   0.0000       2.763390        75.1957 
  55   0.0000       2.763390        75.1957 
  56   0.0000       2.763390        75.1957 
  57   0.0000       2.763390        75.1957 
  58   0.0000       2.763390        75.1957 
  59   0.0000       2.763390        75.1957 
  60   0.0000       2.763390        75.1957 
  61   0.0000       2.763390        75.1957 
  62   0.0000       2.763390        75.1957 
  63   0.0000       3.089533        84.0705 
  64   0.0000       3.089533        84.0705 
  65   0.0000       3.089533        84.0705 
  66   0.0000       3.856772       104.9481 
  67   0.0000       3.856772       104.9481 
  68   0.0000       3.856772       104.9481 
  69   0.0000       3.856772       104.9481 
  70   0.0000       3.856772       104.9481 
  71   0.0000       5.433903       147.8640 
  72   0.0000       5.433903       147.8640 
  73   0.0000       5.433903       147.8640 
  74   0.0000       5.433903       147.8640 
  75   0.0000       5.433903       147.8640 
  76   0.0000       5.433903       147.8640 
  77   0.0000       5.433903       147.8640 
  78   0.0000       6.664531       181.3511 
  79   0.0000       6.664531       181.3511 
  80   0.0000       6.664531       181.3511 
  81   0.0000       6.664531       181.3511 
  82   0.0000       6.664531       181.3511 
  83   0.0000       6.664531       181.3511 
  84   0.0000       6.664531       181.3511 
  85   0.0000       6.664531       181.3511 
  86   0.0000       6.664531       181.3511 
  87   0.0000       9.423188       256.4180 

                    ********************************
                    * MULLIKEN POPULATION ANALYSIS *
                    ********************************

-----------------------
MULLIKEN ATOMIC CHARGES
-----------------------
   0 Pd:    0.000000
Sum of atomic charges:    0.0000000

--------------------------------
MULLIKEN REDUCED ORBITAL CHARGES
--------------------------------
  0 Pds       :     2.000000  s :     2.000000
      pz      :     2.000000  p :     6.000000
      px      :     2.000000
      py      :     2.000000
      dz2     :     2.000000  d :    10.000000
      dxz     :     2.000000
      dyz     :     2.000000
      dx2y2   :     2.000000
      dxy     :     2.000000
      f0      :     0.000000  f :     0.000000
      f+1     :     0.000000
      f-1     :     0.000000
      f+2     :     0.000000
      f-2     :     0.000000
      f+3     :     0.000000
      f-3     :     0.000000
      g0      :     0.000000  g :     0.000000
      g+1     :     0.000000
      g-1     :     0.000000
      g+2     :     0.000000
      g-2     :     0.000000
      g+3     :     0.000000
      g-3     :     0.000000
      g+4     :     0.000000
      g-4     :     0.000000


                     *******************************
                     * LOEWDIN POPULATION ANALYSIS *
                     *******************************

----------------------
LOEWDIN ATOMIC CHARGES
----------------------
   0 Pd:    0.000000

-------------------------------
LOEWDIN REDUCED ORBITAL CHARGES
-------------------------------
  0 Pds       :     2.000000  s :     2.000000
      pz      :     2.000000  p :     6.000000
      px      :     2.000000
      py      :     2.000000
      dz2     :     2.000000  d :    10.000000
      dxz     :     2.000000
      dyz     :     2.000000
      dx2y2   :     2.000000
      dxy     :     2.000000
      f0      :     0.000000  f :     0.000000
      f+1     :     0.000000
      f-1     :     0.000000
      f+2     :     0.000000
      f-2     :     0.000000
      f+3     :     0.000000
      f-3     :     0.000000
      g0      :     0.000000  g :     0.000000
      g+1     :     0.000000
      g-1     :     0.000000
      g+2     :     0.000000
      g-2     :     0.000000
      g+3     :     0.000000
      g-3     :     0.000000
      g+4     :     0.000000
      g-4     :     0.000000


                      *****************************
                      * MAYER POPULATION ANALYSIS *
                      *****************************

  NA   - Mulliken gross atomic population
  ZA   - Total nuclear charge
  QA   - Mulliken gross atomic charge
  VA   - Mayer's total valence
  BVA  - Mayer's bonded valence
  FA   - Mayer's free valence

  ATOM       NA         ZA         QA         VA         BVA        FA
  0 Pd    18.0000    18.0000     0.0000     0.0000     0.0000     0.0000

  Mayer bond orders larger than 0.100000


--------------------------
ATOM BASIS FOR ELEMENT Pd
--------------------------
 NewGTO Pd
 S 38
    1        247.202000000000         0.000623450717
    2         20.793700000000        -0.050153812669
    3         13.001900000000         0.295981229781
    4          8.125620000000        -0.263782597946
    5          4.888420000000        -0.503271599433
    6          1.392060000000         0.817023172896
    7          0.638382000000         0.495972030619
    8          0.158828000000         0.032289551732
    9          0.075793000000        -0.011013296885
   10        247.202000000000         0.000000216048
   11         20.793700000000        -0.000017140191
   12         13.001900000000         0.000104642990
   13          8.125620000000        -0.000109877840
   14          4.888420000000        -0.000155004927
   15          1.392060000000         0.000355587401
   16          0.638382000000         0.000323673828
   17          0.158828000000        -0.000279944573
   18          0.075793000000        -0.000647420031
   19        247.202000000000        -0.000001514635
   20         20.793700000000         0.000052666316
   21         13.001900000000        -0.000553140439
   22          8.125620000000         0.000133738585
   23          4.888420000000         0.002723633083
   24          1.392060000000        -0.007428639096
   25          0.638382000000         0.002263058318
   26          0.158828000000         0.009729018226
   27          0.075793000000        -0.005045117522
   28        247.202000000000        -0.000001226437
   29         20.793700000000         0.000102459192
   30         13.001900000000        -0.000604403477
   31          8.125620000000         0.000697442236
   32          4.888420000000         0.000847694414
   33          1.392060000000        -0.004922799345
   34          0.638382000000         0.005225974168
   35          0.158828000000        -0.001290106310
   36          0.075793000000        -0.002095656041
   37          0.033184000000         0.007027316454
   38          0.014500000000        -0.001672562689
 S 38
    1        247.202000000000         0.000003400645
    2         20.793700000000        -0.000273566659
    3         13.001900000000         0.001614445482
    4          8.125620000000        -0.001438816319
    5          4.888420000000        -0.002745121913
    6          1.392060000000         0.004456496687
    7          0.638382000000         0.002705306024
    8          0.158828000000         0.000176125091
    9          0.075793000000        -0.000060072618
   10        247.202000000000         0.000083592421
   11         20.793700000000        -0.006631804715
   12         13.001900000000         0.040487989081
   13          8.125620000000        -0.042513433440
   14          4.888420000000        -0.059973800363
   15          1.392060000000         0.137582257847
   16          0.638382000000         0.125234403388
   17          0.158828000000        -0.108314879429
   18          0.075793000000        -0.250496810237
   19        247.202000000000        -0.000017913953
   20         20.793700000000         0.000622897273
   21         13.001900000000        -0.006542125976
   22          8.125620000000         0.001581758643
   23          4.888420000000         0.032213068292
   24          1.392060000000        -0.087860314239
   25          0.638382000000         0.026765738975
   26          0.158828000000         0.115067455490
   27          0.075793000000        -0.059669827149
   28        247.202000000000         0.000012645468
   29         20.793700000000        -0.001056430011
   30         13.001900000000         0.006231846667
   31          8.125620000000        -0.007191145049
   32          4.888420000000        -0.008740356083
   33          1.392060000000         0.050757700541
   34          0.638382000000        -0.053883657096
   35          0.158828000000         0.013301949798
   36          0.075793000000         0.021607763043
   37          0.033184000000         0.497032418358
   38          0.014500000000        -1.274047200986
 S 38
    1        247.202000000000         0.000018381141
    2         20.793700000000        -0.001478680339
    3         13.001900000000         0.008726387921
    4          8.125620000000        -0.007777078561
    5          4.888420000000        -0.014837911207
    6          1.392060000000         0.024088220569
    7          0.638382000000         0.014622698677
    8          0.158828000000         0.000951989943
    9          0.075793000000        -0.000324704039
   10        247.202000000000         0.000179499685
   11         20.793700000000        -0.014240607529
   12         13.001900000000         0.086940672550
   13          8.125620000000        -0.091289949924
   14          4.888420000000        -0.128782946680
   15          1.392060000000         0.295433146960
   16          0.638382000000         0.268918350953
   17          0.158828000000        -0.232586717161
   18          0.075793000000        -0.537896834301
   19        247.202000000000        -0.000086926925
   20         20.793700000000         0.003022590552
   21         13.001900000000        -0.031745472387
   22          8.125620000000         0.007675436929
   23          4.888420000000         0.156312959072
   24          1.392060000000        -0.426339570611
   25          0.638382000000         0.129879955023
   26          0.158828000000         0.558361417098
   27          0.075793000000        -0.289546067590
   28        247.202000000000         0.000085634709
   29         20.793700000000        -0.007154110554
   30         13.001900000000         0.042201868135
   31          8.125620000000        -0.048698206380
   32          4.888420000000        -0.059189414408
   33          1.392060000000         0.343729539520
   34          0.638382000000        -0.364898418248
   35          0.158828000000         0.090080382484
   36          0.075793000000         0.146327086563
   37          0.033184000000        -1.680862030905
   38          0.014500000000         1.664933900636
 S 38
    1        247.202000000000        -0.000091772102
    2         20.793700000000         0.007382653804
    3         13.001900000000        -0.043568511258
    4          8.125620000000         0.038828864577
    5          4.888420000000         0.074081705661
    6          1.392060000000        -0.120266015967
    7          0.638382000000        -0.073007207301
    8          0.158828000000        -0.004753030113
    9          0.075793000000         0.001621160064
   10        247.202000000000         0.000114316193
   11         20.793700000000        -0.009069275163
   12         13.001900000000         0.055369048028
   13          8.125620000000        -0.058138929382
   14          4.888420000000        -0.082016724173
   15          1.392060000000         0.188149592398
   16          0.638382000000         0.171263375965
   17          0.158828000000        -0.148125206942
   18          0.075793000000        -0.342565047854
   19        247.202000000000         0.000271739986
   20         20.793700000000        -0.009448841237
   21         13.001900000000         0.099238690603
   22          8.125620000000        -0.023993982555
   23          4.888420000000        -0.488645851402
   24          1.392060000000         1.332768976445
   25          0.638382000000        -0.406014329068
   26          0.158828000000        -1.745479016375
   27          0.075793000000         0.905142385875
   28        247.202000000000        -0.000328855646
   29         20.793700000000         0.027473318756
   30         13.001900000000        -0.162064224004
   31          8.125620000000         0.187011556031
   32          4.888420000000         0.227300044741
   33          1.392060000000        -1.319995145971
   34          0.638382000000         1.401288180040
   35          0.158828000000        -0.345927986848
   36          0.075793000000        -0.561927392848
   37          0.033184000000         2.271924189061
   38          0.014500000000        -1.183946529088
 S 38
    1        247.202000000000         0.000406888932
    2         20.793700000000        -0.032732388804
    3         13.001900000000         0.193169216387
    4          8.125620000000        -0.172155098414
    5          4.888420000000        -0.328455221853
    6          1.392060000000         0.533222076937
    7          0.638382000000         0.323691230607
    8          0.158828000000         0.021073455942
    9          0.075793000000        -0.007187719068
   10        247.202000000000        -0.000396167898
   11         20.793700000000         0.031429980212
   12         13.001900000000        -0.191883921545
   13          8.125620000000         0.201483069721
   14          4.888420000000         0.284232639480
   15          1.392060000000        -0.652040858786
   16          0.638382000000        -0.593520917688
   17          0.158828000000         0.513334554231
   18          0.075793000000         1.187174551622
   19        247.202000000000         0.000263675298
   20         20.793700000000        -0.009168418926
   21         13.001900000000         0.096293488932
   22          8.125620000000        -0.023281890153
   23          4.888420000000        -0.474143840448
   24          1.392060000000         1.293215115014
   25          0.638382000000        -0.393964652946
   26          0.158828000000        -1.693676763798
   27          0.075793000000         0.878279608350
   28        247.202000000000         0.000584146516
   29         20.793700000000        -0.048800875536
   30         13.001900000000         0.287874795707
   31          8.125620000000        -0.332188759229
   32          4.888420000000        -0.403753230216
   33          1.392060000000         2.344708311269
   34          0.638382000000        -2.489109185173
   35          0.158828000000         0.614472127672
   36          0.075793000000         0.998152025302
   37          0.033184000000        -3.026297887110
   38          0.014500000000         1.174308284500
 S 38
    1        247.202000000000        -0.002150330926
    2         20.793700000000         0.172984474055
    3         13.001900000000        -1.020862714906
    4          8.125620000000         0.909807082304
    5          4.888420000000         1.735823625411
    6          1.392060000000        -2.817977663787
    7          0.638382000000        -1.710646834156
    8          0.158828000000        -0.111369222529
    9          0.075793000000         0.037985733645
   10        247.202000000000         0.002293731753
   11         20.793700000000        -0.181973208594
   12         13.001900000000         1.110968974381
   13          8.125620000000        -1.166546094747
   14          4.888420000000        -1.645649314576
   15          1.392060000000         3.775184279684
   16          0.638382000000         3.436365693846
   17          0.158828000000        -2.972102918457
   18          0.075793000000        -6.873499787829
   19        247.202000000000        -0.001117501927
   20         20.793700000000         0.038857359398
   21         13.001900000000        -0.408108610367
   22          8.125620000000         0.098672713416
   23          4.888420000000         2.009504339138
   24          1.392060000000        -5.480871337699
   25          0.638382000000         1.669690950354
   26          0.158828000000         7.178097690210
   27          0.075793000000        -3.722302249644
   28        247.202000000000         0.001549604777
   29         20.793700000000        -0.129457366864
   30         13.001900000000         0.763664844733
   31          8.125620000000        -0.881219478126
   32          4.888420000000        -1.071063366649
   33          1.392060000000         6.219965537701
   34          0.638382000000        -6.603027454180
   35          0.158828000000         1.630051567452
   36          0.075793000000         2.647865053800
   37          0.033184000000         5.607634210538
   38          0.014500000000        -1.955936587948
 P 34
    1         24.882400000000         0.001721687889
    2         15.551700000000        -0.031528284486
    3          6.923430000000         0.201025557659
    4          1.922860000000        -0.452489971656
    5          0.971191000000        -0.479860009957
    6          0.476919000000        -0.204008016993
    7          0.193866000000        -0.022512918810
    8          0.078792000000         0.000613888713
    9         24.882400000000        -0.000001383936
   10         15.551700000000        -0.000044396914
   11          6.923430000000         0.000352433551
   12          1.922860000000        -0.000970523976
   13          0.971191000000        -0.001088504482
   14          0.476919000000        -0.000226691255
   15          0.193866000000         0.002130222804
   16          0.078792000000         0.003655522154
   17         24.882400000000        -0.000003357659
   18         15.551700000000         0.000215007314
   19          6.923430000000        -0.001572178354
   20          1.922860000000         0.004740741441
   21          0.971191000000         0.004955019961
   22          0.476919000000        -0.003761866667
   23          0.193866000000        -0.008881581111
   24          0.078792000000        -0.003364348453
   25         24.882400000000        -0.000006804686
   26         15.551700000000         0.000068475128
   27          6.923430000000        -0.000428762637
   28          1.922860000000         0.001723546492
   29          0.971191000000         0.000587477182
   30          0.476919000000        -0.003019075849
   31          0.193866000000         0.000523084469
   32          0.078792000000         0.001506651088
   33          0.031653000000        -0.001542163752
   34          0.012700000000         0.000484354566
 P 34
    1         24.882400000000         0.000016674428
    2         15.551700000000        -0.000305349249
    3          6.923430000000         0.001946918589
    4          1.922860000000        -0.004382334004
    5          0.971191000000        -0.004647410928
    6          0.476919000000        -0.001975803501
    7          0.193866000000        -0.000218036058
    8          0.078792000000         0.000005945470
    9         24.882400000000         0.000112506923
   10         15.551700000000         0.003609243309
   11          6.923430000000        -0.028651055395
   12          1.922860000000         0.078898663714
   13          0.971191000000         0.088489878876
   14          0.476919000000         0.018428846218
   15          0.193866000000        -0.173176280794
   16          0.078792000000        -0.297175361113
   17         24.882400000000         0.000071377290
   18         15.551700000000        -0.004570636453
   19          6.923430000000         0.033421447655
   20          1.922860000000        -0.100778923425
   21          0.971191000000        -0.105334067133
   22          0.476919000000         0.079969953542
   23          0.193866000000         0.188805104405
   24          0.078792000000         0.071519491072
   25         24.882400000000        -0.000188399872
   26         15.551700000000         0.001895856053
   27          6.923430000000        -0.011871058355
   28          1.922860000000         0.047719458786
   29          0.971191000000         0.016265353617
   30          0.476919000000        -0.083588499762
   31          0.193866000000         0.014482526508
   32          0.078792000000         0.041714322663
   33          0.031653000000         0.516283917755
   34          0.012700000000        -1.309687603506
 P 34
    1         24.882400000000         0.000269357676
    2         15.551700000000        -0.004932592892
    3          6.923430000000         0.031450402487
    4          1.922860000000        -0.070791952504
    5          0.971191000000        -0.075073988732
    6          0.476919000000        -0.031917007567
    7          0.193866000000        -0.003522140995
    8          0.078792000000         0.000096042749
    9         24.882400000000         0.000287883735
   10         15.551700000000         0.009235364524
   11          6.923430000000        -0.073312580493
   12          1.922860000000         0.201886616553
   13          0.971191000000         0.226428704929
   14          0.476919000000         0.047155898907
   15          0.193866000000        -0.443125038509
   16          0.078792000000        -0.760415010262
   17         24.882400000000         0.000198907109
   18         15.551700000000        -0.012736993586
   19          6.923430000000         0.093135555363
   20          1.922860000000        -0.280840647570
   21          0.971191000000        -0.293534467520
   22          0.476919000000         0.222852286723
   23          0.193866000000         0.526143225027
   24          0.078792000000         0.199303381143
   25         24.882400000000        -0.000515802296
   26         15.551700000000         0.005190486044
   27          6.923430000000        -0.032500654591
   28          1.922860000000         0.130646619773
   29          0.971191000000         0.044531382449
   30          0.476919000000        -0.228849094764
   31          0.193866000000         0.039650347725
   32          0.078792000000         0.114205722165
   33          0.031653000000         1.979168685817
   34          0.012700000000        -1.166388832734
 P 34
    1         24.882400000000         0.000381685213
    2         15.551700000000        -0.006989582761
    3          6.923430000000         0.044565849210
    4          1.922860000000        -0.100313612263
    5          0.971191000000        -0.106381343222
    6          0.476919000000        -0.045227037939
    7          0.193866000000        -0.004990944220
    8          0.078792000000         0.000136094495
    9         24.882400000000         0.001333328602
   10         15.551700000000         0.042773433139
   11          6.923430000000        -0.339545965053
   12          1.922860000000         0.935034418212
   13          0.971191000000         1.048700681574
   14          0.476919000000         0.218401740802
   15          0.193866000000        -2.052326051383
   16          0.078792000000        -3.521849139190
   17         24.882400000000         0.000816908234
   18         15.551700000000        -0.052310623750
   19          6.923430000000         0.382506198298
   20          1.922860000000        -1.153407933323
   21          0.971191000000        -1.205541243658
   22          0.476919000000         0.915250686427
   23          0.193866000000         2.160861595575
   24          0.078792000000         0.818535717453
   25         24.882400000000        -0.002048701989
   26         15.551700000000         0.020615959179
   27          6.923430000000        -0.129088521327
   28          1.922860000000         0.518911978088
   29          0.971191000000         0.176873062569
   30          0.476919000000        -0.908959884718
   31          0.193866000000         0.157486205195
   32          0.078792000000         0.453610796061
   33          0.031653000000         2.160815909895
   34          0.012700000000        -0.794265009306
 P 34
    1         24.882400000000         0.000381219432
    2         15.551700000000        -0.006981053173
    3          6.923430000000         0.044511464233
    4          1.922860000000        -0.100191196699
    5          0.971191000000        -0.106251523033
    6          0.476919000000        -0.045171846094
    7          0.193866000000        -0.004984853628
    8          0.078792000000         0.000135928415
    9         24.882400000000         0.002273000299
   10         15.551700000000         0.072918278452
   11          6.923430000000        -0.578843113816
   12          1.922860000000         1.594005789697
   13          0.971191000000         1.787779065166
   14          0.476919000000         0.372321737615
   15          0.193866000000        -3.498715709855
   16          0.078792000000        -6.003894411765
   17         24.882400000000         0.002055361809
   18         15.551700000000        -0.131614854474
   19          6.923430000000         0.962395284474
   20          1.922860000000        -2.902003578094
   21          0.971191000000        -3.033172307525
   22          0.476919000000         2.302793911963
   23          0.193866000000         5.436782512895
   24          0.078792000000         2.059456600062
   25         24.882400000000        -0.005872453748
   26         15.551700000000         0.059094132471
   27          6.923430000000        -0.370022763112
   28          1.922860000000         1.487423064193
   29          0.971191000000         0.506993640173
   30          0.476919000000        -2.605466734333
   31          0.193866000000         0.451422637733
   32          0.078792000000         1.300242023152
   33          0.031653000000         1.501901121977
   34          0.012700000000        -0.484401331248
 P 34
    1         24.882400000000         0.000285091645
    2         15.551700000000        -0.005220720055
    3          6.923430000000         0.033287512387
    4          1.922860000000        -0.074927117286
    5          0.971191000000        -0.079459279762
    6          0.476919000000        -0.033781373233
    7          0.193866000000        -0.003727879542
    8          0.078792000000         0.000101652886
    9         24.882400000000         0.002370142488
   10         15.551700000000         0.076034618205
   11          6.923430000000        -0.603581380333
   12          1.922860000000         1.662129499065
   13          0.971191000000         1.864184146148
   14          0.476919000000         0.388233811466
   15          0.193866000000        -3.648241824325
   16          0.078792000000        -6.260485423306
   17         24.882400000000         0.002034810057
   18         15.551700000000        -0.130298825390
   19          6.923430000000         0.952772205146
   20          1.922860000000        -2.872986176314
   21          0.971191000000        -3.002843337505
   22          0.476919000000         2.279768062972
   23          0.193866000000         5.382419622456
   24          0.078792000000         2.038863903325
   25         24.882400000000        -0.011249079385
   26         15.551700000000         0.113198777864
   27          6.923430000000        -0.708803443162
   28          1.922860000000         2.849258733359
   29          0.971191000000         0.971180353320
   30          0.476919000000        -4.990946440180
   31          0.193866000000         0.864730367546
   32          0.078792000000         2.490700883381
   33          0.031653000000         0.874665545098
   34          0.012700000000        -0.280623520539
 D 23
    1         29.020400000000        -0.002162170280
    2          6.411490000000         0.047740958696
    3          3.997360000000        -0.102875305362
    4          1.887420000000        -0.291883033056
    5          0.913208000000        -0.370004873324
    6          0.425675000000        -0.305069086246
    7          0.187727000000        -0.165874894837
    8         29.020400000000         0.000107956381
    9          6.411490000000        -0.002497592906
   10          3.997360000000         0.005797560598
   11          1.887420000000         0.018258719631
   12          0.913208000000         0.013606221889
   13          0.425675000000        -0.012012763674
   14          0.187727000000        -0.024679829308
   15         29.020400000000        -0.000035694829
   16          6.411490000000         0.000918356480
   17          3.997360000000        -0.002390908158
   18          1.887420000000        -0.006680845748
   19          0.913208000000         0.003116535341
   20          0.425675000000         0.007954223888
   21          0.187727000000        -0.003077414340
   22          0.075790000000        -0.069145931974
   23          0.030600000000        -0.000918829765
 D 23
    1         29.020400000000         0.000053766689
    2          6.411490000000        -0.001187174441
    3          3.997360000000         0.002558200263
    4          1.887420000000         0.007258255510
    5          0.913208000000         0.009200911345
    6          0.425675000000         0.007586153100
    7          0.187727000000         0.004124811082
    8         29.020400000000         0.000222268575
    9          6.411490000000        -0.005142228839
   10          3.997360000000         0.011936446179
   11          1.887420000000         0.037592401236
   12          0.913208000000         0.028013495080
   13          0.425675000000        -0.024732765556
   14          0.187727000000        -0.050812656338
   15         29.020400000000        -0.000147515290
   16          6.411490000000         0.003795273057
   17          3.997360000000        -0.009880857283
   18          1.887420000000        -0.027609794686
   19          0.913208000000         0.012879641910
   20          0.425675000000         0.032872258500
   21          0.187727000000        -0.012717967349
   22          0.075790000000         0.395739195903
   23          0.030600000000        -1.231433427797
 D 23
    1         29.020400000000        -0.001146539450
    2          6.411490000000         0.025315717736
    3          3.997360000000        -0.054551945827
    4          1.887420000000        -0.154777546965
    5          0.913208000000        -0.196203410862
    6          0.425675000000        -0.161769748415
    7          0.187727000000        -0.087958895922
    8         29.020400000000         0.000930831356
    9          6.411490000000        -0.021534973376
   10          3.997360000000         0.049988255820
   11          1.887420000000         0.157431997908
   12          0.913208000000         0.117316807491
   13          0.425675000000        -0.103577546717
   14          0.187727000000        -0.212796675481
   15         29.020400000000        -0.000572900885
   16          6.411490000000         0.014739592752
   17          3.997360000000        -0.038374001079
   18          1.887420000000        -0.107227365063
   19          0.913208000000         0.050020294635
   20          0.425675000000         0.127665044336
   21          0.187727000000        -0.049392403796
   22          0.075790000000         1.686783949825
   23          0.030600000000        -0.862793187688
 D 23
    1         29.020400000000        -0.001389783694
    2          6.411490000000         0.030686577527
    3          3.997360000000        -0.066125421855
    4          1.887420000000        -0.187614400029
    5          0.913208000000        -0.237828974126
    6          0.425675000000        -0.196090032998
    7          0.187727000000        -0.106619828323
    8         29.020400000000         0.005085689540
    9          6.411490000000        -0.117658465408
   10          3.997360000000         0.273115799376
   11          1.887420000000         0.860145353164
   12          0.913208000000         0.640972026985
   13          0.425675000000        -0.565906211476
   14          0.187727000000        -1.162635766657
   15         29.020400000000        -0.002981498125
   16          6.411490000000         0.076707977412
   17          3.997360000000        -0.199706467984
   18          1.887420000000        -0.558034026842
   19          0.913208000000         0.260316258100
   20          0.425675000000         0.664396059120
   21          0.187727000000        -0.257048580549
   22          0.075790000000         1.241588444721
   23          0.030600000000        -0.455767292522
 D 23
    1         29.020400000000         0.001395635075
    2          6.411490000000        -0.030815776679
    3          3.997360000000         0.066403828545
    4          1.887420000000         0.188404309607
    5          0.913208000000         0.238830301234
    6          0.425675000000         0.196915627383
    7          0.187727000000         0.107068727893
    8         29.020400000000        -0.002688146473
    9          6.411490000000         0.062190817253
   10          3.997360000000        -0.144361008865
   11          1.887420000000        -0.454647630189
   12          0.913208000000        -0.338799032064
   13          0.425675000000         0.299121441522
   14          0.187727000000         0.614535199358
   15         29.020400000000         0.006780288320
   16          6.411490000000        -0.174443243474
   17          3.997360000000         0.454156727806
   18          1.887420000000         1.269037053199
   19          0.913208000000        -0.591990741046
   20          0.425675000000        -1.510917213766
   21          0.187727000000         0.584559646003
   22          0.075790000000        -0.751698213239
   23          0.030600000000         0.264706847393
 F 3
    1          2.232900000000         0.067448955624
    2          0.638400000000        -0.092774126139
    3          0.244400000000         1.047074346611
 F 3
    1          2.232900000000         0.202092779914
    2          0.638400000000         1.116950564057
    3          0.244400000000        -0.666611311546
 F 3
    1          2.232900000000         1.122819258411
    2          0.638400000000        -0.889278815651
    3          0.244400000000         0.364334089396
 G 2
    1          1.372100000000         0.158596189267
    2          0.597900000000        -1.092377686670
 G 2
    1          1.372100000000         1.278457973011
    2          0.597900000000        -0.682875193335
 end
  // -----------------------------------------------
  // The basis set
  // -----------------------------------------------
  BAS[ATNO] = new BFNGauss[NSH];
  // Basis function   1 L = s
  InitBFNGauss(BAS[ATNO][  0]);
  BAS[ATNO][  0].l  = 0;
  BAS[ATNO][  0].ng = 38;
  BAS[ATNO][  0].a[  0] =       247.202000000000;     BAS[ATNO][  0].d[  0] =         0.000623450717;
  BAS[ATNO][  0].a[  1] =        20.793700000000;     BAS[ATNO][  0].d[  1] =        -0.050153812669;
  BAS[ATNO][  0].a[  2] =        13.001900000000;     BAS[ATNO][  0].d[  2] =         0.295981229781;
  BAS[ATNO][  0].a[  3] =         8.125620000000;     BAS[ATNO][  0].d[  3] =        -0.263782597946;
  BAS[ATNO][  0].a[  4] =         4.888420000000;     BAS[ATNO][  0].d[  4] =        -0.503271599433;
  BAS[ATNO][  0].a[  5] =         1.392060000000;     BAS[ATNO][  0].d[  5] =         0.817023172896;
  BAS[ATNO][  0].a[  6] =         0.638382000000;     BAS[ATNO][  0].d[  6] =         0.495972030619;
  BAS[ATNO][  0].a[  7] =         0.158828000000;     BAS[ATNO][  0].d[  7] =         0.032289551732;
  BAS[ATNO][  0].a[  8] =         0.075793000000;     BAS[ATNO][  0].d[  8] =        -0.011013296885;
  BAS[ATNO][  0].a[  9] =       247.202000000000;     BAS[ATNO][  0].d[  9] =         0.000000216048;
  BAS[ATNO][  0].a[ 10] =        20.793700000000;     BAS[ATNO][  0].d[ 10] =        -0.000017140191;
  BAS[ATNO][  0].a[ 11] =        13.001900000000;     BAS[ATNO][  0].d[ 11] =         0.000104642990;
  BAS[ATNO][  0].a[ 12] =         8.125620000000;     BAS[ATNO][  0].d[ 12] =        -0.000109877840;
  BAS[ATNO][  0].a[ 13] =         4.888420000000;     BAS[ATNO][  0].d[ 13] =        -0.000155004927;
  BAS[ATNO][  0].a[ 14] =         1.392060000000;     BAS[ATNO][  0].d[ 14] =         0.000355587401;
  BAS[ATNO][  0].a[ 15] =         0.638382000000;     BAS[ATNO][  0].d[ 15] =         0.000323673828;
  BAS[ATNO][  0].a[ 16] =         0.158828000000;     BAS[ATNO][  0].d[ 16] =        -0.000279944573;
  BAS[ATNO][  0].a[ 17] =         0.075793000000;     BAS[ATNO][  0].d[ 17] =        -0.000647420031;
  BAS[ATNO][  0].a[ 18] =       247.202000000000;     BAS[ATNO][  0].d[ 18] =        -0.000001514635;
  BAS[ATNO][  0].a[ 19] =        20.793700000000;     BAS[ATNO][  0].d[ 19] =         0.000052666316;
  BAS[ATNO][  0].a[ 20] =        13.001900000000;     BAS[ATNO][  0].d[ 20] =        -0.000553140439;
  BAS[ATNO][  0].a[ 21] =         8.125620000000;     BAS[ATNO][  0].d[ 21] =         0.000133738585;
  BAS[ATNO][  0].a[ 22] =         4.888420000000;     BAS[ATNO][  0].d[ 22] =         0.002723633083;
  BAS[ATNO][  0].a[ 23] =         1.392060000000;     BAS[ATNO][  0].d[ 23] =        -0.007428639096;
  BAS[ATNO][  0].a[ 24] =         0.638382000000;     BAS[ATNO][  0].d[ 24] =         0.002263058318;
  BAS[ATNO][  0].a[ 25] =         0.158828000000;     BAS[ATNO][  0].d[ 25] =         0.009729018226;
  BAS[ATNO][  0].a[ 26] =         0.075793000000;     BAS[ATNO][  0].d[ 26] =        -0.005045117522;
  BAS[ATNO][  0].a[ 27] =       247.202000000000;     BAS[ATNO][  0].d[ 27] =        -0.000001226437;
  BAS[ATNO][  0].a[ 28] =        20.793700000000;     BAS[ATNO][  0].d[ 28] =         0.000102459192;
  BAS[ATNO][  0].a[ 29] =        13.001900000000;     BAS[ATNO][  0].d[ 29] =        -0.000604403477;
  BAS[ATNO][  0].a[ 30] =         8.125620000000;     BAS[ATNO][  0].d[ 30] =         0.000697442236;
  BAS[ATNO][  0].a[ 31] =         4.888420000000;     BAS[ATNO][  0].d[ 31] =         0.000847694414;
  BAS[ATNO][  0].a[ 32] =         1.392060000000;     BAS[ATNO][  0].d[ 32] =        -0.004922799345;
  BAS[ATNO][  0].a[ 33] =         0.638382000000;     BAS[ATNO][  0].d[ 33] =         0.005225974168;
  BAS[ATNO][  0].a[ 34] =         0.158828000000;     BAS[ATNO][  0].d[ 34] =        -0.001290106310;
  BAS[ATNO][  0].a[ 35] =         0.075793000000;     BAS[ATNO][  0].d[ 35] =        -0.002095656041;
  BAS[ATNO][  0].a[ 36] =         0.033184000000;     BAS[ATNO][  0].d[ 36] =         0.007027316454;
  BAS[ATNO][  0].a[ 37] =         0.014500000000;     BAS[ATNO][  0].d[ 37] =        -0.001672562689;

  // Basis function   2 L = s
  InitBFNGauss(BAS[ATNO][  1]);
  BAS[ATNO][  1].l  = 0;
  BAS[ATNO][  1].ng = 38;
  BAS[ATNO][  1].a[  0] =       247.202000000000;     BAS[ATNO][  1].d[  0] =        -0.000003400645;
  BAS[ATNO][  1].a[  1] =        20.793700000000;     BAS[ATNO][  1].d[  1] =         0.000273566659;
  BAS[ATNO][  1].a[  2] =        13.001900000000;     BAS[ATNO][  1].d[  2] =        -0.001614445482;
  BAS[ATNO][  1].a[  3] =         8.125620000000;     BAS[ATNO][  1].d[  3] =         0.001438816319;
  BAS[ATNO][  1].a[  4] =         4.888420000000;     BAS[ATNO][  1].d[  4] =         0.002745121913;
  BAS[ATNO][  1].a[  5] =         1.392060000000;     BAS[ATNO][  1].d[  5] =        -0.004456496687;
  BAS[ATNO][  1].a[  6] =         0.638382000000;     BAS[ATNO][  1].d[  6] =        -0.002705306024;
  BAS[ATNO][  1].a[  7] =         0.158828000000;     BAS[ATNO][  1].d[  7] =        -0.000176125091;
  BAS[ATNO][  1].a[  8] =         0.075793000000;     BAS[ATNO][  1].d[  8] =         0.000060072618;
  BAS[ATNO][  1].a[  9] =       247.202000000000;     BAS[ATNO][  1].d[  9] =        -0.000083592421;
  BAS[ATNO][  1].a[ 10] =        20.793700000000;     BAS[ATNO][  1].d[ 10] =         0.006631804715;
  BAS[ATNO][  1].a[ 11] =        13.001900000000;     BAS[ATNO][  1].d[ 11] =        -0.040487989081;
  BAS[ATNO][  1].a[ 12] =         8.125620000000;     BAS[ATNO][  1].d[ 12] =         0.042513433440;
  BAS[ATNO][  1].a[ 13] =         4.888420000000;     BAS[ATNO][  1].d[ 13] =         0.059973800363;
  BAS[ATNO][  1].a[ 14] =         1.392060000000;     BAS[ATNO][  1].d[ 14] =        -0.137582257847;
  BAS[ATNO][  1].a[ 15] =         0.638382000000;     BAS[ATNO][  1].d[ 15] =        -0.125234403388;
  BAS[ATNO][  1].a[ 16] =         0.158828000000;     BAS[ATNO][  1].d[ 16] =         0.108314879429;
  BAS[ATNO][  1].a[ 17] =         0.075793000000;     BAS[ATNO][  1].d[ 17] =         0.250496810237;
  BAS[ATNO][  1].a[ 18] =       247.202000000000;     BAS[ATNO][  1].d[ 18] =         0.000017913953;
  BAS[ATNO][  1].a[ 19] =        20.793700000000;     BAS[ATNO][  1].d[ 19] =        -0.000622897273;
  BAS[ATNO][  1].a[ 20] =        13.001900000000;     BAS[ATNO][  1].d[ 20] =         0.006542125976;
  BAS[ATNO][  1].a[ 21] =         8.125620000000;     BAS[ATNO][  1].d[ 21] =        -0.001581758643;
  BAS[ATNO][  1].a[ 22] =         4.888420000000;     BAS[ATNO][  1].d[ 22] =        -0.032213068292;
  BAS[ATNO][  1].a[ 23] =         1.392060000000;     BAS[ATNO][  1].d[ 23] =         0.087860314239;
  BAS[ATNO][  1].a[ 24] =         0.638382000000;     BAS[ATNO][  1].d[ 24] =        -0.026765738975;
  BAS[ATNO][  1].a[ 25] =         0.158828000000;     BAS[ATNO][  1].d[ 25] =        -0.115067455490;
  BAS[ATNO][  1].a[ 26] =         0.075793000000;     BAS[ATNO][  1].d[ 26] =         0.059669827149;
  BAS[ATNO][  1].a[ 27] =       247.202000000000;     BAS[ATNO][  1].d[ 27] =        -0.000012645468;
  BAS[ATNO][  1].a[ 28] =        20.793700000000;     BAS[ATNO][  1].d[ 28] =         0.001056430011;
  BAS[ATNO][  1].a[ 29] =        13.001900000000;     BAS[ATNO][  1].d[ 29] =        -0.006231846667;
  BAS[ATNO][  1].a[ 30] =         8.125620000000;     BAS[ATNO][  1].d[ 30] =         0.007191145049;
  BAS[ATNO][  1].a[ 31] =         4.888420000000;     BAS[ATNO][  1].d[ 31] =         0.008740356083;
  BAS[ATNO][  1].a[ 32] =         1.392060000000;     BAS[ATNO][  1].d[ 32] =        -0.050757700541;
  BAS[ATNO][  1].a[ 33] =         0.638382000000;     BAS[ATNO][  1].d[ 33] =         0.053883657096;
  BAS[ATNO][  1].a[ 34] =         0.158828000000;     BAS[ATNO][  1].d[ 34] =        -0.013301949798;
  BAS[ATNO][  1].a[ 35] =         0.075793000000;     BAS[ATNO][  1].d[ 35] =        -0.021607763043;
  BAS[ATNO][  1].a[ 36] =         0.033184000000;     BAS[ATNO][  1].d[ 36] =        -0.497032418358;
  BAS[ATNO][  1].a[ 37] =         0.014500000000;     BAS[ATNO][  1].d[ 37] =         1.274047200986;

  // Basis function   3 L = s
  InitBFNGauss(BAS[ATNO][  2]);
  BAS[ATNO][  2].l  = 0;
  BAS[ATNO][  2].ng = 38;
  BAS[ATNO][  2].a[  0] =       247.202000000000;     BAS[ATNO][  2].d[  0] =        -0.000018381141;
  BAS[ATNO][  2].a[  1] =        20.793700000000;     BAS[ATNO][  2].d[  1] =         0.001478680339;
  BAS[ATNO][  2].a[  2] =        13.001900000000;     BAS[ATNO][  2].d[  2] =        -0.008726387921;
  BAS[ATNO][  2].a[  3] =         8.125620000000;     BAS[ATNO][  2].d[  3] =         0.007777078561;
  BAS[ATNO][  2].a[  4] =         4.888420000000;     BAS[ATNO][  2].d[  4] =         0.014837911207;
  BAS[ATNO][  2].a[  5] =         1.392060000000;     BAS[ATNO][  2].d[  5] =        -0.024088220569;
  BAS[ATNO][  2].a[  6] =         0.638382000000;     BAS[ATNO][  2].d[  6] =        -0.014622698677;
  BAS[ATNO][  2].a[  7] =         0.158828000000;     BAS[ATNO][  2].d[  7] =        -0.000951989943;
  BAS[ATNO][  2].a[  8] =         0.075793000000;     BAS[ATNO][  2].d[  8] =         0.000324704039;
  BAS[ATNO][  2].a[  9] =       247.202000000000;     BAS[ATNO][  2].d[  9] =        -0.000179499685;
  BAS[ATNO][  2].a[ 10] =        20.793700000000;     BAS[ATNO][  2].d[ 10] =         0.014240607529;
  BAS[ATNO][  2].a[ 11] =        13.001900000000;     BAS[ATNO][  2].d[ 11] =        -0.086940672550;
  BAS[ATNO][  2].a[ 12] =         8.125620000000;     BAS[ATNO][  2].d[ 12] =         0.091289949924;
  BAS[ATNO][  2].a[ 13] =         4.888420000000;     BAS[ATNO][  2].d[ 13] =         0.128782946680;
  BAS[ATNO][  2].a[ 14] =         1.392060000000;     BAS[ATNO][  2].d[ 14] =        -0.295433146960;
  BAS[ATNO][  2].a[ 15] =         0.638382000000;     BAS[ATNO][  2].d[ 15] =        -0.268918350953;
  BAS[ATNO][  2].a[ 16] =         0.158828000000;     BAS[ATNO][  2].d[ 16] =         0.232586717161;
  BAS[ATNO][  2].a[ 17] =         0.075793000000;     BAS[ATNO][  2].d[ 17] =         0.537896834301;
  BAS[ATNO][  2].a[ 18] =       247.202000000000;     BAS[ATNO][  2].d[ 18] =         0.000086926925;
  BAS[ATNO][  2].a[ 19] =        20.793700000000;     BAS[ATNO][  2].d[ 19] =        -0.003022590552;
  BAS[ATNO][  2].a[ 20] =        13.001900000000;     BAS[ATNO][  2].d[ 20] =         0.031745472387;
  BAS[ATNO][  2].a[ 21] =         8.125620000000;     BAS[ATNO][  2].d[ 21] =        -0.007675436929;
  BAS[ATNO][  2].a[ 22] =         4.888420000000;     BAS[ATNO][  2].d[ 22] =        -0.156312959072;
  BAS[ATNO][  2].a[ 23] =         1.392060000000;     BAS[ATNO][  2].d[ 23] =         0.426339570611;
  BAS[ATNO][  2].a[ 24] =         0.638382000000;     BAS[ATNO][  2].d[ 24] =        -0.129879955023;
  BAS[ATNO][  2].a[ 25] =         0.158828000000;     BAS[ATNO][  2].d[ 25] =        -0.558361417098;
  BAS[ATNO][  2].a[ 26] =         0.075793000000;     BAS[ATNO][  2].d[ 26] =         0.289546067590;
  BAS[ATNO][  2].a[ 27] =       247.202000000000;     BAS[ATNO][  2].d[ 27] =        -0.000085634709;
  BAS[ATNO][  2].a[ 28] =        20.793700000000;     BAS[ATNO][  2].d[ 28] =         0.007154110554;
  BAS[ATNO][  2].a[ 29] =        13.001900000000;     BAS[ATNO][  2].d[ 29] =        -0.042201868135;
  BAS[ATNO][  2].a[ 30] =         8.125620000000;     BAS[ATNO][  2].d[ 30] =         0.048698206380;
  BAS[ATNO][  2].a[ 31] =         4.888420000000;     BAS[ATNO][  2].d[ 31] =         0.059189414408;
  BAS[ATNO][  2].a[ 32] =         1.392060000000;     BAS[ATNO][  2].d[ 32] =        -0.343729539520;
  BAS[ATNO][  2].a[ 33] =         0.638382000000;     BAS[ATNO][  2].d[ 33] =         0.364898418248;
  BAS[ATNO][  2].a[ 34] =         0.158828000000;     BAS[ATNO][  2].d[ 34] =        -0.090080382484;
  BAS[ATNO][  2].a[ 35] =         0.075793000000;     BAS[ATNO][  2].d[ 35] =        -0.146327086563;
  BAS[ATNO][  2].a[ 36] =         0.033184000000;     BAS[ATNO][  2].d[ 36] =         1.680862030905;
  BAS[ATNO][  2].a[ 37] =         0.014500000000;     BAS[ATNO][  2].d[ 37] =        -1.664933900636;

  // Basis function   4 L = s
  InitBFNGauss(BAS[ATNO][  3]);
  BAS[ATNO][  3].l  = 0;
  BAS[ATNO][  3].ng = 38;
  BAS[ATNO][  3].a[  0] =       247.202000000000;     BAS[ATNO][  3].d[  0] =        -0.000091772102;
  BAS[ATNO][  3].a[  1] =        20.793700000000;     BAS[ATNO][  3].d[  1] =         0.007382653804;
  BAS[ATNO][  3].a[  2] =        13.001900000000;     BAS[ATNO][  3].d[  2] =        -0.043568511258;
  BAS[ATNO][  3].a[  3] =         8.125620000000;     BAS[ATNO][  3].d[  3] =         0.038828864577;
  BAS[ATNO][  3].a[  4] =         4.888420000000;     BAS[ATNO][  3].d[  4] =         0.074081705661;
  BAS[ATNO][  3].a[  5] =         1.392060000000;     BAS[ATNO][  3].d[  5] =        -0.120266015967;
  BAS[ATNO][  3].a[  6] =         0.638382000000;     BAS[ATNO][  3].d[  6] =        -0.073007207301;
  BAS[ATNO][  3].a[  7] =         0.158828000000;     BAS[ATNO][  3].d[  7] =        -0.004753030113;
  BAS[ATNO][  3].a[  8] =         0.075793000000;     BAS[ATNO][  3].d[  8] =         0.001621160064;
  BAS[ATNO][  3].a[  9] =       247.202000000000;     BAS[ATNO][  3].d[  9] =         0.000114316193;
  BAS[ATNO][  3].a[ 10] =        20.793700000000;     BAS[ATNO][  3].d[ 10] =        -0.009069275163;
  BAS[ATNO][  3].a[ 11] =        13.001900000000;     BAS[ATNO][  3].d[ 11] =         0.055369048028;
  BAS[ATNO][  3].a[ 12] =         8.125620000000;     BAS[ATNO][  3].d[ 12] =        -0.058138929382;
  BAS[ATNO][  3].a[ 13] =         4.888420000000;     BAS[ATNO][  3].d[ 13] =        -0.082016724173;
  BAS[ATNO][  3].a[ 14] =         1.392060000000;     BAS[ATNO][  3].d[ 14] =         0.188149592398;
  BAS[ATNO][  3].a[ 15] =         0.638382000000;     BAS[ATNO][  3].d[ 15] =         0.171263375965;
  BAS[ATNO][  3].a[ 16] =         0.158828000000;     BAS[ATNO][  3].d[ 16] =        -0.148125206942;
  BAS[ATNO][  3].a[ 17] =         0.075793000000;     BAS[ATNO][  3].d[ 17] =        -0.342565047854;
  BAS[ATNO][  3].a[ 18] =       247.202000000000;     BAS[ATNO][  3].d[ 18] =         0.000271739986;
  BAS[ATNO][  3].a[ 19] =        20.793700000000;     BAS[ATNO][  3].d[ 19] =        -0.009448841237;
  BAS[ATNO][  3].a[ 20] =        13.001900000000;     BAS[ATNO][  3].d[ 20] =         0.099238690603;
  BAS[ATNO][  3].a[ 21] =         8.125620000000;     BAS[ATNO][  3].d[ 21] =        -0.023993982555;
  BAS[ATNO][  3].a[ 22] =         4.888420000000;     BAS[ATNO][  3].d[ 22] =        -0.488645851402;
  BAS[ATNO][  3].a[ 23] =         1.392060000000;     BAS[ATNO][  3].d[ 23] =         1.332768976445;
  BAS[ATNO][  3].a[ 24] =         0.638382000000;     BAS[ATNO][  3].d[ 24] =        -0.406014329068;
  BAS[ATNO][  3].a[ 25] =         0.158828000000;     BAS[ATNO][  3].d[ 25] =        -1.745479016375;
  BAS[ATNO][  3].a[ 26] =         0.075793000000;     BAS[ATNO][  3].d[ 26] =         0.905142385875;
  BAS[ATNO][  3].a[ 27] =       247.202000000000;     BAS[ATNO][  3].d[ 27] =        -0.000328855646;
  BAS[ATNO][  3].a[ 28] =        20.793700000000;     BAS[ATNO][  3].d[ 28] =         0.027473318756;
  BAS[ATNO][  3].a[ 29] =        13.001900000000;     BAS[ATNO][  3].d[ 29] =        -0.162064224004;
  BAS[ATNO][  3].a[ 30] =         8.125620000000;     BAS[ATNO][  3].d[ 30] =         0.187011556031;
  BAS[ATNO][  3].a[ 31] =         4.888420000000;     BAS[ATNO][  3].d[ 31] =         0.227300044741;
  BAS[ATNO][  3].a[ 32] =         1.392060000000;     BAS[ATNO][  3].d[ 32] =        -1.319995145971;
  BAS[ATNO][  3].a[ 33] =         0.638382000000;     BAS[ATNO][  3].d[ 33] =         1.401288180040;
  BAS[ATNO][  3].a[ 34] =         0.158828000000;     BAS[ATNO][  3].d[ 34] =        -0.345927986848;
  BAS[ATNO][  3].a[ 35] =         0.075793000000;     BAS[ATNO][  3].d[ 35] =        -0.561927392848;
  BAS[ATNO][  3].a[ 36] =         0.033184000000;     BAS[ATNO][  3].d[ 36] =         2.271924189061;
  BAS[ATNO][  3].a[ 37] =         0.014500000000;     BAS[ATNO][  3].d[ 37] =        -1.183946529088;

  // Basis function   5 L = s
  InitBFNGauss(BAS[ATNO][  4]);
  BAS[ATNO][  4].l  = 0;
  BAS[ATNO][  4].ng = 38;
  BAS[ATNO][  4].a[  0] =       247.202000000000;     BAS[ATNO][  4].d[  0] =        -0.000406888932;
  BAS[ATNO][  4].a[  1] =        20.793700000000;     BAS[ATNO][  4].d[  1] =         0.032732388804;
  BAS[ATNO][  4].a[  2] =        13.001900000000;     BAS[ATNO][  4].d[  2] =        -0.193169216387;
  BAS[ATNO][  4].a[  3] =         8.125620000000;     BAS[ATNO][  4].d[  3] =         0.172155098414;
  BAS[ATNO][  4].a[  4] =         4.888420000000;     BAS[ATNO][  4].d[  4] =         0.328455221853;
  BAS[ATNO][  4].a[  5] =         1.392060000000;     BAS[ATNO][  4].d[  5] =        -0.533222076937;
  BAS[ATNO][  4].a[  6] =         0.638382000000;     BAS[ATNO][  4].d[  6] =        -0.323691230607;
  BAS[ATNO][  4].a[  7] =         0.158828000000;     BAS[ATNO][  4].d[  7] =        -0.021073455942;
  BAS[ATNO][  4].a[  8] =         0.075793000000;     BAS[ATNO][  4].d[  8] =         0.007187719068;
  BAS[ATNO][  4].a[  9] =       247.202000000000;     BAS[ATNO][  4].d[  9] =         0.000396167898;
  BAS[ATNO][  4].a[ 10] =        20.793700000000;     BAS[ATNO][  4].d[ 10] =        -0.031429980212;
  BAS[ATNO][  4].a[ 11] =        13.001900000000;     BAS[ATNO][  4].d[ 11] =         0.191883921545;
  BAS[ATNO][  4].a[ 12] =         8.125620000000;     BAS[ATNO][  4].d[ 12] =        -0.201483069721;
  BAS[ATNO][  4].a[ 13] =         4.888420000000;     BAS[ATNO][  4].d[ 13] =        -0.284232639480;
  BAS[ATNO][  4].a[ 14] =         1.392060000000;     BAS[ATNO][  4].d[ 14] =         0.652040858786;
  BAS[ATNO][  4].a[ 15] =         0.638382000000;     BAS[ATNO][  4].d[ 15] =         0.593520917688;
  BAS[ATNO][  4].a[ 16] =         0.158828000000;     BAS[ATNO][  4].d[ 16] =        -0.513334554231;
  BAS[ATNO][  4].a[ 17] =         0.075793000000;     BAS[ATNO][  4].d[ 17] =        -1.187174551622;
  BAS[ATNO][  4].a[ 18] =       247.202000000000;     BAS[ATNO][  4].d[ 18] =        -0.000263675298;
  BAS[ATNO][  4].a[ 19] =        20.793700000000;     BAS[ATNO][  4].d[ 19] =         0.009168418926;
  BAS[ATNO][  4].a[ 20] =        13.001900000000;     BAS[ATNO][  4].d[ 20] =        -0.096293488932;
  BAS[ATNO][  4].a[ 21] =         8.125620000000;     BAS[ATNO][  4].d[ 21] =         0.023281890153;
  BAS[ATNO][  4].a[ 22] =         4.888420000000;     BAS[ATNO][  4].d[ 22] =         0.474143840448;
  BAS[ATNO][  4].a[ 23] =         1.392060000000;     BAS[ATNO][  4].d[ 23] =        -1.293215115014;
  BAS[ATNO][  4].a[ 24] =         0.638382000000;     BAS[ATNO][  4].d[ 24] =         0.393964652946;
  BAS[ATNO][  4].a[ 25] =         0.158828000000;     BAS[ATNO][  4].d[ 25] =         1.693676763798;
  BAS[ATNO][  4].a[ 26] =         0.075793000000;     BAS[ATNO][  4].d[ 26] =        -0.878279608350;
  BAS[ATNO][  4].a[ 27] =       247.202000000000;     BAS[ATNO][  4].d[ 27] =        -0.000584146516;
  BAS[ATNO][  4].a[ 28] =        20.793700000000;     BAS[ATNO][  4].d[ 28] =         0.048800875536;
  BAS[ATNO][  4].a[ 29] =        13.001900000000;     BAS[ATNO][  4].d[ 29] =        -0.287874795707;
  BAS[ATNO][  4].a[ 30] =         8.125620000000;     BAS[ATNO][  4].d[ 30] =         0.332188759229;
  BAS[ATNO][  4].a[ 31] =         4.888420000000;     BAS[ATNO][  4].d[ 31] =         0.403753230216;
  BAS[ATNO][  4].a[ 32] =         1.392060000000;     BAS[ATNO][  4].d[ 32] =        -2.344708311269;
  BAS[ATNO][  4].a[ 33] =         0.638382000000;     BAS[ATNO][  4].d[ 33] =         2.489109185173;
  BAS[ATNO][  4].a[ 34] =         0.158828000000;     BAS[ATNO][  4].d[ 34] =        -0.614472127672;
  BAS[ATNO][  4].a[ 35] =         0.075793000000;     BAS[ATNO][  4].d[ 35] =        -0.998152025302;
  BAS[ATNO][  4].a[ 36] =         0.033184000000;     BAS[ATNO][  4].d[ 36] =         3.026297887110;
  BAS[ATNO][  4].a[ 37] =         0.014500000000;     BAS[ATNO][  4].d[ 37] =        -1.174308284500;

  // Basis function   6 L = s
  InitBFNGauss(BAS[ATNO][  5]);
  BAS[ATNO][  5].l  = 0;
  BAS[ATNO][  5].ng = 38;
  BAS[ATNO][  5].a[  0] =       247.202000000000;     BAS[ATNO][  5].d[  0] =        -0.002150330926;
  BAS[ATNO][  5].a[  1] =        20.793700000000;     BAS[ATNO][  5].d[  1] =         0.172984474055;
  BAS[ATNO][  5].a[  2] =        13.001900000000;     BAS[ATNO][  5].d[  2] =        -1.020862714906;
  BAS[ATNO][  5].a[  3] =         8.125620000000;     BAS[ATNO][  5].d[  3] =         0.909807082304;
  BAS[ATNO][  5].a[  4] =         4.888420000000;     BAS[ATNO][  5].d[  4] =         1.735823625411;
  BAS[ATNO][  5].a[  5] =         1.392060000000;     BAS[ATNO][  5].d[  5] =        -2.817977663787;
  BAS[ATNO][  5].a[  6] =         0.638382000000;     BAS[ATNO][  5].d[  6] =        -1.710646834156;
  BAS[ATNO][  5].a[  7] =         0.158828000000;     BAS[ATNO][  5].d[  7] =        -0.111369222529;
  BAS[ATNO][  5].a[  8] =         0.075793000000;     BAS[ATNO][  5].d[  8] =         0.037985733645;
  BAS[ATNO][  5].a[  9] =       247.202000000000;     BAS[ATNO][  5].d[  9] =         0.002293731753;
  BAS[ATNO][  5].a[ 10] =        20.793700000000;     BAS[ATNO][  5].d[ 10] =        -0.181973208594;
  BAS[ATNO][  5].a[ 11] =        13.001900000000;     BAS[ATNO][  5].d[ 11] =         1.110968974381;
  BAS[ATNO][  5].a[ 12] =         8.125620000000;     BAS[ATNO][  5].d[ 12] =        -1.166546094747;
  BAS[ATNO][  5].a[ 13] =         4.888420000000;     BAS[ATNO][  5].d[ 13] =        -1.645649314576;
  BAS[ATNO][  5].a[ 14] =         1.392060000000;     BAS[ATNO][  5].d[ 14] =         3.775184279684;
  BAS[ATNO][  5].a[ 15] =         0.638382000000;     BAS[ATNO][  5].d[ 15] =         3.436365693846;
  BAS[ATNO][  5].a[ 16] =         0.158828000000;     BAS[ATNO][  5].d[ 16] =        -2.972102918457;
  BAS[ATNO][  5].a[ 17] =         0.075793000000;     BAS[ATNO][  5].d[ 17] =        -6.873499787829;
  BAS[ATNO][  5].a[ 18] =       247.202000000000;     BAS[ATNO][  5].d[ 18] =        -0.001117501927;
  BAS[ATNO][  5].a[ 19] =        20.793700000000;     BAS[ATNO][  5].d[ 19] =         0.038857359398;
  BAS[ATNO][  5].a[ 20] =        13.001900000000;     BAS[ATNO][  5].d[ 20] =        -0.408108610367;
  BAS[ATNO][  5].a[ 21] =         8.125620000000;     BAS[ATNO][  5].d[ 21] =         0.098672713416;
  BAS[ATNO][  5].a[ 22] =         4.888420000000;     BAS[ATNO][  5].d[ 22] =         2.009504339138;
  BAS[ATNO][  5].a[ 23] =         1.392060000000;     BAS[ATNO][  5].d[ 23] =        -5.480871337699;
[...]
<sp|fg>: done
<sp|gg>: done
<sd|sd>:          465 b            0 skpd (  0.0%)    0.013 s ( 0.028 ms/b)
<sd|sf>:          540 b            0 skpd (  0.0%)    0.003 s ( 0.006 ms/b)
<sd|sg>:          360 b            0 skpd (  0.0%)    0.005 s ( 0.013 ms/b)
<sd|pp>:          630 b            0 skpd (  0.0%)    0.018 s ( 0.028 ms/b)
<sd|pd>:          900 b            0 skpd (  0.0%)    0.029 s ( 0.032 ms/b)
<sd|pf>: done
<sd|pg>: done
<sd|dd>:          450 b            0 skpd (  0.0%)    0.037 s ( 0.083 ms/b)
<sd|df>:          450 b            1 skpd (  0.2%)    0.010 s ( 0.022 ms/b)
<sd|dg>:          300 b            0 skpd (  0.0%)    0.016 s ( 0.053 ms/b)
<sd|ff>: done
<sd|fg>: done
<sd|gg>: done
<sf|sf>:          171 b            0 skpd (  0.0%)    0.001 s ( 0.005 ms/b)
<sf|sg>:          216 b            0 skpd (  0.0%)    0.001 s ( 0.006 ms/b)
<sf|pp>:          378 b            0 skpd (  0.0%)    0.004 s ( 0.011 ms/b)
<sf|pd>: done
<sf|pf>: done
<sf|pg>: done
<sf|dd>:          270 b            0 skpd (  0.0%)    0.011 s ( 0.042 ms/b)
<sf|df>: done
<sf|dg>: done
<sf|ff>: done
<sf|fg>: done
<sf|gg>: done
<sg|sg>:           78 b            0 skpd (  0.0%)    0.002 s ( 0.024 ms/b)
<sg|pp>:          252 b            0 skpd (  0.0%)    0.006 s ( 0.022 ms/b)
<sg|pd>: done
<sg|pf>: done
<sg|pg>: done
<sg|dd>:          180 b            0 skpd (  0.0%)    0.015 s ( 0.082 ms/b)
<sg|df>: done
<sg|dg>: done
<sg|ff>: done
<sg|fg>: done
<sg|gg>: done
<pp|pp>:          231 b            0 skpd (  0.0%)    0.014 s ( 0.060 ms/b)
<pp|pd>:          630 b            0 skpd (  0.0%)    0.024 s ( 0.039 ms/b)
<pp|pf>:          378 b            0 skpd (  0.0%)    0.005 s ( 0.013 ms/b)
<pp|pg>:          252 b            0 skpd (  0.0%)    0.008 s ( 0.033 ms/b)
<pp|dd>:          315 b            0 skpd (  0.0%)    0.032 s ( 0.102 ms/b)
<pp|df>:          315 b            0 skpd (  0.0%)    0.008 s ( 0.027 ms/b)
<pp|dg>:          210 b            0 skpd (  0.0%)    0.013 s ( 0.062 ms/b)
<pp|ff>:          126 b            0 skpd (  0.0%)    0.003 s ( 0.021 ms/b)
<pp|fg>:          126 b            0 skpd (  0.0%)    0.003 s ( 0.026 ms/b)
<pp|gg>:           63 b            0 skpd (  0.0%)    0.005 s ( 0.079 ms/b)
<pd|pd>:          465 b            0 skpd (  0.0%)    0.050 s ( 0.107 ms/b)
<pd|pf>:          540 b            0 skpd (  0.0%)    0.012 s ( 0.022 ms/b)
<pd|pg>:          360 b            0 skpd (  0.0%)    0.022 s ( 0.061 ms/b)
<pd|dd>:          450 b            0 skpd (  0.0%)    0.081 s ( 0.180 ms/b)
<pd|df>:          450 b            0 skpd (  0.0%)    0.023 s ( 0.051 ms/b)
<pd|dg>:          300 b            0 skpd (  0.0%)    0.035 s ( 0.118 ms/b)
<pd|ff>: done
<pd|fg>: done
<pd|gg>: done
<pf|pf>:          171 b            1 skpd (  0.6%)    0.003 s ( 0.019 ms/b)
<pf|pg>:          216 b            1 skpd (  0.5%)    0.006 s ( 0.029 ms/b)
<pf|dd>:          270 b            0 skpd (  0.0%)    0.021 s ( 0.076 ms/b)
<pf|df>: done
<pf|dg>: done
<pf|ff>: done
<pf|fg>: done
<pf|gg>: done
<pg|pg>:           78 b            1 skpd (  1.3%)    0.008 s ( 0.103 ms/b)
<pg|dd>:          180 b            0 skpd (  0.0%)    0.029 s ( 0.160 ms/b)
<pg|df>: done
<pg|dg>: done
<pg|ff>: done
<pg|fg>: done
<pg|gg>: done
<dd|dd>:          120 b            0 skpd (  0.0%)    0.070 s ( 0.581 ms/b)
<dd|df>:          225 b            0 skpd (  0.0%)    0.021 s ( 0.094 ms/b)
<dd|dg>:          150 b            0 skpd (  0.0%)    0.033 s ( 0.222 ms/b)
<dd|ff>:           90 b            0 skpd (  0.0%)    0.006 s ( 0.063 ms/b)
<dd|fg>:           90 b            0 skpd (  0.0%)    0.009 s ( 0.095 ms/b)
<dd|gg>:           45 b            0 skpd (  0.0%)    0.013 s ( 0.282 ms/b)
<df|df>:          120 b            1 skpd (  0.8%)    0.008 s ( 0.071 ms/b)
<df|dg>:          150 b            0 skpd (  0.0%)    0.014 s ( 0.091 ms/b)
<df|ff>: done
<df|fg>: done
<df|gg>: done
<dg|dg>:           55 b            0 skpd (  0.0%)    0.016 s ( 0.290 ms/b)
<dg|ff>: done
<dg|fg>: done
<dg|gg>: done
<ff|ff>: done
<ff|fg>: done
<ff|gg>: done
<fg|fg>: done
<fg|gg>: done
<gg|gg>: done
Recanonicalizing the internal orbitals
Recanonicalizing the virtual orbitals
Time needed for Fock operator              ...            0.965 sec
Reference energy                           ...   -126.609016693

------------------------------
PARTIAL COULOMB TRANSFORMATION
------------------------------

Transformation type                        ... one-operator
Dimension of the basis                     ...   88
Number of internal MOs                     ...   88 (0-87)
Pair cutoff                                ... 0.000e+00 Eh
Number of AO pairs included in the trafo   ... 3916
Total Number of distinct AO pairs          ... 3916
Memory devoted for trafo                   ... 2500.0 MB 
Max. Number of MO pairs treated together   ... 83677      
Max. Number of MOs treated per batch       ...  950      
Number Format for Storage                  ... Double (8 Byte)
AO-integral source                         ... DIRECT
Integral package used                      ... LIBINT

Starting integral evaluation:
<ss|**>: <sp|**>:         5313 b        0 skpd     0.076 s (  0.014 ms/b)
<sd|**>:         9108 b        0 skpd     0.178 s (  0.020 ms/b)
        7590 b        0 skpd     0.188 s (  0.025 ms/b)
<sf|**>:         4554 b        0 skpd     0.043 s (  0.009 ms/b)
<sg|**>:         3036 b        0 skpd     0.123 s (  0.040 ms/b)
<pp|**>:         5313 b        0 skpd     0.155 s (  0.029 ms/b)
<pd|**>:         7590 b        0 skpd     0.313 s (  0.041 ms/b)
<pf|**>:         4554 b        0 skpd     0.094 s (  0.021 ms/b)
<pg|**>:         3036 b        0 skpd     0.150 s (  0.049 ms/b)
<dd|**>:         3795 b        0 skpd     0.428 s (  0.113 ms/b)
<df|**>:         3795 b        0 skpd     0.152 s (  0.040 ms/b)
<dg|**>:         2530 b        0 skpd     0.225 s (  0.089 ms/b)
<ff|**>:         1518 b        0 skpd     0.083 s (  0.054 ms/b)
<fg|**>:         1518 b        0 skpd     0.110 s (  0.072 ms/b)
<gg|**>:          759 b        0 skpd     0.140 s (  0.184 ms/b)
Closing buffer AOJ ( 0.00 GB; CompressionRatio= 1.00)
Collecting buffer AOJ 
    ... done with AO integral generation
Number of MO pairs included in the trafo   ... 3916
    ... Now sorting integrals
IBATCH = 1 of  1
Closing buffer JAO ( 0.00 GB; CompressionRatio= 1.00)
Collecting buffer JAO 
TOTAL TIME for half transformation         ...     3.160 sec
AO-integral generation                     ...     2.338 sec
Half transformation                        ...     0.127 sec
J-integral sorting                         ...     0.639 sec

-------------------------- SECOND HALF TRANSFORMATION -------------------------
Formation of (pq|rs)                       ... ok (     0.737 sec)
Integral sorting                           ... ok (     0.799 sec)

------------------
CLOSED SHELL GUESS
------------------

Initial guess performed in     0.006 sec
E(0)                                       ...   -126.609016693
E(MP2)                                     ...     -0.699489068
Initial E(tot)                             ...   -127.308505761
<T|T>                                      ...      0.140432671
Number of pairs included                   ... 45
Total number of pairs                      ... 45

------------------------------------------------
                  RHF COUPLED CLUSTER ITERATIONS
------------------------------------------------

Number of amplitudes to be optimized       ... 281556

Iter       E(tot)           E(Corr)          Delta-E          Residual     Time
  0   -127.308505761     -0.699489068      0.000000000      0.015290740    0.10
                           *** Turning on DIIS ***
  1   -127.249428476     -0.640411783      0.059077285      0.004991481    1.02
  2   -127.265647199     -0.656630507     -0.016218724      0.001941493    1.03
  3   -127.265868003     -0.656851310     -0.000220804      0.000491230    1.03
  4   -127.266153278     -0.657136585     -0.000285275      0.000179053    1.03
  5   -127.266232834     -0.657216142     -0.000079557      0.000063445    1.03
  6   -127.266245710     -0.657229017     -0.000012875      0.000041858    1.03
  7   -127.266247001     -0.657230308     -0.000001291      0.000012694    1.03
  8   -127.266246735     -0.657230042      0.000000266      0.000005940    1.03
               --- The Coupled-Cluster iterations have converged ---

----------------------
COUPLED CLUSTER ENERGY
----------------------

E(0)                                       ...   -126.609016693
E(CORR)                                    ...     -0.657230042
E(TOT)                                     ...   -127.266246735
Singles Norm <S|S>**1/2                    ...      0.043278235  
T1 diagnostic                              ...      0.010200778  

------------------
LARGEST AMPLITUDES
------------------
   5-> 43   5-> 43       0.017563
   6-> 42   6-> 42       0.017491
   8-> 44   8-> 44       0.017307
   7-> 45   7-> 45       0.017307
   4-> 41   4-> 41       0.017184
   8-> 50   8-> 50       0.017049
   7-> 51   7-> 51       0.015715
   8-> 28  -1-> -1       0.014544
   7-> 29  -1-> -1       0.014544
   6-> 25  -1-> -1       0.014532
   7-> 45   4-> 41       0.013570
   4-> 26  -1-> -1       0.013381
   5-> 27  -1-> -1       0.013250
   8-> 44   6-> 42       0.013171
   8-> 44   5-> 43       0.013035
   8-> 28   8-> 44       0.012232


        !!!!!!!!!!!!!!!!!!!!!!!!!!!!!!!!!!!!!!!!!!!!!!!!!!!!!!!!!!!!!!!!!!!!!!!!!! 
        !  Warning: Densities are linearized densities !                         !
        !!!!!!!!!!!!!!!!!!!!!!!!!!!!!!!!!!!!!!!!!!!!!!!!!!!!!!!!!!!!!!!!!!!!!!!!!! 

Trace of internal density part =     -0.240862770
Trace of external density part =      0.240862770
----------------------
RHF TRIPLES CORRECTION (Algorithm 1)
----------------------

Multiplier for the singles contribution    ...      1.000000000

10% done
20% done
30% done
40% done
50% done
60% done
70% done
80% done

Triples Correction (T)                     ...     -0.026003957
Scaling of triples based on CCSD energies (Peterson et al. Molecular Physics 113, 1551 (2015))
E(T*) = f*E(T) where f = E(F12-CCSD)/E(CCSD) 
f = CCSD (with F12)/ CCSD (without F12)    ...      1.000000000
Scaled triples correction (T)              ...     -0.026003957

Final correlation energy                   ...     -0.683233999
E(CCSD)                                    ...   -127.266246735
E(CCSD(T))                                 ...   -127.292250691

NORM  =      1.122304391 sqrt=     1.059388687
W(HF) =      0.891023869
------------------------------------------------------------------------------
                           ORCA POPULATION ANALYSIS
------------------------------------------------------------------------------
Input electron density              ... 46_Pd.mdcip
BaseName (.gbw .S,...)              ... 46_Pd

                    ********************************
                    * MULLIKEN POPULATION ANALYSIS *
                    ********************************

-----------------------
MULLIKEN ATOMIC CHARGES
-----------------------
   0 Pd:   -0.000000
Sum of atomic charges:   -0.0000000

--------------------------------
MULLIKEN REDUCED ORBITAL CHARGES
--------------------------------
  0 Pds       :     2.005868  s :     2.005868
      pz      :     1.999209  p :     5.997628
      px      :     1.999209
      py      :     1.999209
      dz2     :     1.977920  d :     9.889601
      dxz     :     1.977920
      dyz     :     1.977920
      dx2y2   :     1.977920
      dxy     :     1.977920
      f0      :     0.013559  f :     0.094911
      f+1     :     0.013559
      f-1     :     0.013559
      f+2     :     0.013559
      f-2     :     0.013559
      f+3     :     0.013559
      f-3     :     0.013559
      g0      :     0.001332  g :     0.011992
      g+1     :     0.001332
      g-1     :     0.001332
      g+2     :     0.001332
      g-2     :     0.001332
      g+3     :     0.001332
      g-3     :     0.001332
      g+4     :     0.001332
      g-4     :     0.001332


                     *******************************
                     * LOEWDIN POPULATION ANALYSIS *
                     *******************************

----------------------
LOEWDIN ATOMIC CHARGES
----------------------
   0 Pd:    0.000000

-------------------------------
LOEWDIN REDUCED ORBITAL CHARGES
-------------------------------
  0 Pds       :     2.005868  s :     2.005868
      pz      :     1.999209  p :     5.997628
      px      :     1.999209
      py      :     1.999209
      dz2     :     1.977920  d :     9.889601
      dxz     :     1.977920
      dyz     :     1.977920
      dx2y2   :     1.977920
      dxy     :     1.977920
      f0      :     0.013559  f :     0.094911
      f+1     :     0.013559
      f-1     :     0.013559
      f+2     :     0.013559
      f-2     :     0.013559
      f+3     :     0.013559
      f-3     :     0.013559
      g0      :     0.001332  g :     0.011992
      g+1     :     0.001332
      g-1     :     0.001332
      g+2     :     0.001332
      g-2     :     0.001332
      g+3     :     0.001332
      g-3     :     0.001332
      g+4     :     0.001332
      g-4     :     0.001332


                      *****************************
                      * MAYER POPULATION ANALYSIS *
                      *****************************

  NA   - Mulliken gross atomic population
  ZA   - Total nuclear charge
  QA   - Mulliken gross atomic charge
  VA   - Mayer's total valence
  BVA  - Mayer's bonded valence
  FA   - Mayer's free valence

  ATOM       NA         ZA         QA         VA         BVA        FA
  0 Pd    18.0000    18.0000    -0.0000     0.9415     0.0000     0.9415





------------------------------------------------------------------------------- 
                                     TIMINGS                                   
------------------------------------------------------------------------------- 


Total execution time                   ...       14.682 sec

Fock Matrix Formation                  ...        0.965 sec (  6.6%)
Initial Guess                          ...        0.006 sec (  0.0%)
DIIS Solver                            ...        0.137 sec (  0.9%)
State Vector Update                    ...        0.007 sec (  0.0%)
Sigma-vector construction              ...        8.197 sec ( 55.8%)
  <D|H|D>(0-ext)                       ...        0.012 sec (  0.1% of sigma)
  <D|H|D>(2-ext)                       ...        0.027 sec (  0.3% of sigma)
  <D|H|D>(4-ext)                       ...        0.157 sec (  1.9% of sigma)
  <D|H|D>(4-ext-corr)                  ...        0.138 sec (  1.7% of sigma)
  <S|H|0>                              ...        0.002 sec (  0.0% of sigma)
  <S|H|S>                              ...        0.003 sec (  0.0% of sigma)
  <S|H|D>(1-ext)                       ...        0.009 sec (  0.1% of sigma)
  <D|H|S>(1-ext)                       ...        0.007 sec (  0.1% of sigma)
  <S|H|D>(3-ext)                       ...        0.118 sec (  1.4% of sigma)
  Fock-dressing                        ...        7.318 sec ( 89.3% of sigma)
  (ik|jl)-dressing                     ...        0.014 sec (  0.2% of sigma)
  (ij|ab),(ia|jb)-dressing             ...        0.309 sec (  3.8% of sigma)
  Pair energies                        ...        0.001 sec (  0.0% of sigma)
Total Time for computing (T)           ...        0.248 sec (  1.7% of ALL)
  I/O of integral and amplitudes       ...        0.085 sec ( 34.2% of (T))
  N**6 sorting step                    ...        0.063 sec ( 25.3% of (T))
  External N**7 contributions          ...        0.056 sec ( 22.6% of (T))
  Internal N**7 contributions          ...        0.022 sec (  8.7% of (T))
  N**6 triples energy contributions    ...        0.023 sec (  9.1% of (T))
One-particle density matrix            ...        0.001 sec (  0.0%)


-------------------------   --------------------
FINAL SINGLE POINT ENERGY      -127.292250691389
-------------------------   --------------------


                            ***************************************
                            *     ORCA property calculations      *
                            ***************************************

                                    ---------------------
                                    Active property flags
                                    ---------------------
   (+) Dipole Moment


------------------------------------------------------------------------------
                       ORCA ELECTRIC PROPERTIES CALCULATION
------------------------------------------------------------------------------

Dipole Moment Calculation                       ... on
Quadrupole Moment Calculation                   ... off
Polarizability Calculation                      ... off
GBWName                                         ... 46_Pd.gbw
Electron density file                           ... 46_Pd.scfp
The origin for moment calculation is the CENTER OF MASS  = ( 0.000000,  0.000000  0.000000)

-------------
DIPOLE MOMENT
-------------
                                X             Y             Z
Electronic contribution:      0.00000      -0.00000      -0.00000
Nuclear contribution   :      0.00000       0.00000       0.00000
                        -----------------------------------------
Total Dipole Moment    :      0.00000      -0.00000      -0.00000
                        -----------------------------------------
Magnitude (a.u.)       :      0.00000
Magnitude (Debye)      :      0.00000



--------------------
Rotational spectrum 
--------------------
 
Rotational constants in cm-1:     0.000000     0.000000     0.000000 
Rotational constants in MHz :     0.000000     0.000000     0.000000 

 Dipole components along the rotational axes: 
x,y,z [a.u.] :     0.000000    -0.000000    -0.000000 
x,y,z [Debye]:     0.000000    -0.000000    -0.000000 

 

                           *** MDCI DENSITY ***

------------------------------------------------------------------------------
                       ORCA ELECTRIC PROPERTIES CALCULATION
------------------------------------------------------------------------------

Dipole Moment Calculation                       ... on
Quadrupole Moment Calculation                   ... off
Polarizability Calculation                      ... off
GBWName                                         ... 46_Pd.gbw
Electron density file                           ... 46_Pd.mdcip
The origin for moment calculation is the CENTER OF MASS  = ( 0.000000,  0.000000  0.000000)

-------------
DIPOLE MOMENT
-------------
                                X             Y             Z
Electronic contribution:     -0.00000       0.00000       0.00000
Nuclear contribution   :      0.00000       0.00000       0.00000
                        -----------------------------------------
Total Dipole Moment    :     -0.00000       0.00000       0.00000
                        -----------------------------------------
Magnitude (a.u.)       :      0.00000
Magnitude (Debye)      :      0.00000



--------------------
Rotational spectrum 
--------------------
 
Rotational constants in cm-1:     0.000000     0.000000     0.000000 
Rotational constants in MHz :     0.000000     0.000000     0.000000 

 Dipole components along the rotational axes: 
x,y,z [a.u.] :    -0.000000     0.000000     0.000000 
x,y,z [Debye]:    -0.000000     0.000000     0.000000 

 

Timings for individual modules:

Sum of individual times         ...       29.044 sec (=   0.484 min)
GTO integral calculation        ...        0.977 sec (=   0.016 min)   3.4 %
SCF iterations                  ...       12.895 sec (=   0.215 min)  44.4 %
MDCI module                     ...       15.172 sec (=   0.253 min)  52.2 %
                             ****ORCA TERMINATED NORMALLY****
TOTAL RUN TIME: 0 days 0 hours 0 minutes 29 seconds 809 msec
