
                                 *****************
                                 * O   R   C   A *
                                 *****************

           --- An Ab Initio, DFT and Semiempirical electronic structure package ---

                  #######################################################
                  #                        -***-                        #
                  #          Department of theory and spectroscopy      #
                  #               Directorship: Frank Neese             #
                  #        Max Planck Institute fuer Kohlenforschung    #
                  #                Kaiser Wilhelm Platz 1               #
                  #                 D-45470 Muelheim/Ruhr               #
                  #                      Germany                        #
                  #                                                     #
                  #                  All rights reserved                #
                  #                        -***-                        #
                  #######################################################


                         Program Version 4.2.0 -  RELEASE  -


 With contributions from (in alphabetic order):
   Daniel Aravena         : Magnetic Suceptibility
   Michael Atanasov       : Ab Initio Ligand Field Theory (pilot matlab implementation)
   Alexander A. Auer      : GIAO ZORA, VPT2
   Ute Becker             : Parallelization
   Giovanni Bistoni       : ED, misc. LED, open-shell LED, HFLED
   Martin Brehm           : Molecular dynamics
   Dmytro Bykov           : SCF Hessian
   Vijay G. Chilkuri      : MRCI spin determinant printing, contributions to CSF-ICE
   Dipayan Datta          : RHF DLPNO-CCSD density
   Achintya Kumar Dutta   : EOM-CC, STEOM-CC
   Dmitry Ganyushin       : Spin-Orbit,Spin-Spin,Magnetic field MRCI
   Miquel Garcia          : C-PCM Hessian, Gaussian charge scheme
   Yang Guo               : DLPNO-NEVPT2, CIM, IAO-localization
   Andreas Hansen         : Spin unrestricted coupled pair/coupled cluster methods
   Benjamin Helmich-Paris : CASSCF linear response (MC-RPA)
   Lee Huntington         : MR-EOM, pCC
   Robert Izsak           : Overlap fitted RIJCOSX, COSX-SCS-MP3, EOM
   Christian Kollmar      : KDIIS, OOCD, Brueckner-CCSD(T), CCSD density
   Simone Kossmann        : Meta GGA functionals, TD-DFT gradient, OOMP2, MP2 Hessian
   Martin Krupicka        : AUTO-CI
   Lucas Lang             : DCDCAS
   Dagmar Lenk            : GEPOL surface, SMD
   Dimitrios Liakos       : Extrapolation schemes; Compound Job, initial MDCI parallelization
   Dimitrios Manganas     : Further ROCIS development; embedding schemes
   Dimitrios Pantazis     : SARC Basis sets
   Taras Petrenko         : DFT Hessian,TD-DFT gradient, ASA, ECA, R-Raman, ABS, FL, XAS/XES, NRVS
   Peter Pinski           : DLPNO-MP2, DLPNO-MP2 Gradient
   Christoph Reimann      : Effective Core Potentials
   Marius Retegan         : Local ZFS, SOC
   Christoph Riplinger    : Optimizer, TS searches, QM/MM, DLPNO-CCSD(T), (RO)-DLPNO pert. Triples
   Tobias Risthaus        : Range-separated hybrids, TD-DFT gradient, RPA, STAB
   Michael Roemelt        : Original ROCIS implementation
   Masaaki Saitow         : Open-shell DLPNO-CCSD energy and density
   Barbara Sandhoefer     : DKH picture change effects
   Avijit Sen             : IP-ROCIS
   Kantharuban Sivalingam : CASSCF convergence, NEVPT2, FIC-MRCI
   Bernardo de Souza      : ESD, SOC TD-DFT
   Georgi Stoychev        : AutoAux, RI-MP2 NMR
   Willem Van den Heuvel  : Paramagnetic NMR
   Boris Wezisla          : Elementary symmetry handling
   Frank Wennmohs         : Technical directorship


 We gratefully acknowledge several colleagues who have allowed us to
 interface, adapt or use parts of their codes:
   Stefan Grimme, W. Hujo, H. Kruse,             : VdW corrections, initial TS optimization,
                  C. Bannwarth                     DFT functionals, gCP, sTDA/sTD-DF
   Ed Valeev, F. Pavosevic, A. Kumar             : LibInt (2-el integral package), F12 methods
   Garnet Chan, S. Sharma, J. Yang, R. Olivares  : DMRG
   Ulf Ekstrom                                   : XCFun DFT Library
   Mihaly Kallay                                 : mrcc  (arbitrary order and MRCC methods)
   Andreas Klamt, Michael Diedenhofen            : otool_cosmo (COSMO solvation model)
   Jiri Pittner, Ondrej Demel                    : Mk-CCSD
   Frank Weinhold                                : gennbo (NPA and NBO analysis)
   Christopher J. Cramer and Donald G. Truhlar   : smd solvation model
   Lars Goerigk                                  : TD-DFT with DH, B97 family of functionals
   V. Asgeirsson, H. Jonsson                     : NEB implementation
   FAccTs GmbH                                   : IRC, NEB, NEB-TS, Multilevel, MM, QM/MM, CI optimization
   S Lehtola, MJT Oliveira, MAL Marques          : LibXC Library


 Your calculation uses the libint2 library for the computation of 2-el integrals
 For citations please refer to: http://libint.valeyev.net

 Your ORCA version has been built with support for libXC version: 4.2.3
 For citations please refer to: https://tddft.org/programs/libxc/

 This ORCA versions uses:
   CBLAS   interface :  Fast vector & matrix operations
   LAPACKE interface :  Fast linear algebra routines
   SCALAPACK package :  Parallel linear algebra routines


----- Orbital basis set information -----
Your calculation utilizes the basis: aug-cc-pVTZ-PP 
       Ca, Sr, Ba, Ra : Obtained from the Peterson Research Group Website (tyr0.chem.wsu.edu/~kipeters) Feb. 2017
                        H. Li, H. Feng, W. Sun, Y. Zhang, Q. Fan, K. A. Peterson, Y. Xie, H. F. Schaefer III, Mol. Phys. 111, 2292 (2013)
  Cu-Zn, Ag-Cd, Au-Hg : Obtained from the ccRepo (grant-hill.group.shef.ac.uk/ccrepo) Feb. 2017
                        K. A. Peterson, C. Puzzarini, Theor. Chem. Acc. 114, 283 (2005)
  Ga-Kr, In-Xe, Tl-Rn : Obtained from the ccRepo (grant-hill.group.shef.ac.uk/ccrepo) Feb. 2017
                        K. A. Peterson, J. Chem. Phys. 119, 11099 (2003)
                        K. A. Peterson, D. Figgen, E. Goll, H. Stoll, M. Dolg, J. Chem. Phys. 119, 11113 (2003)
                 Y-Pd : Obtained from the ccRepo (grant-hill.group.shef.ac.uk/ccrepo) Feb. 2017
                        K. A. Peterson, D. Figgen, M. Dolg, H. Stoll, J. Chem. Phys. 126, 124101 (2007)
                Hf-Pt : Obtained from the ccRepo (grant-hill.group.shef.ac.uk/ccrepo) Feb. 2017
                        D. Figgen, K. A. Peterson, M. Dolg, H. Stoll, J. Chem. Phys. 130, 164108 (2009)

cite the ECPs for Ag [SK MCDHF RSC] as follows:
O: B. Metz and H. Stoll, private communication (KAP)
Tl: B. Metz, M. Schweizer, H. Stoll, M. Dolg, W. Liu, Theor. Chem. Acc. 104, 22 (2000)
Ga-As, In-Sb, Pb-Bi: B. Metz, H. Stoll, M. Dolg, J. Chem. Phys. 113, 2563 (2000)
Se-Kr, Te-Xe, Po-Rn: K.A. Peterson, D. Figgen, E. Goll, H. Stoll, and M. Dolg, J. Chem. Phys., in press (2003)
Cu-Zn, Ag-Cd, Au-Hg: D. Figgen, G. Rauhut, M. Dolg, and H. Stoll, Chem. Phys. 311, 227 (2005)
Y-Pd: K.A. Peterson, D. Figgen, M. Dolg, H. Stoll, J. Chem. Phys. 126, 124101 (2007)
I: K. A. Peterson, B. C. Shepler, D. Figgen, H. Stoll, J. Phys. Chem. A 110, 13877 (2006)
Hf-Pt: D. Figgen, K.A. Peterson, M. Dolg, H. Stoll, J. Chem. Phys. 130, 164108 (2009)
Ca, Sr, Ba, Ra: I.S. Lim, H. Stoll, P. Schwerdtfeger, J. Chem. Phys. 124, 034107 (2006)

ECP parameters for Ag [SK MCDHF RSC] have been obtained from:
cc-pVDZ-PP  EMSL  Basis Set Exchange Library   4/7/16 5:27 AM
Ca, Sr, Ba, Ra: http://www.tc.uni-koeln.de/PP/index.en.html 3/16/17 1:54 PM

================================================================================
                                        WARNINGS
                       Please study these warnings very carefully!
================================================================================


WARNING: your system is open-shell and RHF/RKS was chosen
  ===> : WILL SWITCH to UHF/UKS


WARNING: MDCI localization with Augmented Hessian Foster-Boys
  ===> : Switching off randomization!

WARNING: Post HF methods need fully converged wavefunctions
  ===> : Setting SCFConvForced true
         You can overwrite this default with %scf ConvForced false 


INFO   : the flag for use of LIBINT has been found!

================================================================================
                                       INPUT FILE
================================================================================
NAME = 47_Ag.in
|  1> #
|  2> # 47_Ag CCSD(T)/aug-cc-pVTZ-PP
|  3> #
|  4> ! CCSD(T) aug-cc-pVTZ-PP tightscf
|  5> 
|  6> *xyz 0 2
|  7>  Ag 0.0 0.0 0.0
|  8> *
|  9> 
| 10> %maxcore 5000 
| 11> 
| 12> %pal
| 13> nprocs 24
| 14> end
| 15> 
| 16> 
| 17>                          ****END OF INPUT****
================================================================================

                       ****************************
                       * Single Point Calculation *
                       ****************************

---------------------------------
CARTESIAN COORDINATES (ANGSTROEM)
---------------------------------
  Ag     0.000000    0.000000    0.000000

----------------------------
CARTESIAN COORDINATES (A.U.)
----------------------------
  NO LB      ZA    FRAG     MASS         X           Y           Z
   0 Ag   19.0000*   0   107.870    0.000000    0.000000    0.000000
* core charge reduced due to ECP

--------------------------------
INTERNAL COORDINATES (ANGSTROEM)
--------------------------------
 Ag     0   0   0     0.000000000000     0.00000000     0.00000000

---------------------------
INTERNAL COORDINATES (A.U.)
---------------------------
 Ag     0   0   0     0.000000000000     0.00000000     0.00000000

---------------------
BASIS SET INFORMATION
---------------------
There are 1 groups of distinct atoms

 Group   1 Type Ag  : 38s34p23d3f2g contracted to 6s6p5d3f2g pattern {999911/888811/77711/111/11}

Atom   0Ag   basis set group =>   1
-------------------------
ECP PARAMETER INFORMATION
-------------------------

 Group 1, Type Ag ECP SK MCDHF RSC (replacing 28 core electrons, lmax=4)

Atom   0Ag   ECP group =>   1


Checking for AutoStart:
The File: 47_Ag.gbw exists
Trying to determine its content:
     ... Fine, the file contains calculation information
     ... Fine, the calculation information was read
     ... Fine, the file contains a basis set
     ... Fine, the basis set was read
     ... Fine, the file contains ECP parameters
     ... Fine, ECP parameters were read
     ... Fine, the file contains a geometry
     ... Fine, the geometry was read
     ... Fine, the file contains a set of orbitals
     ... Fine, the orbitals can be read
     => possible old guess file was deleted
     => GBW file was renamed to GES file
     => GES file is set as startup file
     => Guess is set to MORead
     ... now leaving AutoStart



           ************************************************************
           *        Program running with 24 parallel MPI-processes    *
           *              working on a common directory               *
           ************************************************************
------------------------------------------------------------------------------
                           ORCA GTO INTEGRAL CALCULATION
------------------------------------------------------------------------------

                         BASIS SET STATISTICS AND STARTUP INFO

 # of primitive gaussian shells          ...  100
 # of primitive gaussian functions       ...  294
 # of contracted shells                  ...   22
 # of contracted basis functions         ...   88
 Highest angular momentum                ...    4
 Maximum contraction depth               ...    9
 Integral package used                   ... LIBINT
 Integral threshhold            Thresh   ...  2.500e-11
 Primitive cut-off              TCut     ...  2.500e-12


------------------------------ INTEGRAL EVALUATION ----------------------------


 * One electron integrals 

   ECP integrals                         ... done
 Pre-screening matrix                    ... done
 Shell pair data                         ... done (   0.000 sec)



           ************************************************************
           *        Program running with 24 parallel MPI-processes    *
           *              working on a common directory               *
           ************************************************************
-------------------------------------------------------------------------------
                                 ORCA SCF
-------------------------------------------------------------------------------

------------
SCF SETTINGS
------------
Hamiltonian:
 Ab initio Hamiltonian  Method          .... Hartree-Fock(GTOs)


General Settings:
 Integral files         IntName         .... 47_Ag
 Hartree-Fock type      HFTyp           .... UHF
 Total Charge           Charge          ....    0
 Multiplicity           Mult            ....    2
 Number of Electrons    NEL             ....   19
 Basis Dimension        Dim             ....   88
 Nuclear Repulsion      ENuc            ....      0.0000000000 Eh

Convergence Acceleration:
 DIIS                   CNVDIIS         .... on
   Start iteration      DIISMaxIt       ....    12
   Startup error        DIISStart       ....  0.200000
   # of expansion vecs  DIISMaxEq       ....     5
   Bias factor          DIISBfac        ....   1.050
   Max. coefficient     DIISMaxC        ....  10.000
 Newton-Raphson         CNVNR           .... off
 SOSCF                  CNVSOSCF        .... off
 Level Shifting         CNVShift        .... on
   Level shift para.    LevelShift      ....    0.2500
   Turn off err/grad.   ShiftErr        ....    0.0010
 Zerner damping         CNVZerner       .... off
 Static damping         CNVDamp         .... on
   Fraction old density DampFac         ....    0.7000
   Max. Damping (<1)    DampMax         ....    0.9800
   Min. Damping (>=0)   DampMin         ....    0.0000
   Turn off err/grad.   DampErr         ....    0.1000
 Fernandez-Rico         CNVRico         .... off

SCF Procedure:
 Maximum # iterations   MaxIter         ....   125
 SCF integral mode      SCFMode         .... Direct
   Integral package                     .... LIBINT
 Reset frequency        DirectResetFreq ....    20
 Integral Threshold     Thresh          ....  2.500e-11 Eh
 Primitive CutOff       TCut            ....  2.500e-12 Eh

Convergence Tolerance:
 Convergence Check Mode ConvCheckMode   .... Total+1el-Energy
 Convergence forced     ConvForced      .... 1
 Energy Change          TolE            ....  1.000e-08 Eh
 1-El. energy change                    ....  1.000e-05 Eh
 DIIS Error             TolErr          ....  5.000e-07


Diagonalization of the overlap matrix:
Smallest eigenvalue                        ... 3.138e-03
Time for diagonalization                   ...    0.003 sec
Threshold for overlap eigenvalues          ... 1.000e-08
Number of eigenvalues below threshold      ... 0
Time for construction of square roots      ...    0.010 sec
Total time needed                          ...    0.013 sec

---------------------
INITIAL GUESS: MOREAD
---------------------
Guess MOs are being read from file: 47_Ag.ges
Input Geometry matches current geometry (good)
Input basis set matches current basis set (good)
MOs were renormalized
MOs were reorthogonalized (Cholesky)
                      ------------------
                      INITIAL GUESS DONE (   0.0 sec)
                      ------------------
--------------
SCF ITERATIONS
--------------
ITER       Energy         Delta-E        Max-DP      RMS-DP      [F,P]     Damp
               ***  Starting incremental Fock matrix formation  ***
  0   -145.9214843401   0.000000000000 0.00093559  0.00001286  0.0020929 0.7000
  1   -145.9214873398  -0.000002999710 0.00115890  0.00001593  0.0018667 0.7000
                               ***Turning on DIIS***
  2   -145.9214904406  -0.000003100739 0.00371044  0.00005102  0.0015952 0.0000
  3   -145.9241803117  -0.002689871131 0.00312715  0.00004363  0.0007420 0.0000
  4   -145.9214362612   0.002744050523 0.00077637  0.00000859  0.0004259 0.0000
  5   -145.9214046018   0.000031659416 0.00152257  0.00001658  0.0005180 0.0000
  6   -145.9217052002  -0.000300598408 0.00208500  0.00002273  0.0003380 0.0000
  7   -145.9215714365   0.000133763640 0.00077353  0.00000845  0.0000923 0.0000
  8   -145.9214955167   0.000075919835 0.00002193  0.00000046  0.0000052 0.0000
  9   -145.9215081946  -0.000012677954 0.00001188  0.00000024  0.0000049 0.0000
 10   -145.9215000835   0.000008111181 0.00000787  0.00000018  0.0000049 0.0000
 11   -145.9215013038  -0.000001220369 0.00000519  0.00000009  0.0000049 0.0000
 12   -145.9215021971  -0.000000893261 0.00000925  0.00000014  0.0000049 0.0000
 13   -145.9215019115   0.000000285609 0.00000809  0.00000011  0.0000049 0.0000
 14   -145.9215017138   0.000000197647 0.00000654  0.00000008  0.0000049 0.0000
 15   -145.9215016374   0.000000076470 0.00000374  0.00000005  0.0000049 0.0000
 16   -145.9215016476  -0.000000010253 0.00000188  0.00000002  0.0000049 0.0000
 17   -145.9215017087  -0.000000061092 0.00000260  0.00000003  0.0000049 0.0000
 18   -145.9215017250  -0.000000016285 0.00000337  0.00000004  0.0000049 0.0000
 19   -145.9215017128   0.000000012213 0.00000323  0.00000004  0.0000049 0.0000
               *** Restarting incremental Fock matrix formation ***
                                   *** Resetting DIIS ***
 20   -145.9215017382  -0.000000025440 0.00000706  0.00000009  0.0000049 0.0000
                 **** Energy Check signals convergence ****

               *****************************************************
               *                     SUCCESS                       *
               *           SCF CONVERGED AFTER  21 CYCLES          *
               *****************************************************


----------------
TOTAL SCF ENERGY
----------------

Total Energy       :         -145.92150173 Eh           -3970.72593 eV

Components:
Nuclear Repulsion  :            0.00000000 Eh               0.00000 eV
Electronic Energy  :         -145.92150173 Eh           -3970.72593 eV
One Electron Energy:         -258.42499792 Eh           -7032.10170 eV
Two Electron Energy:          112.50349619 Eh            3061.37577 eV

Virial components:
Potential Energy   :         -201.65476111 Eh           -5487.30502 eV
Kinetic Energy     :           55.73325938 Eh            1516.57909 eV
Virial Ratio       :            3.61821224


---------------
SCF CONVERGENCE
---------------

  Last Energy change         ...    8.8006e-09  Tolerance :   1.0000e-08
  Last MAX-Density change    ...    5.2073e-06  Tolerance :   1.0000e-07
  Last RMS-Density change    ...    7.0504e-08  Tolerance :   5.0000e-09
  Last DIIS Error            ...    4.8735e-06  Tolerance :   5.0000e-07

             **** THE GBW FILE WAS UPDATED (47_Ag.gbw) ****
             **** DENSITY FILE WAS UPDATED (47_Ag.scfp) ****
             **** ENERGY FILE WAS UPDATED (47_Ag.en.tmp) ****
----------------------
UHF SPIN CONTAMINATION
----------------------

Expectation value of <S**2>     :     0.753215
Ideal value S*(S+1) for S=0.5   :     0.750000
Deviation                       :     0.003215

             **** THE GBW FILE WAS UPDATED (47_Ag.gbw) ****
             **** DENSITY FILE WAS UPDATED (47_Ag.scfp) ****
----------------
ORBITAL ENERGIES
----------------
                 SPIN UP ORBITALS
  NO   OCC          E(Eh)            E(eV) 
   0   1.0000      -4.574698      -124.4839 
   1   1.0000      -3.045058       -82.8602 
   2   1.0000      -3.030656       -82.4684 
   3   1.0000      -2.972337       -80.8814 
   4   1.0000      -0.739436       -20.1211 
   5   1.0000      -0.689671       -18.7669 
   6   1.0000      -0.671448       -18.2710 
   7   1.0000      -0.666881       -18.1467 
   8   1.0000      -0.661620       -18.0036 
   9   1.0000      -0.281114        -7.6495 
  10   0.0000       0.019929         0.5423 
  11   0.0000       0.020331         0.5532 
  12   0.0000       0.021843         0.5944 
  13   0.0000       0.036166         0.9841 
  14   0.0000       0.064576         1.7572 
  15   0.0000       0.065561         1.7840 
  16   0.0000       0.069662         1.8956 
  17   0.0000       0.142989         3.8909 
  18   0.0000       0.143654         3.9090 
  19   0.0000       0.144549         3.9334 
  20   0.0000       0.144748         3.9388 
  21   0.0000       0.145004         3.9457 
  22   0.0000       0.225340         6.1318 
  23   0.0000       0.226941         6.1754 
  24   0.0000       0.233765         6.3611 
  25   0.0000       0.307871         8.3776 
  26   0.0000       0.469647        12.7797 
  27   0.0000       0.474818        12.9205 
  28   0.0000       0.478630        13.0242 
  29   0.0000       0.479519        13.0484 
  30   0.0000       0.480640        13.0789 
  31   0.0000       0.794979        21.6325 
  32   0.0000       0.799006        21.7421 
  33   0.0000       0.815380        22.1876 
  34   0.0000       0.951843        25.9010 
  35   0.0000       0.952365        25.9152 
  36   0.0000       0.959420        26.1071 
  37   0.0000       0.966207        26.2918 
  38   0.0000       0.968034        26.3415 
  39   0.0000       0.969012        26.3682 
  40   0.0000       0.969732        26.3877 
  41   0.0000       1.520781        41.3826 
  42   0.0000       1.540651        41.9232 
  43   0.0000       1.550546        42.1925 
  44   0.0000       1.552943        42.2577 
  45   0.0000       1.555818        42.3360 
  46   0.0000       2.164197        58.8908 
  47   0.0000       2.225896        60.5697 
  48   0.0000       2.228657        60.6448 
  49   0.0000       2.246089        61.1192 
  50   0.0000       2.269981        61.7693 
  51   0.0000       2.272228        61.8305 
  52   0.0000       2.273783        61.8728 
  53   0.0000       2.274746        61.8990 
  54   0.0000       3.017784        82.1181 
  55   0.0000       3.018477        82.1369 
  56   0.0000       3.031572        82.4933 
  57   0.0000       3.034159        82.5637 
  58   0.0000       3.038183        82.6732 
  59   0.0000       3.050787        83.0161 
  60   0.0000       3.051163        83.0264 
  61   0.0000       3.051630        83.0391 
  62   0.0000       3.051852        83.0451 
  63   0.0000       3.071915        83.5910 
  64   0.0000       3.080157        83.8153 
  65   0.0000       3.114742        84.7564 
  66   0.0000       5.036491       137.0499 
  67   0.0000       5.069624       137.9515 
  68   0.0000       5.084846       138.3657 
  69   0.0000       5.088538       138.4662 
  70   0.0000       5.092937       138.5859 
  71   0.0000       5.751929       156.5179 
  72   0.0000       5.754957       156.6003 
  73   0.0000       5.774989       157.1455 
  74   0.0000       5.802051       157.8818 
  75   0.0000       5.804810       157.9569 
  76   0.0000       5.806743       158.0095 
  77   0.0000       5.807898       158.0409 
  78   0.0000       7.278114       198.0475 
  79   0.0000       7.279931       198.0970 
  80   0.0000       7.302101       198.7003 
  81   0.0000       7.307367       198.8436 
  82   0.0000       7.313302       199.0051 
  83   0.0000       7.338668       199.6953 
  84   0.0000       7.338671       199.6954 
  85   0.0000       7.338730       199.6970 
  86   0.0000       7.338739       199.6972 
  87   0.0000      14.207165       386.5966 

                 SPIN DOWN ORBITALS
  NO   OCC          E(Eh)            E(eV) 
   0   1.0000      -4.493652      -122.2785 
   1   1.0000      -2.951324       -80.3096 
   2   1.0000      -2.905894       -79.0734 
   3   1.0000      -2.894523       -78.7640 
   4   1.0000      -0.678832       -18.4720 
   5   1.0000      -0.640022       -17.4159 
   6   1.0000      -0.630831       -17.1658 
   7   1.0000      -0.620735       -16.8911 
   8   1.0000      -0.269273        -7.3273 
   9   0.0000      -0.009545        -0.2597 
  10   0.0000       0.020329         0.5532 
  11   0.0000       0.020540         0.5589 
  12   0.0000       0.021411         0.5826 
  13   0.0000       0.036962         1.0058 
  14   0.0000       0.066752         1.8164 
  15   0.0000       0.067200         1.8286 
  16   0.0000       0.069089         1.8800 
  17   0.0000       0.143292         3.8992 
  18   0.0000       0.144329         3.9274 
  19   0.0000       0.144561         3.9337 
  20   0.0000       0.144851         3.9416 
  21   0.0000       0.149786         4.0759 
  22   0.0000       0.231390         6.2965 
  23   0.0000       0.231967         6.3121 
  24   0.0000       0.234385         6.3779 
  25   0.0000       0.315910         8.5963 
  26   0.0000       0.475430        12.9371 
  27   0.0000       0.480389        13.0720 
  28   0.0000       0.481549        13.1036 
  29   0.0000       0.482925        13.1410 
  30   0.0000       0.503199        13.6928 
  31   0.0000       0.811194        22.0737 
  32   0.0000       0.812451        22.1079 
  33   0.0000       0.818165        22.2634 
  34   0.0000       0.966430        26.2979 
  35   0.0000       0.968617        26.3574 
  36   0.0000       0.970480        26.4081 
  37   0.0000       0.972752        26.4699 
  38   0.0000       0.977920        26.6106 
  39   0.0000       0.978568        26.6282 
  40   0.0000       0.979837        26.6627 
  41   0.0000       1.545273        42.0490 
  42   0.0000       1.558918        42.4203 
  43   0.0000       1.562169        42.5088 
  44   0.0000       1.565866        42.6094 
  45   0.0000       1.595178        43.4070 
  46   0.0000       2.186260        59.4912 
  47   0.0000       2.273942        61.8771 
  48   0.0000       2.281147        62.0732 
  49   0.0000       2.287365        62.2424 
  50   0.0000       2.293600        62.4120 
  51   0.0000       2.320705        63.1496 
  52   0.0000       2.327069        63.3228 
  53   0.0000       2.333252        63.4910 
  54   0.0000       3.045435        82.8705 
  55   0.0000       3.045524        82.8729 
  56   0.0000       3.049679        82.9860 
  57   0.0000       3.049997        82.9946 
  58   0.0000       3.052406        83.0602 
  59   0.0000       3.055035        83.1317 
  60   0.0000       3.055736        83.1508 
  61   0.0000       3.057909        83.2099 
  62   0.0000       3.058078        83.2145 
  63   0.0000       3.103786        84.4583 
  64   0.0000       3.107128        84.5493 
  65   0.0000       3.121160        84.9311 
  66   0.0000       5.076914       138.1499 
  67   0.0000       5.097069       138.6983 
  68   0.0000       5.101888       138.8294 
  69   0.0000       5.107319       138.9772 
  70   0.0000       5.120877       139.3461 
  71   0.0000       5.806605       158.0057 
  72   0.0000       5.809955       158.0969 
  73   0.0000       5.812934       158.1780 
  74   0.0000       5.824366       158.4891 
  75   0.0000       5.829059       158.6168 
  76   0.0000       5.829092       158.6176 
  77   0.0000       5.829322       158.6239 
  78   0.0000       7.335688       199.6142 
  79   0.0000       7.336044       199.6239 
  80   0.0000       7.340454       199.7439 
  81   0.0000       7.340951       199.7574 
  82   0.0000       7.343342       199.8225 
  83   0.0000       7.350381       200.0140 
  84   0.0000       7.350727       200.0234 
  85   0.0000       7.354176       200.1173 
  86   0.0000       7.354296       200.1206 
  87   0.0000      14.214535       386.7972 

                    ********************************
                    * MULLIKEN POPULATION ANALYSIS *
                    ********************************

--------------------------------------------
MULLIKEN ATOMIC CHARGES AND SPIN POPULATIONS
--------------------------------------------
   0 Ag:    0.000000    1.000000
Sum of atomic charges         :    0.0000000
Sum of atomic spin populations:    1.0000000

-----------------------------------------------------
MULLIKEN REDUCED ORBITAL CHARGES AND SPIN POPULATIONS
-----------------------------------------------------
CHARGE
  0 Ags       :     3.999694  s :     3.999694
      pz      :     1.999516  p :     5.998955
      px      :     1.999794
      py      :     1.999645
      dz2     :     2.000021  d :     8.999993
      dxz     :     1.683142
      dyz     :     1.329542
      dx2y2   :     1.999962
      dxy     :     1.987326
      f0      :     0.000199  f :     0.001045
      f+1     :     0.000157
      f-1     :     0.000304
      f+2     :     0.000041
      f-2     :     0.000259
      f+3     :     0.000043
      f-3     :     0.000042
      g0      :     0.000049  g :     0.000313
      g+1     :     0.000018
      g-1     :     0.000012
      g+2     :     0.000032
      g-2     :     0.000063
      g+3     :     0.000035
      g-3     :     0.000037
      g+4     :     0.000034
      g-4     :     0.000034

SPIN
  0 Ags       :    -0.000044  s :    -0.000044
      pz      :     0.000326  p :     0.000614
      px      :     0.000077
      py      :     0.000211
      dz2     :     0.000003  d :     0.999935
      dxz     :     0.316783
      dyz     :     0.670383
      dx2y2   :    -0.000021
      dxy     :     0.012787
      f0      :    -0.000196  f :    -0.000614
      f+1     :    -0.000101
      f-1     :    -0.000232
      f+2     :    -0.000021
      f-2     :    -0.000116
      f+3     :     0.000025
      f-3     :     0.000027
      g0      :    -0.000028  g :     0.000109
      g+1     :    -0.000002
      g-1     :     0.000002
      g+2     :     0.000014
      g-2     :     0.000028
      g+3     :     0.000034
      g-3     :     0.000034
      g+4     :     0.000014
      g-4     :     0.000014


                     *******************************
                     * LOEWDIN POPULATION ANALYSIS *
                     *******************************

-------------------------------------------
LOEWDIN ATOMIC CHARGES AND SPIN POPULATIONS
-------------------------------------------
   0 Ag:    0.000000    1.000000

----------------------------------------------------
LOEWDIN REDUCED ORBITAL CHARGES AND SPIN POPULATIONS
----------------------------------------------------
CHARGE
  0 Ags       :     3.999694  s :     3.999694
      pz      :     1.999516  p :     5.998955
      px      :     1.999794
      py      :     1.999645
      dz2     :     2.000021  d :     8.999993
      dxz     :     1.683142
      dyz     :     1.329542
      dx2y2   :     1.999962
      dxy     :     1.987326
      f0      :     0.000199  f :     0.001045
      f+1     :     0.000157
      f-1     :     0.000304
      f+2     :     0.000041
      f-2     :     0.000259
      f+3     :     0.000043
      f-3     :     0.000042
      g0      :     0.000049  g :     0.000313
      g+1     :     0.000018
      g-1     :     0.000012
      g+2     :     0.000032
      g-2     :     0.000063
      g+3     :     0.000035
      g-3     :     0.000037
      g+4     :     0.000034
      g-4     :     0.000034

SPIN
  0 Ags       :    -0.000044  s :    -0.000044
      pz      :     0.000326  p :     0.000614
      px      :     0.000077
      py      :     0.000211
      dz2     :     0.000003  d :     0.999935
      dxz     :     0.316783
      dyz     :     0.670383
      dx2y2   :    -0.000021
      dxy     :     0.012787
      f0      :    -0.000196  f :    -0.000614
      f+1     :    -0.000101
      f-1     :    -0.000232
      f+2     :    -0.000021
      f-2     :    -0.000116
      f+3     :     0.000025
      f-3     :     0.000027
      g0      :    -0.000028  g :     0.000109
      g+1     :    -0.000002
      g-1     :     0.000002
      g+2     :     0.000014
      g-2     :     0.000028
      g+3     :     0.000034
      g-3     :     0.000034
      g+4     :     0.000014
      g-4     :     0.000014


                      *****************************
                      * MAYER POPULATION ANALYSIS *
                      *****************************

  NA   - Mulliken gross atomic population
  ZA   - Total nuclear charge
  QA   - Mulliken gross atomic charge
  VA   - Mayer's total valence
  BVA  - Mayer's bonded valence
  FA   - Mayer's free valence

  ATOM       NA         ZA         QA         VA         BVA        FA
  0 Ag    19.0000    19.0000     0.0000     1.0064     0.0000     1.0064

  Mayer bond orders larger than 0.100000


-------
TIMINGS
-------

Total SCF time: 0 days 0 hours 0 min 14 sec 

Total time                  ....      14.032 sec
Sum of individual times     ....      13.496 sec  ( 96.2%)

Fock matrix formation       ....      12.831 sec  ( 91.4%)
Diagonalization             ....       0.141 sec  (  1.0%)
Density matrix formation    ....       0.015 sec  (  0.1%)
Population analysis         ....       0.066 sec  (  0.5%)
Initial guess               ....       0.012 sec  (  0.1%)
Orbital Transformation      ....       0.000 sec  (  0.0%)
Orbital Orthonormalization  ....       0.004 sec  (  0.0%)
DIIS solution               ....       0.432 sec  (  3.1%)


           ************************************************************
           *        Program running with 24 parallel MPI-processes    *
           *              working on a common directory               *
           ************************************************************


------------------------------------------------------------------------------- 
                              ORCA-MATRIX DRIVEN CI                            
------------------------------------------------------------------------------- 

--------------------------------
AUTOMATIC CHOICE OF INCORE LEVEL
--------------------------------

Memory available                           ...   2500.00 MB
Memory needed for S+T                      ...      7.66 MB
Memory needed for J+K                      ...     15.38 MB
Memory needed for DIIS                     ...    107.22 MB
Memory needed for 3-ext                    ...     36.21 MB
Memory needed for 4-ext                    ...    143.01 MB
Memory needed for triples                  ...     18.10 MB
 -> Final InCoreLevel    ... 5
 -> check shows that triples correction can be computed


Wavefunction type
-----------------
Correlation treatment                      ...      CCSD     
Single excitations                         ... ON
Orbital optimization                       ... OFF
Calculation of Z vector                    ... OFF
Calculation of Brueckner orbitals          ... OFF
Perturbative triple excitations            ... ON
Calculation of F12 correction              ... OFF
Frozen core treatment                      ... chemical core (0 el)
Reference Wavefunction                     ... UHF
  Alpha-MOs occ    :     0 ...    9 ( 10 MO's/ 10 electrons)
  Beta-MOs occ     :     0 ...    8 (  9 MO's/  9 electrons)
  Alpha-MOs virt   :    10 ...   87 ( 78 MO's              )
  Beta-MOs virt    :     9 ...   87 ( 79 MO's              )
Number of AO's                             ...     88
Number of electrons                        ...     19
Number of correlated electrons             ...     19

Algorithmic settings
--------------------
Integral transformation                    ... AO direct full transformation
K(C) Formation                             ... FULL-MO TRAFO
Maximum number of iterations               ...        50
Convergence tolerance (max. residuum)      ... 1.000e-05
Level shift for amplitude update           ... 2.000e-01
Maximum number of DIIS vectors             ...         7
DIIS turned on at iteration                ...         0
Damping before turning on DIIS             ...     0.500
Damping after turning on DIIS              ...     0.000
Pair specific amplitude update             ... OFF
Natural orbital iterations                 ... OFF
Perturbative natural orbital generation    ... OFF
Printlevel                                 ... 2

Memory handling:
----------------
Maximum memory for working arrays          ...   2500 MB
Data storage in matrix containers          ... UNCOMPRESSED
Data type for integral storage             ... DOUBLE
In-Core Storage of quantities:
   Amplitudes+Sigma Vector      ... YES
   J+K operators                ... YES
   DIIS vectors                 ... YES
   3-external integrals         ... YES
   4-external integrals         ... YES


Initializing the integral package          ... done
Warning: reference  - re-canonicalizations have been set to INT 1 VIRT 1

--------------------------
UNRESTRICTED FOCK OPERATOR
--------------------------

<ss|ss>:          231 b            0 skpd (  0.0%)    0.002 s ( 0.007 ms/b)
<ss|sp>:          756 b            0 skpd (  0.0%)    0.020 s ( 0.026 ms/b)
<ss|sd>:          630 b            0 skpd (  0.0%)    0.011 s ( 0.017 ms/b)
<ss|sf>:          378 b            0 skpd (  0.0%)    0.002 s ( 0.005 ms/b)
<ss|sg>:          252 b            0 skpd (  0.0%)    0.001 s ( 0.005 ms/b)
<ss|pp>:          441 b            0 skpd (  0.0%)    0.009 s ( 0.021 ms/b)
<ss|pd>:          630 b            0 skpd (  0.0%)    0.011 s ( 0.017 ms/b)
<ss|pf>:          378 b            0 skpd (  0.0%)    0.001 s ( 0.003 ms/b)
<ss|pg>:          252 b            0 skpd (  0.0%)    0.002 s ( 0.007 ms/b)
<ss|dd>:          315 b            0 skpd (  0.0%)    0.008 s ( 0.026 ms/b)
<ss|df>:          315 b            0 skpd (  0.0%)    0.002 s ( 0.005 ms/b)
<ss|dg>:          210 b            0 skpd (  0.0%)    0.003 s ( 0.012 ms/b)
<ss|ff>:          126 b            0 skpd (  0.0%)    0.000 s ( 0.003 ms/b)
<ss|fg>:          126 b            0 skpd (  0.0%)    0.001 s ( 0.005 ms/b)
<ss|gg>:           63 b            0 skpd (  0.0%)    0.001 s ( 0.014 ms/b)
<sp|sp>:          666 b            0 skpd (  0.0%)    0.011 s ( 0.017 ms/b)
<sp|sd>:         1080 b            0 skpd (  0.0%)    0.017 s ( 0.016 ms/b)
<sp|sf>:          648 b            0 skpd (  0.0%)    0.002 s ( 0.003 ms/b)
<sp|sg>:          432 b            0 skpd (  0.0%)    0.003 s ( 0.008 ms/b)
<sp|pp>:          756 b            0 skpd (  0.0%)    0.016 s ( 0.021 ms/b)
<sp|pd>:         1080 b            0 skpd (  0.0%)    0.021 s ( 0.020 ms/b)
<sp|pf>:          648 b            0 skpd (  0.0%)    0.004 s ( 0.006 ms/b)
<sp|pg>:          432 b            0 skpd (  0.0%)    0.005 s ( 0.012 ms/b)
<sp|dd>:          540 b            0 skpd (  0.0%)    0.024 s ( 0.045 ms/b)
<sp|df>:          540 b            0 skpd (  0.0%)    0.005 s ( 0.010 ms/b)
<sp|dg>:          360 b            0 skpd (  0.0%)    0.008 s ( 0.021 ms/b)
<sp|ff>:          216 b            0 skpd (  0.0%)    0.001 s ( 0.006 ms/b)
<sp|fg>:          216 b            0 skpd (  0.0%)    0.002 s ( 0.009 ms/b)
<sp|gg>:          108 b            0 skpd (  0.0%)    0.003 s ( 0.026 ms/b)
<sd|sd>:          465 b            0 skpd (  0.0%)    0.013 s ( 0.027 ms/b)
<sd|sf>:          540 b            0 skpd (  0.0%)    0.003 s ( 0.006 ms/b)
<sd|sg>:          360 b            0 skpd (  0.0%)    0.005 s ( 0.013 ms/b)
<sd|pp>:          630 b            0 skpd (  0.0%)    0.017 s ( 0.027 ms/b)
<sd|pd>:          900 b            0 skpd (  0.0%)    0.029 s ( 0.032 ms/b)
<sd|pf>:          540 b            0 skpd (  0.0%)    0.006 s ( 0.010 ms/b)
<sd|pg>:          360 b            0 skpd (  0.0%)    0.010 s ( 0.027 ms/b)
<sd|dd>:          450 b            0 skpd (  0.0%)    0.037 s ( 0.083 ms/b)
<sd|df>:          450 b            0 skpd (  0.0%)    0.010 s ( 0.021 ms/b)
<sd|dg>:          300 b            0 skpd (  0.0%)    0.016 s ( 0.053 ms/b)
<sd|ff>:          180 b            0 skpd (  0.0%)    0.003 s ( 0.015 ms/b)
<sd|fg>:          180 b            0 skpd (  0.0%)    0.004 s ( 0.022 ms/b)
<sd|gg>:           90 b            0 skpd (  0.0%)    0.006 s ( 0.063 ms/b)
<sf|sf>:          171 b            0 skpd (  0.0%)    0.001 s ( 0.005 ms/b)
<sf|sg>:          216 b            0 skpd (  0.0%)    0.001 s ( 0.006 ms/b)
<sf|pp>:          378 b            0 skpd (  0.0%)    0.004 s ( 0.011 ms/b)
<sf|pd>:          540 b            0 skpd (  0.0%)    0.008 s ( 0.014 ms/b)
<sf|pf>:          324 b            0 skpd (  0.0%)    0.002 s ( 0.005 ms/b)
<sf|pg>:          216 b            0 skpd (  0.0%)    0.003 s ( 0.015 ms/b)
<sf|dd>:          270 b            0 skpd (  0.0%)    0.011 s ( 0.042 ms/b)
<sf|df>:          270 b            0 skpd (  0.0%)    0.003 s ( 0.012 ms/b)
<sf|dg>:          180 b            0 skpd (  0.0%)    0.005 s ( 0.028 ms/b)
<sf|ff>:          108 b            0 skpd (  0.0%)    0.001 s ( 0.011 ms/b)
<sf|fg>:          108 b            0 skpd (  0.0%)    0.002 s ( 0.015 ms/b)
<sf|gg>:           54 b            0 skpd (  0.0%)    0.002 s ( 0.042 ms/b)
<sg|sg>:           78 b            0 skpd (  0.0%)    0.002 s ( 0.024 ms/b)
<sg|pp>:          252 b            0 skpd (  0.0%)    0.006 s ( 0.022 ms/b)
<sg|pd>:          360 b            0 skpd (  0.0%)    0.010 s ( 0.028 ms/b)
<sg|pf>:          216 b            0 skpd (  0.0%)    0.002 s ( 0.010 ms/b)
<sg|pg>:          144 b            0 skpd (  0.0%)    0.005 s ( 0.031 ms/b)
<sg|dd>:          180 b            0 skpd (  0.0%)    0.015 s ( 0.082 ms/b)
<sg|df>:          180 b            0 skpd (  0.0%)    0.004 s ( 0.025 ms/b)
<sg|dg>:          120 b            0 skpd (  0.0%)    0.007 s ( 0.061 ms/b)
<sg|ff>:           72 b            0 skpd (  0.0%)    0.001 s ( 0.018 ms/b)
<sg|fg>:           72 b            0 skpd (  0.0%)    0.002 s ( 0.028 ms/b)
<sg|gg>:           36 b            0 skpd (  0.0%)    0.003 s ( 0.087 ms/b)
<pp|pp>:          231 b            0 skpd (  0.0%)    0.014 s ( 0.059 ms/b)
<pp|pd>:          630 b            0 skpd (  0.0%)    0.025 s ( 0.039 ms/b)
<pp|pf>:          378 b            0 skpd (  0.0%)    0.005 s ( 0.013 ms/b)
<pp|pg>:          252 b            0 skpd (  0.0%)    0.008 s ( 0.033 ms/b)
<pp|dd>:          315 b            0 skpd (  0.0%)    0.032 s ( 0.103 ms/b)
<pp|df>:          315 b            0 skpd (  0.0%)    0.008 s ( 0.027 ms/b)
<pp|dg>:          210 b            0 skpd (  0.0%)    0.013 s ( 0.062 ms/b)
<pp|ff>:          126 b            0 skpd (  0.0%)    0.002 s ( 0.019 ms/b)
<pp|fg>:          126 b            0 skpd (  0.0%)    0.003 s ( 0.027 ms/b)
<pp|gg>:           63 b            0 skpd (  0.0%)    0.005 s ( 0.084 ms/b)
<pd|pd>:          465 b            0 skpd (  0.0%)    0.050 s ( 0.107 ms/b)
<pd|pf>:          540 b            0 skpd (  0.0%)    0.012 s ( 0.022 ms/b)
<pd|pg>:          360 b            0 skpd (  0.0%)    0.023 s ( 0.063 ms/b)
<pd|dd>:          450 b            0 skpd (  0.0%)    0.081 s ( 0.180 ms/b)
<pd|df>:          450 b            0 skpd (  0.0%)    0.023 s ( 0.052 ms/b)
<pd|dg>:          300 b            0 skpd (  0.0%)    0.036 s ( 0.119 ms/b)
<pd|ff>:          180 b            0 skpd (  0.0%)    0.007 s ( 0.037 ms/b)
<pd|fg>:          180 b            0 skpd (  0.0%)    0.010 s ( 0.053 ms/b)
<pd|gg>:           90 b            0 skpd (  0.0%)    0.014 s ( 0.159 ms/b)
<pf|pf>:          171 b            0 skpd (  0.0%)    0.003 s ( 0.020 ms/b)
<pf|pg>:          216 b            0 skpd (  0.0%)    0.006 s ( 0.030 ms/b)
<pf|dd>:          270 b            0 skpd (  0.0%)    0.021 s ( 0.080 ms/b)
<pf|df>:          270 b            0 skpd (  0.0%)    0.006 s ( 0.024 ms/b)
<pf|dg>:          180 b            0 skpd (  0.0%)    0.010 s ( 0.058 ms/b)
<pf|ff>:          108 b            0 skpd (  0.0%)    0.003 s ( 0.025 ms/b)
<pf|fg>:          108 b            0 skpd (  0.0%)    0.004 s ( 0.034 ms/b)
<pf|gg>:           54 b            0 skpd (  0.0%)    0.005 s ( 0.094 ms/b)
<pg|pg>:           78 b            0 skpd (  0.0%)    0.008 s ( 0.104 ms/b)
<pg|dd>:          180 b            0 skpd (  0.0%)    0.029 s ( 0.160 ms/b)
<pg|df>:          180 b            0 skpd (  0.0%)    0.008 s ( 0.046 ms/b)
<pg|dg>:          120 b            0 skpd (  0.0%)    0.013 s ( 0.110 ms/b)
<pg|ff>:           72 b            0 skpd (  0.0%)    0.003 s ( 0.036 ms/b)
<pg|fg>:           72 b            0 skpd (  0.0%)    0.004 s ( 0.058 ms/b)
<pg|gg>:           36 b            0 skpd (  0.0%)    0.006 s ( 0.178 ms/b)
<dd|dd>:          120 b            0 skpd (  0.0%)    0.070 s ( 0.586 ms/b)
<dd|df>:          225 b            0 skpd (  0.0%)    0.021 s ( 0.092 ms/b)
<dd|dg>:          150 b            0 skpd (  0.0%)    0.033 s ( 0.221 ms/b)
<dd|ff>:           90 b            0 skpd (  0.0%)    0.006 s ( 0.066 ms/b)
<dd|fg>:           90 b            0 skpd (  0.0%)    0.009 s ( 0.099 ms/b)
<dd|gg>:           45 b            0 skpd (  0.0%)    0.013 s ( 0.290 ms/b)
<df|df>:          120 b            0 skpd (  0.0%)    0.009 s ( 0.073 ms/b)
<df|dg>:          150 b            0 skpd (  0.0%)    0.014 s ( 0.093 ms/b)
<df|ff>:           90 b            0 skpd (  0.0%)    0.004 s ( 0.041 ms/b)
<df|fg>:           90 b            0 skpd (  0.0%)    0.005 s ( 0.058 ms/b)
<df|gg>:           45 b            0 skpd (  0.0%)    0.007 s ( 0.164 ms/b)
<dg|dg>:           55 b            0 skpd (  0.0%)    0.016 s ( 0.294 ms/b)
<dg|ff>:           60 b            0 skpd (  0.0%)    0.004 s ( 0.059 ms/b)
<dg|fg>:           60 b            0 skpd (  0.0%)    0.005 s ( 0.090 ms/b)
<dg|gg>:           30 b            0 skpd (  0.0%)    0.008 s ( 0.281 ms/b)
<ff|ff>:           21 b            0 skpd (  0.0%)    0.001 s ( 0.051 ms/b)
<ff|fg>:           36 b            0 skpd (  0.0%)    0.002 s ( 0.053 ms/b)
<ff|gg>:           18 b            0 skpd (  0.0%)    0.003 s ( 0.155 ms/b)
<fg|fg>:           21 b            0 skpd (  0.0%)    0.003 s ( 0.130 ms/b)
<fg|gg>:           18 b            0 skpd (  0.0%)    0.005 s ( 0.272 ms/b)
<gg|gg>:            6 b            0 skpd (  0.0%)    0.003 s ( 0.582 ms/b)
Recanonicalizing the internal orbitals
Recanonicalizing the virtual orbitals
Time needed for Fock operator              ...            1.246 sec
Reference energy                           ...   -145.921501739
Warning: for UHF the TrafoType has to be JK
Warning: for UHF the K(C)-option cannot be MO but must be AOX

-------------------------------
PARTIAL EXCHANGE TRANSFORMATION
-------------------------------

Transformation type                        ... two-operators
Generation of integrals (i,mue|j,nue)      ... ON
Generation of integrals (mue,kappa|nue,tau)... ON
Generation of integrals (i,mue|a,nue)      ... ON
Dimension of the basis                     ...   88
Number of internal alpha-MOs               ...   10 (   0-   9)
Number of internal beta-MOs                ...    9 (   0-   8)
Number of external alpha-MOs               ...   78 (  10-  87)
Number of external beta-MOs                ...   79 (   9-  87)
Pair cutoff                                ... 0.000e+00 Eh
Number of AO pairs in the trafo            ... 3916
Total Number of distinct AO pairs          ... 3916
Memory devoted for trafo                   ... 2500.0 MB 
Max. Number of MO pairs treated together   ... 42314      
Number Format for Storage                  ... Double (8 Byte)
Integral package used                      ... LIBINT

Starting integral evaluation:
    ... done with AO integral generation
Closing buffer AOK[aa] ( 0.00 GB; CompressionRatio= 0.00)
Closing buffer AOK[bb] ( 0.00 GB; CompressionRatio= 0.00)
Closing buffer AOK[ab] ( 0.00 GB; CompressionRatio= 0.00)
Closing buffer AOK[ba] ( 0.00 GB; CompressionRatio= 0.00)
Collecting buffer AOK 
Closing buffer IAAO1[aa] ( 0.00 GB; CompressionRatio= 0.00)
Closing buffer IAAO1[bb] ( 0.00 GB; CompressionRatio= 0.00)
Closing buffer IAAO1[ab] ( 0.00 GB; CompressionRatio= 0.00)
Closing buffer IAAO1[ba] ( 0.00 GB; CompressionRatio= 0.00)
Closing buffer IAAO2[aa] ( 0.00 GB; CompressionRatio= 0.00)
Closing buffer IAAO2[bb] ( 0.00 GB; CompressionRatio= 0.00)
Closing buffer IAAO2[ab] ( 0.00 GB; CompressionRatio= 0.00)
Closing buffer IAAO2[ba] ( 0.00 GB; CompressionRatio= 0.00)
Collecting buffer IAAO 
Closing buffer PRQS    ( 0.00 GB; CompressionRatio= 0.00)
Collecting buffer PRQS 
Number of alpha/alpha MO pairs in trafo    ...   55
Number of beta /beta  MO pairs in trafo    ...   45
Number of alpha/ beta MO pairs in trafo    ...   90
------------------------
SORTING OF (i,mue|j,nue)
------------------------

SORTING OF ALPHA/ALPHA PAIRS
IBATCH = 1 of  1
Closing buffer KAO[aa] ( 0.00 GB; CompressionRatio= 1.00)
Collecting buffer KAO 
SORTING OF BETA /BETA  PAIRS
IBATCH = 1 of  1
Closing buffer KAO[bb] ( 0.00 GB; CompressionRatio= 1.00)
Collecting buffer KAO 
SORTING OF ALPHA/BETA  PAIRS
IBATCH = 1 of  1
Closing buffer KAO[ab] ( 0.00 GB; CompressionRatio= 0.999806339165)
Collecting buffer KAO[ab] 
------------------------
SORTING OF (i,mue|a,nue)
------------------------

Number of alpha/alpha (i,a) pairs in trafo  ...  780
Number of beta /beta  (i,a) pairs in trafo  ...  711
Number of alpha/ beta (i,a) pairs in trafo  ...  790
Number of beta /alpha (i,a) pairs in trafo  ...  702
Setting up the alpha/alpha list             ... done
Setting up the beta /beta  list             ... done
Setting up the alpha/beta  list             ... done
Setting up the beta /alpha list             ... done
    ... Now sorting (i,mue|a,nue)integrals
    ... Integrals (i,b|a,c) will be made on the fly
SORTING OF ALPHA/ALPHA PAIRS
IBATCH = 1 of  1
Closing buffer IPAQ[aa]  0.00 GB; CompressionRatio= 1.00)
SORTING OF BETA /BETA  PAIRS
IBATCH = 1 of  1
Closing buffer IPAQ[bb]( 0.00 GB; CompressionRatio= 1.00)
SORTING OF ALPHA/BETA  PAIRS (NMatSort_ab=33)
IBATCH = 1 of  1
Closing buffer IPAQ[ab]( 0.00 GB; CompressionRatio= 1.00)
SORTING OF BETA/ALPHA  PAIRS
IBATCH = 1 of  1
Closing buffer IPAQ[ba]( 0.00 GB; CompressionRatio= 1.00)
N(AO-Batches) Done                         ...         0 
N(AO-Batches) Skipped                      ...         0 
N(IJ)-pairs Skipped                        ...         0 
TOTAL TIME for half transformation         ...     8.081 sec
AO-integral generation                     ...     0.000 sec
Half transformation                        ...     0.000 sec
K-integral sorting                         ...     1.461 sec
<ss|**>: 
------------------------------
PARTIAL COULOMB TRANSFORMATION
------------------------------

Transformation type                        ... two-operators
Dimension of the basis                     ...   88
Number of internal alpha-MOs               ...   10 (0-9)
Number of internal beta-MOs                ...    9 (0-8)
Pair cutoff                                ... 0.000e+00 Eh
Number of AO pairs included in the trafo   ... 3916
Total Number of distinct AO pairs          ... 3916
Memory devoted for trafo                   ... 2500.0 MB 
Max. Number of MO pairs treated together   ... 83677      
Max. Number of MOs treated per batch       ...  950      
Number Format for Storage                  ... Double (8 Byte)
AO-integral source                         ... DIRECT
Integral package used                      ... LIBINT

Starting integral evaluation:
<sp|**>:         5313 b        0 skpd     0.050 s (  0.010 ms/b)
<sd|**>:         9108 b        0 skpd     0.161 s (  0.018 ms/b)
<sf|**>:         7590 b        0 skpd     0.157 s (  0.021 ms/b)
        4554 b        0 skpd     0.056 s (  0.012 ms/b)
<sg|**>:         3036 b        0 skpd     0.089 s (  0.029 ms/b)
<pp|**>:         5313 b        0 skpd     0.153 s (  0.029 ms/b)
<pd|**>:         7590 b        0 skpd     0.323 s (  0.043 ms/b)
<pf|**>:         4554 b        0 skpd     0.101 s (  0.022 ms/b)
<pg|**>:         3036 b        0 skpd     0.157 s (  0.052 ms/b)
<dd|**>:         3795 b        0 skpd     0.435 s (  0.115 ms/b)
<df|**>:         3795 b        0 skpd     0.168 s (  0.044 ms/b)
<dg|**>:         2530 b        0 skpd     0.234 s (  0.093 ms/b)
<ff|**>:         1518 b        0 skpd     0.090 s (  0.059 ms/b)
<fg|**>:         1518 b        0 skpd     0.147 s (  0.097 ms/b)
<gg|**>:          759 b        0 skpd     0.153 s (  0.201 ms/b)
Closing buffer AOJ[aa] ( 0.00 GB; CompressionRatio= 0.97)
Closing buffer AOJ[bb] ( 0.00 GB; CompressionRatio= 0.00)
Collecting buffer AOJ 
    ... done with AO integral generation
Number of Alpha-MO pairs included          ...   55
Number of Beta-MO pairs included           ...   45
    ... Now sorting integrals
SORTING ALPHA/ALPHA PAIRS
IBATCH = 1 of  1
Closing buffer JAO[aa] ( 0.00 GB; CompressionRatio= 1.00)
SORTING BETA/BETA PAIRS
IBATCH = 1 of  1
Closing buffer JAO[bb] ( 0.00 GB; CompressionRatio= 1.00)
Collecting buffer JAO 
TOTAL TIME for half transformation         ...     2.662 sec
AO-integral generation                     ...     2.314 sec
Half transformation                        ...     0.170 sec
J-integral sorting                         ...     0.134 sec

-------------------------- SECOND HALF TRANSFORMATION -------------------------
Formation of (ij|kl),(ij|ka), (ij|ab)      ... ok (     0.162 sec)
Formation of (ik|jl),(ik|ja), (ia|jb)      ... ok (     0.268 sec)


-----------------------
SPIN UNRESTRICTED GUESS
-----------------------

Entering MDCI_UHF_Guess, Tailored=0
Spin-components of the MP2 energy:
EMP2(aa)=     -0.123469206
EMP2(bb)=     -0.098734679
EMP2(ab)=     -0.480511812

Initial guess performed in     0.029 sec
E(0)                                       ...   -145.921501739
E(MP2)                                     ...     -0.702715697
Initial E(tot)                             ...   -146.624217435
<T|T>                                      ...      0.139289982
Number of pairs included                   ... 171

------------------------------------------------
                  UHF COUPLED CLUSTER ITERATIONS
------------------------------------------------

Number of amplitudes to be optimized       ...       804535

Iter       E(tot)           E(Corr)          Delta-E          Residual     Time      <S|S>**1/2
  0   -146.624217435     -0.702715697     -0.000000000      0.027781733    1.74      0.000006578
                           *** Turning on DIIS ***
  1   -146.584256569     -0.662754830      0.039960866      0.008361185    1.73      0.045448540
  2   -146.598057956     -0.676556218     -0.013801387      0.005823026    1.74      0.056460978
  3   -146.600074142     -0.678572404     -0.002016186      0.002544045    1.73      0.069210200
  4   -146.601096400     -0.679594662     -0.001022258      0.000677277    1.76      0.076492585
  5   -146.601344216     -0.679842477     -0.000247816      0.000802924    1.75      0.079124916
  6   -146.601350456     -0.679848717     -0.000006240      0.000979473    1.77      0.079493313
  7   -146.601344448     -0.679842710      0.000006008      0.000434665    1.79      0.079184198
  8   -146.601363460     -0.679861722     -0.000019012      0.000078082    1.76      0.079579369
  9   -146.601361805     -0.679860067      0.000001655      0.000035570    1.76      0.079705052
 10   -146.601361920     -0.679860182     -0.000000115      0.000018434    1.76      0.079731066
 11   -146.601361642     -0.679859903      0.000000278      0.000009633    1.73      0.079730837
               --- The Coupled-Cluster iterations have converged ---

----------------------
COUPLED CLUSTER ENERGY
----------------------

E(0)                                       ...   -145.921501739
E(CORR)                                    ...     -0.679859903
E(TOT)                                     ...   -146.601361642
Singles norm <S|S>**1/2                    ...      0.079730837 ( 0.039891228, 0.039839608)  
T1 diagnostic                              ...      0.018291508                              

------------------
LARGEST AMPLITUDES
------------------
   8b-> 25b  -1b-> -1b       0.060387
   9a-> 25a  -1a-> -1a       0.053740
   8b-> 13b  -1b-> -1b       0.047459
   9a-> 14a   8b-> 14b       0.046523
   9a-> 15a   8b-> 15b       0.046168
   9a-> 16a   8b-> 16b       0.044458
   9a-> 13a  -1a-> -1a       0.040487
   9a-> 14a   8b-> 22b       0.036743
   9a-> 15a   8b-> 23b       0.036551
   9a-> 22a   8b-> 14b       0.035948
   9a-> 23a   8b-> 15b       0.035893
   9a-> 24a   8b-> 16b       0.035593
   9a-> 16a   8b-> 24b       0.035522
   9a-> 10a   8b-> 14b       0.032843
   9a-> 11a   8b-> 15b       0.031771
   9a-> 14a   8b-> 10b       0.031740

----------------------
UHF TRIPLES CORRECTION (Algorithm 1)
----------------------

Multiplier for the singles contribution    ...      1.000000000

SPIN-CASE Alpha-Alpha-Alpha:
10% done
20% done
30% done
40% done
50% done
60% done
70% done
80% done
90% done


SPIN-CASE Beta-Beta-Beta:
10% done
20% done
30% done
40% done
50% done
60% done
70% done
80% done
90% done


SPIN-CASE Alpha-Alpha-Beta:
10% done
20% done
30% done
40% done
50% done
60% done
70% done
80% done
90% done


SPIN-CASE Beta-Beta-Alpha:
10% done
20% done
30% done
40% done
50% done
60% done
70% done
80% done
90% done


Triples Correction (T)                     ...     -0.023695284
    alpha-alpha-alpha ... -0.001121804 (  4.7%)
    alpha-alpha-beta  ... -0.011566390 ( 48.8%)
    alpha-beta -beta  ... -0.010238231 ( 43.2%)
    beta -beta -beta  ... -0.000768859 (  3.2%)
Scaling of triples based on CCSD energies (Peterson et al. Molecular Physics 113, 1551 (2015))
E(T*) = f*E(T) where f = E(F12-CCSD)/E(CCSD) 
f = CCSD (with F12)/ CCSD (without F12)    ...      1.000000000
Scaled triples correction (T)              ...     -0.023695284

Final correlation energy                   ...     -0.703555187
E(CCSD)                                    ...   -146.601361642
E(CCSD(T))                                 ...   -146.625056926



        !!!!!!!!!!!!!!!!!!!!!!!!!!!!!!!!!!!!!!!!!!!!!!!!!!!!!!!!!!!!!!!!!!!!!!!!!! 
        !  Warning: Densities are linearized densities                           !
        !!!!!!!!!!!!!!!!!!!!!!!!!!!!!!!!!!!!!!!!!!!!!!!!!!!!!!!!!!!!!!!!!!!!!!!!!! 

NORM  =      1.151455849 sqrt=     1.073059108
W(HF) =      0.868465778
------------------------------------------------------------------------------
                           ORCA POPULATION ANALYSIS
------------------------------------------------------------------------------
Input electron density              ... 47_Ag.mdcip
Input spin density                  ... 47_Ag.mdcir
BaseName (.gbw .S,...)              ... 47_Ag

                    ********************************
                    * MULLIKEN POPULATION ANALYSIS *
                    ********************************

------------------------------------------
MULLIKEN ATOMIC CHARGES AND SPIN DENSITIES
------------------------------------------
   0 Ag:    0.000000    1.000000
Sum of atomic charges       :    0.0000000
Sum of atomic spin densities:    1.0000000

---------------------------------------------------
MULLIKEN REDUCED ORBITAL CHARGES AND SPIN DENSITIES
---------------------------------------------------
CHARGE
  0 Ags       :     3.910101  s :     3.910101
      pz      :     2.024445  p :     6.074917
      px      :     2.025526
      py      :     2.024945
      dz2     :     1.978712  d :     8.913206
      dxz     :     1.668268
      dyz     :     1.322483
      dx2y2   :     1.978092
      dxy     :     1.965651
      f0      :     0.013016  f :     0.090751
      f+1     :     0.013146
      f-1     :     0.012109
      f+2     :     0.012220
      f-2     :     0.012204
      f+3     :     0.014028
      f-3     :     0.014028
      g0      :     0.001212  g :     0.011026
      g+1     :     0.001233
      g-1     :     0.001179
      g+2     :     0.001196
      g-2     :     0.001196
      g+3     :     0.001211
      g-3     :     0.001210
      g+4     :     0.001295
      g-4     :     0.001295

SPIN
  0 Ags       :     0.001360  s :     0.001360
      pz      :     0.002892  p :     0.005643
      px      :     0.000818
      py      :     0.001933
      dz2     :     0.000025  d :     0.983033
      dxz     :     0.311236
      dyz     :     0.657801
      dx2y2   :     0.000718
      dxy     :     0.013253
      f0      :     0.001026  f :     0.008606
      f+1     :     0.000967
      f-1     :     0.002160
      f+2     :     0.002185
      f-2     :     0.002217
      f+3     :     0.000025
      f-3     :     0.000025
      g0      :     0.000124  g :     0.001358
      g+1     :     0.000104
      g-1     :     0.000204
      g+2     :     0.000217
      g-2     :     0.000220
      g+3     :     0.000223
      g-3     :     0.000223
      g+4     :     0.000022
      g-4     :     0.000022


                     *******************************
                     * LOEWDIN POPULATION ANALYSIS *
                     *******************************

-----------------------------------------
LOEWDIN ATOMIC CHARGES AND SPIN DENSITIES
-----------------------------------------
   0 Ag:    0.000000    1.000000

--------------------------------------------------
LOEWDIN REDUCED ORBITAL CHARGES AND SPIN DENSITIES
--------------------------------------------------
CHARGE
  0 Ags       :     3.910101  s :     3.910101
      pz      :     2.024445  p :     6.074917
      px      :     2.025526
      py      :     2.024945
      dz2     :     1.978712  d :     8.913206
      dxz     :     1.668268
      dyz     :     1.322483
      dx2y2   :     1.978092
      dxy     :     1.965651
      f0      :     0.013016  f :     0.090751
      f+1     :     0.013146
      f-1     :     0.012109
      f+2     :     0.012220
      f-2     :     0.012204
      f+3     :     0.014028
      f-3     :     0.014028
      g0      :     0.001212  g :     0.011026
      g+1     :     0.001233
      g-1     :     0.001179
      g+2     :     0.001196
      g-2     :     0.001196
      g+3     :     0.001211
      g-3     :     0.001210
      g+4     :     0.001295
      g-4     :     0.001295

SPIN
  0 Ags       :     0.001360  s :     0.001360
      pz      :     0.002892  p :     0.005643
      px      :     0.000818
      py      :     0.001933
      dz2     :     0.000025  d :     0.983033
      dxz     :     0.311236
      dyz     :     0.657801
      dx2y2   :     0.000718
      dxy     :     0.013253
      f0      :     0.001026  f :     0.008606
      f+1     :     0.000967
      f-1     :     0.002160
      f+2     :     0.002185
      f-2     :     0.002217
      f+3     :     0.000025
      f-3     :     0.000025
      g0      :     0.000124  g :     0.001358
      g+1     :     0.000104
      g-1     :     0.000204
      g+2     :     0.000217
      g-2     :     0.000220
      g+3     :     0.000223
      g-3     :     0.000223
      g+4     :     0.000022
      g-4     :     0.000022


                      *****************************
                      * MAYER POPULATION ANALYSIS *
                      *****************************

  NA   - Mulliken gross atomic population
  ZA   - Total nuclear charge
  QA   - Mulliken gross atomic charge
  VA   - Mayer's total valence
  BVA  - Mayer's bonded valence
  FA   - Mayer's free valence

  ATOM       NA         ZA         QA         VA         BVA        FA
  0 Ag    19.0000    19.0000     0.0000     2.0478     0.0000     2.0478





------------------------------------------------------------------------------- 
                                     TIMINGS                                   
------------------------------------------------------------------------------- 


Total execution time                   ...       35.737 sec

Fock Matrix Formation                  ...        1.246 sec (  3.5%)
Initial Guess                          ...        0.029 sec (  0.1%)
DIIS Solver                            ...        0.764 sec (  2.1%)
State Vector Update                    ...        0.038 sec (  0.1%)
Sigma-vector construction              ...       20.238 sec ( 56.6%)
  <0|H|D>                              ...        0.002 sec (  0.0% of sigma)
  <D|H|D>(0-ext Fock)                  ...        0.014 sec (  0.1% of sigma)
  <D|H|D>(0-ext)                       ...        0.053 sec (  0.3% of sigma)
  <D|H|D>(2-ext Fock)                  ...        0.005 sec (  0.0% of sigma)
  <D|H|D>(2-ext)                       ...        0.215 sec (  1.1% of sigma)
  <D|H|D>(4-ext)                       ...        3.462 sec ( 17.1% of sigma)
  <S|H|0>                              ...        0.515 sec (  2.5% of sigma)
  <S|H|S>                              ...        0.002 sec (  0.0% of sigma)
  <S|H|D>(1-ext)                       ...        0.004 sec (  0.0% of sigma)
  <D|H|S>(1-ext)                       ...        0.064 sec (  0.3% of sigma)
  Fock-dressing                        ...       13.612 sec ( 67.3% of sigma)
  (ik|jl)-dressing                     ...        0.065 sec (  0.3% of sigma)
  (ij|ab),(ia|jb)-dressing             ...        1.767 sec (  8.7% of sigma)
  Pair energies                        ...        0.004 sec (  0.0% of sigma)
Total Time for computing (T)           ...        1.468 sec (  4.1% of ALL)
  I/O of integral and amplitudes       ...        0.324 sec ( 22.1% of (T))
  External N**7 contributions          ...        0.400 sec ( 27.2% of (T))
  Internal N**7 contributions          ...        0.210 sec ( 14.3% of (T))
  N**6 triples energy contributions    ...        0.504 sec ( 34.3% of (T))


-------------------------   --------------------
FINAL SINGLE POINT ENERGY      -146.625056925933
-------------------------   --------------------


                            ***************************************
                            *     ORCA property calculations      *
                            ***************************************

                                    ---------------------
                                    Active property flags
                                    ---------------------
   (+) Dipole Moment


------------------------------------------------------------------------------
                       ORCA ELECTRIC PROPERTIES CALCULATION
------------------------------------------------------------------------------

Dipole Moment Calculation                       ... on
Quadrupole Moment Calculation                   ... off
Polarizability Calculation                      ... off
GBWName                                         ... 47_Ag.gbw
Electron density file                           ... 47_Ag.scfp
The origin for moment calculation is the CENTER OF MASS  = ( 0.000000,  0.000000  0.000000)

-------------
DIPOLE MOMENT
-------------
                                X             Y             Z
Electronic contribution:      0.00000      -0.00000       0.00000
Nuclear contribution   :      0.00000       0.00000       0.00000
                        -----------------------------------------
Total Dipole Moment    :      0.00000      -0.00000       0.00000
                        -----------------------------------------
Magnitude (a.u.)       :      0.00000
Magnitude (Debye)      :      0.00000



--------------------
Rotational spectrum 
--------------------
 
Rotational constants in cm-1:     0.000000     0.000000     0.000000 
Rotational constants in MHz :     0.000000     0.000000     0.000000 

 Dipole components along the rotational axes: 
x,y,z [a.u.] :     0.000000    -0.000000     0.000000 
x,y,z [Debye]:     0.000000    -0.000000     0.000000 

 

                           *** MDCI DENSITY ***

------------------------------------------------------------------------------
                       ORCA ELECTRIC PROPERTIES CALCULATION
------------------------------------------------------------------------------

Dipole Moment Calculation                       ... on
Quadrupole Moment Calculation                   ... off
Polarizability Calculation                      ... off
GBWName                                         ... 47_Ag.gbw
Electron density file                           ... 47_Ag.mdcip
The origin for moment calculation is the CENTER OF MASS  = ( 0.000000,  0.000000  0.000000)

-------------
DIPOLE MOMENT
-------------
                                X             Y             Z
Electronic contribution:      0.00000       0.00000       0.00000
Nuclear contribution   :      0.00000       0.00000       0.00000
                        -----------------------------------------
Total Dipole Moment    :      0.00000       0.00000       0.00000
                        -----------------------------------------
Magnitude (a.u.)       :      0.00000
Magnitude (Debye)      :      0.00000



--------------------
Rotational spectrum 
--------------------
 
Rotational constants in cm-1:     0.000000     0.000000     0.000000 
Rotational constants in MHz :     0.000000     0.000000     0.000000 

 Dipole components along the rotational axes: 
x,y,z [a.u.] :     0.000000     0.000000     0.000000 
x,y,z [Debye]:     0.000000     0.000000     0.000000 

 

Timings for individual modules:

Sum of individual times         ...       51.785 sec (=   0.863 min)
GTO integral calculation        ...        0.953 sec (=   0.016 min)   1.8 %
SCF iterations                  ...       14.406 sec (=   0.240 min)  27.8 %
MDCI module                     ...       36.426 sec (=   0.607 min)  70.3 %
                             ****ORCA TERMINATED NORMALLY****
TOTAL RUN TIME: 0 days 0 hours 0 minutes 52 seconds 585 msec
