
                                 *****************
                                 * O   R   C   A *
                                 *****************

           --- An Ab Initio, DFT and Semiempirical electronic structure package ---

                  #######################################################
                  #                        -***-                        #
                  #          Department of theory and spectroscopy      #
                  #               Directorship: Frank Neese             #
                  #        Max Planck Institute fuer Kohlenforschung    #
                  #                Kaiser Wilhelm Platz 1               #
                  #                 D-45470 Muelheim/Ruhr               #
                  #                      Germany                        #
                  #                                                     #
                  #                  All rights reserved                #
                  #                        -***-                        #
                  #######################################################


                         Program Version 4.2.0 -  RELEASE  -


 With contributions from (in alphabetic order):
   Daniel Aravena         : Magnetic Suceptibility
   Michael Atanasov       : Ab Initio Ligand Field Theory (pilot matlab implementation)
   Alexander A. Auer      : GIAO ZORA, VPT2
   Ute Becker             : Parallelization
   Giovanni Bistoni       : ED, misc. LED, open-shell LED, HFLED
   Martin Brehm           : Molecular dynamics
   Dmytro Bykov           : SCF Hessian
   Vijay G. Chilkuri      : MRCI spin determinant printing, contributions to CSF-ICE
   Dipayan Datta          : RHF DLPNO-CCSD density
   Achintya Kumar Dutta   : EOM-CC, STEOM-CC
   Dmitry Ganyushin       : Spin-Orbit,Spin-Spin,Magnetic field MRCI
   Miquel Garcia          : C-PCM Hessian, Gaussian charge scheme
   Yang Guo               : DLPNO-NEVPT2, CIM, IAO-localization
   Andreas Hansen         : Spin unrestricted coupled pair/coupled cluster methods
   Benjamin Helmich-Paris : CASSCF linear response (MC-RPA)
   Lee Huntington         : MR-EOM, pCC
   Robert Izsak           : Overlap fitted RIJCOSX, COSX-SCS-MP3, EOM
   Christian Kollmar      : KDIIS, OOCD, Brueckner-CCSD(T), CCSD density
   Simone Kossmann        : Meta GGA functionals, TD-DFT gradient, OOMP2, MP2 Hessian
   Martin Krupicka        : AUTO-CI
   Lucas Lang             : DCDCAS
   Dagmar Lenk            : GEPOL surface, SMD
   Dimitrios Liakos       : Extrapolation schemes; Compound Job, initial MDCI parallelization
   Dimitrios Manganas     : Further ROCIS development; embedding schemes
   Dimitrios Pantazis     : SARC Basis sets
   Taras Petrenko         : DFT Hessian,TD-DFT gradient, ASA, ECA, R-Raman, ABS, FL, XAS/XES, NRVS
   Peter Pinski           : DLPNO-MP2, DLPNO-MP2 Gradient
   Christoph Reimann      : Effective Core Potentials
   Marius Retegan         : Local ZFS, SOC
   Christoph Riplinger    : Optimizer, TS searches, QM/MM, DLPNO-CCSD(T), (RO)-DLPNO pert. Triples
   Tobias Risthaus        : Range-separated hybrids, TD-DFT gradient, RPA, STAB
   Michael Roemelt        : Original ROCIS implementation
   Masaaki Saitow         : Open-shell DLPNO-CCSD energy and density
   Barbara Sandhoefer     : DKH picture change effects
   Avijit Sen             : IP-ROCIS
   Kantharuban Sivalingam : CASSCF convergence, NEVPT2, FIC-MRCI
   Bernardo de Souza      : ESD, SOC TD-DFT
   Georgi Stoychev        : AutoAux, RI-MP2 NMR
   Willem Van den Heuvel  : Paramagnetic NMR
   Boris Wezisla          : Elementary symmetry handling
   Frank Wennmohs         : Technical directorship


 We gratefully acknowledge several colleagues who have allowed us to
 interface, adapt or use parts of their codes:
   Stefan Grimme, W. Hujo, H. Kruse,             : VdW corrections, initial TS optimization,
                  C. Bannwarth                     DFT functionals, gCP, sTDA/sTD-DF
   Ed Valeev, F. Pavosevic, A. Kumar             : LibInt (2-el integral package), F12 methods
   Garnet Chan, S. Sharma, J. Yang, R. Olivares  : DMRG
   Ulf Ekstrom                                   : XCFun DFT Library
   Mihaly Kallay                                 : mrcc  (arbitrary order and MRCC methods)
   Andreas Klamt, Michael Diedenhofen            : otool_cosmo (COSMO solvation model)
   Jiri Pittner, Ondrej Demel                    : Mk-CCSD
   Frank Weinhold                                : gennbo (NPA and NBO analysis)
   Christopher J. Cramer and Donald G. Truhlar   : smd solvation model
   Lars Goerigk                                  : TD-DFT with DH, B97 family of functionals
   V. Asgeirsson, H. Jonsson                     : NEB implementation
   FAccTs GmbH                                   : IRC, NEB, NEB-TS, Multilevel, MM, QM/MM, CI optimization
   S Lehtola, MJT Oliveira, MAL Marques          : LibXC Library


 Your calculation uses the libint2 library for the computation of 2-el integrals
 For citations please refer to: http://libint.valeyev.net

 Your ORCA version has been built with support for libXC version: 4.2.3
 For citations please refer to: https://tddft.org/programs/libxc/

 This ORCA versions uses:
   CBLAS   interface :  Fast vector & matrix operations
   LAPACKE interface :  Fast linear algebra routines
   SCALAPACK package :  Parallel linear algebra routines


----- Orbital basis set information -----
Your calculation utilizes the basis: aug-cc-pVTZ-PP 
       Ca, Sr, Ba, Ra : Obtained from the Peterson Research Group Website (tyr0.chem.wsu.edu/~kipeters) Feb. 2017
                        H. Li, H. Feng, W. Sun, Y. Zhang, Q. Fan, K. A. Peterson, Y. Xie, H. F. Schaefer III, Mol. Phys. 111, 2292 (2013)
  Cu-Zn, Ag-Cd, Au-Hg : Obtained from the ccRepo (grant-hill.group.shef.ac.uk/ccrepo) Feb. 2017
                        K. A. Peterson, C. Puzzarini, Theor. Chem. Acc. 114, 283 (2005)
  Ga-Kr, In-Xe, Tl-Rn : Obtained from the ccRepo (grant-hill.group.shef.ac.uk/ccrepo) Feb. 2017
                        K. A. Peterson, J. Chem. Phys. 119, 11099 (2003)
                        K. A. Peterson, D. Figgen, E. Goll, H. Stoll, M. Dolg, J. Chem. Phys. 119, 11113 (2003)
                 Y-Pd : Obtained from the ccRepo (grant-hill.group.shef.ac.uk/ccrepo) Feb. 2017
                        K. A. Peterson, D. Figgen, M. Dolg, H. Stoll, J. Chem. Phys. 126, 124101 (2007)
                Hf-Pt : Obtained from the ccRepo (grant-hill.group.shef.ac.uk/ccrepo) Feb. 2017
                        D. Figgen, K. A. Peterson, M. Dolg, H. Stoll, J. Chem. Phys. 130, 164108 (2009)

cite the ECPs for Cd [SK MCDHF RSC] as follows:
O: B. Metz and H. Stoll, private communication (KAP)
Tl: B. Metz, M. Schweizer, H. Stoll, M. Dolg, W. Liu, Theor. Chem. Acc. 104, 22 (2000)
Ga-As, In-Sb, Pb-Bi: B. Metz, H. Stoll, M. Dolg, J. Chem. Phys. 113, 2563 (2000)
Se-Kr, Te-Xe, Po-Rn: K.A. Peterson, D. Figgen, E. Goll, H. Stoll, and M. Dolg, J. Chem. Phys., in press (2003)
Cu-Zn, Ag-Cd, Au-Hg: D. Figgen, G. Rauhut, M. Dolg, and H. Stoll, Chem. Phys. 311, 227 (2005)
Y-Pd: K.A. Peterson, D. Figgen, M. Dolg, H. Stoll, J. Chem. Phys. 126, 124101 (2007)
I: K. A. Peterson, B. C. Shepler, D. Figgen, H. Stoll, J. Phys. Chem. A 110, 13877 (2006)
Hf-Pt: D. Figgen, K.A. Peterson, M. Dolg, H. Stoll, J. Chem. Phys. 130, 164108 (2009)
Ca, Sr, Ba, Ra: I.S. Lim, H. Stoll, P. Schwerdtfeger, J. Chem. Phys. 124, 034107 (2006)

ECP parameters for Cd [SK MCDHF RSC] have been obtained from:
cc-pVDZ-PP  EMSL  Basis Set Exchange Library   4/7/16 5:27 AM
Ca, Sr, Ba, Ra: http://www.tc.uni-koeln.de/PP/index.en.html 3/16/17 1:54 PM

================================================================================
                                        WARNINGS
                       Please study these warnings very carefully!
================================================================================


WARNING: MDCI localization with Augmented Hessian Foster-Boys
  ===> : Switching off randomization!

WARNING: Post HF methods need fully converged wavefunctions
  ===> : Setting SCFConvForced true
         You can overwrite this default with %scf ConvForced false 


INFO   : the flag for use of LIBINT has been found!

================================================================================
                                       INPUT FILE
================================================================================
NAME = 48_Cd.in
|  1> #
|  2> # 48_Cd CCSD(T)/aug-cc-pVTZ-PP
|  3> #
|  4> ! CCSD(T) aug-cc-pVTZ-PP tightscf
|  5> 
|  6> *xyz 0 1
|  7>  Cd 0.0 0.0 0.0
|  8> *
|  9> 
| 10> %maxcore 5000 
| 11> 
| 12> %pal
| 13> nprocs 24
| 14> end
| 15> 
| 16> 
| 17>                          ****END OF INPUT****
================================================================================

                       ****************************
                       * Single Point Calculation *
                       ****************************

---------------------------------
CARTESIAN COORDINATES (ANGSTROEM)
---------------------------------
  Cd     0.000000    0.000000    0.000000

----------------------------
CARTESIAN COORDINATES (A.U.)
----------------------------
  NO LB      ZA    FRAG     MASS         X           Y           Z
   0 Cd   20.0000*   0   112.410    0.000000    0.000000    0.000000
* core charge reduced due to ECP

--------------------------------
INTERNAL COORDINATES (ANGSTROEM)
--------------------------------
 Cd     0   0   0     0.000000000000     0.00000000     0.00000000

---------------------------
INTERNAL COORDINATES (A.U.)
---------------------------
 Cd     0   0   0     0.000000000000     0.00000000     0.00000000

---------------------
BASIS SET INFORMATION
---------------------
There are 1 groups of distinct atoms

 Group   1 Type Cd  : 38s34p23d3f2g contracted to 6s6p5d3f2g pattern {999911/888811/77711/111/11}

Atom   0Cd   basis set group =>   1
-------------------------
ECP PARAMETER INFORMATION
-------------------------

 Group 1, Type Cd ECP SK MCDHF RSC (replacing 28 core electrons, lmax=4)

Atom   0Cd   ECP group =>   1



           ************************************************************
           *        Program running with 24 parallel MPI-processes    *
           *              working on a common directory               *
           ************************************************************
------------------------------------------------------------------------------
                           ORCA GTO INTEGRAL CALCULATION
------------------------------------------------------------------------------

                         BASIS SET STATISTICS AND STARTUP INFO

 # of primitive gaussian shells          ...  100
 # of primitive gaussian functions       ...  294
 # of contracted shells                  ...   22
 # of contracted basis functions         ...   88
 Highest angular momentum                ...    4
 Maximum contraction depth               ...    9
 Integral package used                   ... LIBINT
 Integral threshhold            Thresh   ...  2.500e-11
 Primitive cut-off              TCut     ...  2.500e-12


------------------------------ INTEGRAL EVALUATION ----------------------------


 * One electron integrals 

   ECP integrals                         ... done
 Pre-screening matrix                    ... done
 Shell pair data                         ... done (   0.000 sec)



           ************************************************************
           *        Program running with 24 parallel MPI-processes    *
           *              working on a common directory               *
           ************************************************************
-------------------------------------------------------------------------------
                                 ORCA SCF
-------------------------------------------------------------------------------

------------
SCF SETTINGS
------------
Hamiltonian:
 Ab initio Hamiltonian  Method          .... Hartree-Fock(GTOs)


General Settings:
 Integral files         IntName         .... 48_Cd
 Hartree-Fock type      HFTyp           .... RHF
 Total Charge           Charge          ....    0
 Multiplicity           Mult            ....    1
 Number of Electrons    NEL             ....   20
 Basis Dimension        Dim             ....   88
 Nuclear Repulsion      ENuc            ....      0.0000000000 Eh

Convergence Acceleration:
 DIIS                   CNVDIIS         .... on
   Start iteration      DIISMaxIt       ....    12
   Startup error        DIISStart       ....  0.200000
   # of expansion vecs  DIISMaxEq       ....     5
   Bias factor          DIISBfac        ....   1.050
   Max. coefficient     DIISMaxC        ....  10.000
 Newton-Raphson         CNVNR           .... off
 SOSCF                  CNVSOSCF        .... off
 Level Shifting         CNVShift        .... on
   Level shift para.    LevelShift      ....    0.2500
   Turn off err/grad.   ShiftErr        ....    0.0010
 Zerner damping         CNVZerner       .... off
 Static damping         CNVDamp         .... on
   Fraction old density DampFac         ....    0.7000
   Max. Damping (<1)    DampMax         ....    0.9800
   Min. Damping (>=0)   DampMin         ....    0.0000
   Turn off err/grad.   DampErr         ....    0.1000
 Fernandez-Rico         CNVRico         .... off

SCF Procedure:
 Maximum # iterations   MaxIter         ....   125
 SCF integral mode      SCFMode         .... Direct
   Integral package                     .... LIBINT
 Reset frequency        DirectResetFreq ....    20
 Integral Threshold     Thresh          ....  2.500e-11 Eh
 Primitive CutOff       TCut            ....  2.500e-12 Eh

Convergence Tolerance:
 Convergence Check Mode ConvCheckMode   .... Total+1el-Energy
 Convergence forced     ConvForced      .... 1
 Energy Change          TolE            ....  1.000e-08 Eh
 1-El. energy change                    ....  1.000e-05 Eh
 DIIS Error             TolErr          ....  5.000e-07


Diagonalization of the overlap matrix:
Smallest eigenvalue                        ... 3.010e-03
Time for diagonalization                   ...    0.002 sec
Threshold for overlap eigenvalues          ... 1.000e-08
Number of eigenvalues below threshold      ... 0
Time for construction of square roots      ...    0.013 sec
Total time needed                          ...    0.015 sec

-------------------
DFT GRID GENERATION
-------------------

General Integration Accuracy     IntAcc      ...  4.340
Radial Grid Type                 RadialGrid  ... Gauss-Chebyshev
Angular Grid (max. acc.)         AngularGrid ... Lebedev-110
Angular grid pruning method      GridPruning ... 3 (G Style)
Weight generation scheme         WeightScheme... Becke
Basis function cutoff            BFCut       ...    1.0000e-11
Integration weight cutoff        WCut        ...    1.0000e-14
Grids for H and He will be reduced by one unit

# of grid points (after initial pruning)     ...   3258 (   0.0 sec)
# of grid points (after weights+screening)   ...   3258 (   0.0 sec)
Grid point division into batches done        ...    0.0 sec
Reduced shell lists constructed in    0.0 sec

Total number of grid points                  ...     3258
Total number of batches                      ...       51
Average number of points per batch           ...       63
Average number of grid points per atom       ...     3258
Average number of shells per batch           ...    10.50 (47.73%)
Average number of basis functions per batch  ...    25.50 (28.98%)
Average number of large shells per batch     ...     9.00 (85.71%)
Average number of large basis fcns per batch ...    22.50 (88.24%)
Maximum spatial batch extension              ...  24.86, 37.49, 37.49 au
Average spatial batch extension              ...   1.44,  1.96,  2.21 au

Time for grid setup =    0.074 sec

------------------------------
INITIAL GUESS: MODEL POTENTIAL
------------------------------
Loading Hartree-Fock densities                     ... done
  calling /sw/apps/orca/orca_4_2_0_linux_x86-64_openmpi314/orca 48_Cd_atom48.inp > 48_Cd_atom48.out in order to generate an atomic fitting density for atom 0 (Cd with ECP) on-the-fly... 
    atom 0 (Cd), assumed electronic state with S=1: 1s2 2s2 2p6 3s2 3p6 4s2 3d10 4p6 5s2 4d10           ... done
Calculating cut-offs                               ... done
Setting up the integral package                    ... done
Initializing the effective Hamiltonian             ... done
Starting the Coulomb interaction                   ... done (   0.0 sec)
Reading the grid                                   ... done
Mapping shells                                     ... done
Starting the XC term evaluation                    ... done (   0.0 sec)
Transforming the Hamiltonian                       ... done (   0.0 sec)
Diagonalizing the Hamiltonian                      ... done (   0.0 sec)
Back transforming the eigenvectors                 ... done (   0.0 sec)
Now organizing SCF variables                       ... done
                      ------------------
                      INITIAL GUESS DONE (   5.8 sec)
                      ------------------
--------------
SCF ITERATIONS
--------------
ITER       Energy         Delta-E        Max-DP      RMS-DP      [F,P]     Damp
               ***  Starting incremental Fock matrix formation  ***
  0   -166.7717008512   0.000000000000 0.07599087  0.00224675  0.2916480 0.7000
  1   -166.7925591825  -0.020858331324 0.05321607  0.00160131  0.1954332 0.7000
                               ***Turning on DIIS***
  2   -166.8058967609  -0.013337578400 0.03605592  0.00110720  0.1316116 0.7000
  3   -166.9429749167  -0.137078155856 0.08145201  0.00260155  0.0908413 0.0000
  4   -166.8459928364   0.096982080303 0.01215244  0.00027997  0.0174838 0.0000
  5   -166.8478956331  -0.001902796689 0.00715143  0.00015900  0.0075165 0.0000
  6   -166.8465507163   0.001344916824 0.00562333  0.00009105  0.0026334 0.0000
  7   -166.8424980842   0.004052632120 0.00385424  0.00005865  0.0013744 0.0000
  8   -166.8409956626   0.001502421608 0.00461607  0.00007133  0.0006936 0.0000
  9   -166.8391015235   0.001894139105 0.00089412  0.00001440  0.0001008 0.0000
 10   -166.8388141722   0.000287351260 0.00014016  0.00000227  0.0000135 0.0000
                            ***DIIS convergence achieved***

               *****************************************************
               *                     SUCCESS                       *
               *           SCF CONVERGED AFTER  11 CYCLES          *
               *****************************************************


----------------
TOTAL SCF ENERGY
----------------

Total Energy       :         -166.83876610 Eh           -4539.91363 eV

Components:
Nuclear Repulsion  :            0.00000000 Eh               0.00000 eV
Electronic Energy  :         -166.83876610 Eh           -4539.91363 eV
One Electron Energy:         -297.33767776 Eh           -8090.96955 eV
Two Electron Energy:          130.49891166 Eh            3551.05592 eV

Virial components:
Potential Energy   :         -231.60066872 Eh           -6302.17459 eV
Kinetic Energy     :           64.76190262 Eh            1762.26096 eV
Virial Ratio       :            3.57618691


---------------
SCF CONVERGENCE
---------------

  Last Energy change         ...    4.8072e-05  Tolerance :   1.0000e-08
  Last MAX-Density change    ...    3.1388e-06  Tolerance :   1.0000e-07
  Last RMS-Density change    ...    5.2802e-08  Tolerance :   5.0000e-09
  Last DIIS Error            ...    3.3183e-07  Tolerance :   5.0000e-07

             **** THE GBW FILE WAS UPDATED (48_Cd.gbw) ****
             **** DENSITY FILE WAS UPDATED (48_Cd.scfp) ****
             **** ENERGY FILE WAS UPDATED (48_Cd.en.tmp) ****
             **** THE GBW FILE WAS UPDATED (48_Cd.gbw) ****
             **** DENSITY FILE WAS UPDATED (48_Cd.scfp) ****
----------------
ORBITAL ENERGIES
----------------

  NO   OCC          E(Eh)            E(eV) 
   0   2.0000      -4.823818      -131.2628 
   1   2.0000      -3.155488       -85.8652 
   2   2.0000      -3.155488       -85.8652 
   3   2.0000      -3.155488       -85.8652 
   4   2.0000      -0.719723       -19.5847 
   5   2.0000      -0.719723       -19.5847 
   6   2.0000      -0.719723       -19.5847 
   7   2.0000      -0.719723       -19.5847 
   8   2.0000      -0.719723       -19.5847 
   9   2.0000      -0.281027        -7.6471 
  10   0.0000       0.021585         0.5874 
  11   0.0000       0.021585         0.5874 
  12   0.0000       0.021585         0.5874 
  13   0.0000       0.038558         1.0492 
  14   0.0000       0.069242         1.8842 
  15   0.0000       0.069242         1.8842 
  16   0.0000       0.069242         1.8842 
  17   0.0000       0.181437         4.9371 
  18   0.0000       0.181437         4.9371 
  19   0.0000       0.181437         4.9371 
  20   0.0000       0.181437         4.9371 
  21   0.0000       0.181437         4.9371 
  22   0.0000       0.234423         6.3790 
  23   0.0000       0.234423         6.3790 
  24   0.0000       0.234423         6.3790 
  25   0.0000       0.418655        11.3922 
  26   0.0000       0.603238        16.4149 
  27   0.0000       0.603238        16.4149 
  28   0.0000       0.603238        16.4149 
  29   0.0000       0.603238        16.4149 
  30   0.0000       0.603238        16.4149 
  31   0.0000       0.814355        22.1597 
  32   0.0000       0.814355        22.1597 
  33   0.0000       0.814355        22.1597 
  34   0.0000       1.109088        30.1798 
  35   0.0000       1.109088        30.1798 
  36   0.0000       1.109088        30.1798 
  37   0.0000       1.109088        30.1798 
  38   0.0000       1.109088        30.1798 
  39   0.0000       1.109088        30.1798 
  40   0.0000       1.109088        30.1798 
  41   0.0000       1.938587        52.7516 
  42   0.0000       1.938587        52.7516 
  43   0.0000       1.938587        52.7516 
  44   0.0000       1.938587        52.7516 
  45   0.0000       1.938587        52.7516 
  46   0.0000       2.473930        67.3190 
  47   0.0000       2.563569        69.7583 
  48   0.0000       2.563569        69.7583 
  49   0.0000       2.563569        69.7583 
  50   0.0000       2.563569        69.7583 
  51   0.0000       2.563569        69.7583 
  52   0.0000       2.563569        69.7583 
  53   0.0000       2.563569        69.7583 
  54   0.0000       3.151837        85.7658 
  55   0.0000       3.151837        85.7658 
  56   0.0000       3.151837        85.7658 
  57   0.0000       3.530976        96.0828 
  58   0.0000       3.530976        96.0828 
  59   0.0000       3.530976        96.0828 
  60   0.0000       3.530976        96.0828 
  61   0.0000       3.530976        96.0828 
  62   0.0000       3.530976        96.0828 
  63   0.0000       3.530976        96.0828 
  64   0.0000       3.530976        96.0828 
  65   0.0000       3.530976        96.0828 
  66   0.0000       5.624487       153.0501 
  67   0.0000       6.128963       166.7776 
  68   0.0000       6.128963       166.7776 
  69   0.0000       6.128963       166.7776 
  70   0.0000       6.128963       166.7776 
  71   0.0000       6.128963       166.7776 
  72   0.0000       6.540608       177.9790 
  73   0.0000       6.540608       177.9790 
  74   0.0000       6.540608       177.9790 
  75   0.0000       6.540608       177.9790 
  76   0.0000       6.540608       177.9790 
  77   0.0000       6.540608       177.9790 
  78   0.0000       6.540608       177.9790 
  79   0.0000       8.371817       227.8087 
  80   0.0000       8.371817       227.8087 
  81   0.0000       8.371817       227.8087 
  82   0.0000       8.371817       227.8087 
  83   0.0000       8.371817       227.8087 
  84   0.0000       8.371817       227.8087 
  85   0.0000       8.371817       227.8087 
  86   0.0000       8.371817       227.8087 
  87   0.0000       8.371817       227.8087 

                    ********************************
                    * MULLIKEN POPULATION ANALYSIS *
                    ********************************

-----------------------
MULLIKEN ATOMIC CHARGES
-----------------------
   0 Cd:   -0.000000
Sum of atomic charges:   -0.0000000

--------------------------------
MULLIKEN REDUCED ORBITAL CHARGES
--------------------------------
  0 Cds       :     4.000000  s :     4.000000
      pz      :     2.000000  p :     6.000000
      px      :     2.000000
      py      :     2.000000
      dz2     :     2.000000  d :    10.000000
      dxz     :     2.000000
      dyz     :     2.000000
      dx2y2   :     2.000000
      dxy     :     2.000000
      f0      :     0.000000  f :     0.000000
      f+1     :     0.000000
      f-1     :     0.000000
      f+2     :     0.000000
      f-2     :     0.000000
      f+3     :     0.000000
      f-3     :     0.000000
      g0      :     0.000000  g :     0.000000
      g+1     :     0.000000
      g-1     :     0.000000
      g+2     :     0.000000
      g-2     :     0.000000
      g+3     :     0.000000
      g-3     :     0.000000
      g+4     :     0.000000
      g-4     :     0.000000


                     *******************************
                     * LOEWDIN POPULATION ANALYSIS *
                     *******************************

----------------------
LOEWDIN ATOMIC CHARGES
----------------------
   0 Cd:   -0.000000

-------------------------------
LOEWDIN REDUCED ORBITAL CHARGES
-------------------------------
  0 Cds       :     4.000000  s :     4.000000
      pz      :     2.000000  p :     6.000000
      px      :     2.000000
      py      :     2.000000
      dz2     :     2.000000  d :    10.000000
      dxz     :     2.000000
      dyz     :     2.000000
      dx2y2   :     2.000000
      dxy     :     2.000000
      f0      :     0.000000  f :     0.000000
      f+1     :     0.000000
      f-1     :     0.000000
      f+2     :     0.000000
      f-2     :     0.000000
      f+3     :     0.000000
      f-3     :     0.000000
      g0      :     0.000000  g :     0.000000
      g+1     :     0.000000
      g-1     :     0.000000
      g+2     :     0.000000
      g-2     :     0.000000
      g+3     :     0.000000
      g-3     :     0.000000
      g+4     :     0.000000
      g-4     :     0.000000


                      *****************************
                      * MAYER POPULATION ANALYSIS *
                      *****************************

  NA   - Mulliken gross atomic population
  ZA   - Total nuclear charge
  QA   - Mulliken gross atomic charge
  VA   - Mayer's total valence
  BVA  - Mayer's bonded valence
  FA   - Mayer's free valence

  ATOM       NA         ZA         QA         VA         BVA        FA
  0 Cd    20.0000    20.0000    -0.0000    -0.0000     0.0000    -0.0000

  Mayer bond orders larger than 0.100000


--------------------------
ATOM BASIS FOR ELEMENT Cd
--------------------------
 NewGTO Cd
 S 38
    1        257.497000000000         0.000767791520
    2         21.354600000000        -0.078172773636
    3         13.480600000000         0.460802877540
    4          8.486510000000        -0.536064441660
    5          5.325510000000        -0.400714193505
    6          1.626860000000         0.855129805388
    7          0.740469000000         0.489735021553
    8          0.180933000000         0.022023020058
    9          0.085096000000        -0.008357730614
   10        257.497000000000         0.000000196741
   11         21.354600000000        -0.000018974820
   12         13.480600000000         0.000117707931
   13          8.486510000000        -0.000151417002
   14          5.325510000000        -0.000090019462
   15          1.626860000000         0.000277612031
   16          0.740469000000         0.000254932356
   17          0.180933000000        -0.000240261982
   18          0.085096000000        -0.000512755352
   19        257.497000000000        -0.000000086105
   20         21.354600000000         0.000004875094
   21         13.480600000000        -0.000044167233
   22          8.486510000000         0.000040010416
   23          5.325510000000         0.000113885355
   24          1.626860000000        -0.000367308990
   25          0.740469000000         0.000163310212
   26          0.180933000000         0.000385121757
   27          0.085096000000        -0.000289587373
   28        257.497000000000         0.000000090570
   29         21.354600000000        -0.000010821168
   30         13.480600000000         0.000059787159
   31          8.486510000000        -0.000095495144
   32          5.325510000000         0.000006640899
   33          1.626860000000         0.000213616435
   34          0.740469000000        -0.000254742903
   35          0.180933000000         0.000156529328
   36          0.085096000000        -0.000036660452
   37          0.036384000000         0.003152817348
   38          0.015600000000        -0.000744146380
 S 37
    1        257.497000000000        -0.000000081035
    2         21.354600000000         0.000008250580
    3         13.480600000000        -0.000048634465
    4          8.486510000000         0.000056577788
    5          5.325510000000         0.000042292532
    6          1.626860000000        -0.000090252866
    7          0.740469000000        -0.000051688047
    8          0.180933000000        -0.000002324373
    9        257.497000000000         0.000231031039
   10         21.354600000000        -0.022281993592
   11         13.480600000000         0.138223570378
   12          8.486510000000        -0.177807888542
   13          5.325510000000        -0.105709202063
   14          1.626860000000         0.325997797900
   15          0.740469000000         0.299365219806
   16          0.180933000000        -0.282137905311
   17          0.085096000000        -0.602124895658
   18        257.497000000000         0.000000019592
   19         21.354600000000        -0.000001109286
   20         13.480600000000         0.000010049879
   21          8.486510000000        -0.000009104031
   22          5.325510000000        -0.000025913646
   23          1.626860000000         0.000083578042
   24          0.740469000000        -0.000037159852
   25          0.180933000000        -0.000087631186
   26          0.085096000000         0.000065893148
   27        257.497000000000        -0.000000051439
   28         21.354600000000         0.000006145882
   29         13.480600000000        -0.000033956115
   30          8.486510000000         0.000054236464
   31          5.325510000000        -0.000003771698
   32          1.626860000000        -0.000121323447
   33          0.740469000000         0.000144681223
   34          0.180933000000        -0.000088900827
   35          0.085096000000         0.000020821303
   36          0.036384000000        -0.295445972802
   37          0.015600000000        -0.001362438272
 S 38
    1        257.497000000000         0.000010318294
    2         21.354600000000        -0.001050558190
    3         13.480600000000         0.006192696186
    4          8.486510000000        -0.007204130844
    5          5.325510000000        -0.005385168754
    6          1.626860000000         0.011492026943
    7          0.740469000000         0.006581513154
    8          0.180933000000         0.000295965757
    9          0.085096000000        -0.000112318931
   10        257.497000000000         0.000071157847
   11         21.354600000000        -0.006862881714
   12         13.480600000000         0.042573031433
   13          8.486510000000        -0.054765050615
   14          5.325510000000        -0.032558565589
   15          1.626860000000         0.100407726838
   16          0.740469000000         0.092204859691
   17          0.180933000000        -0.086898825420
   18          0.085096000000        -0.185455216062
   19        257.497000000000        -0.000015904033
   20         21.354600000000         0.000900458766
   21         13.480600000000        -0.008157949336
   22          8.486510000000         0.007390160744
   23          5.325510000000         0.021035299311
   24          1.626860000000        -0.067844145037
   25          0.740469000000         0.030164363034
   26          0.180933000000         0.071134268512
   27          0.085096000000        -0.053488502192
   28        257.497000000000         0.000025805873
   29         21.354600000000        -0.003083236962
   30         13.480600000000         0.017034942946
   31          8.486510000000        -0.027209092304
   32          5.325510000000         0.001892167687
   33          1.626860000000         0.060864972365
   34          0.740469000000        -0.072582990821
   35          0.180933000000         0.044599345721
   36          0.085096000000        -0.010445532458
   37          0.036384000000        -1.205775522702
   38          0.015600000000         1.884765841136
 S 38
    1        257.497000000000        -0.000150570859
    2         21.354600000000         0.015330387700
    3         13.480600000000        -0.090367610579
    4          8.486510000000         0.105127083772
    5          5.325510000000         0.078583676356
    6          1.626860000000        -0.167698686390
    7          0.740469000000        -0.096041465607
    8          0.180933000000        -0.004318913352
    9          0.085096000000         0.001639026539
   10        257.497000000000         0.000123817932
   11         21.354600000000        -0.011941730297
   12         13.480600000000         0.074079035672
   13          8.486510000000        -0.095293710632
   14          5.325510000000        -0.056653403823
   15          1.626860000000         0.174714069630
   16          0.740469000000         0.160440702959
   17          0.180933000000        -0.151207958923
   18          0.085096000000        -0.322700618298
   19        257.497000000000         0.000350546854
   20         21.354600000000        -0.019847355365
   21         13.480600000000         0.179812475111
   22          8.486510000000        -0.162889353689
   23          5.325510000000        -0.463647061032
   24          1.626860000000         1.495378696035
   25          0.740469000000        -0.664864239007
   26          0.180933000000        -1.567897563349
   27          0.085096000000         1.178960492706
   28        257.497000000000        -0.000513241373
   29         21.354600000000         0.061321109068
   30         13.480600000000        -0.338800295678
   31          8.486510000000         0.541149362641
   32          5.325510000000        -0.037632469566
   33          1.626860000000        -1.210515978787
   34          0.740469000000         1.443570361780
   35          0.180933000000        -0.887016267989
   36          0.085096000000         0.207746483011
   37          0.036384000000         1.733106314806
   38          0.015600000000        -1.103602993507
 S 38
    1        257.497000000000         0.000771942138
    2         21.354600000000        -0.078595369167
    3         13.480600000000         0.463293939681
    4          8.486510000000        -0.538962361576
    5          5.325510000000        -0.402880421204
    6          1.626860000000         0.859752566200
    7          0.740469000000         0.492382488466
    8          0.180933000000         0.022142074678
    9          0.085096000000        -0.008402911812
   10        257.497000000000        -0.000779657831
   11         21.354600000000         0.075194791434
   12         13.480600000000        -0.466461517576
   13          8.486510000000         0.600046267797
   14          5.325510000000         0.356735647048
   15          1.626860000000        -1.100141076662
   16          0.740469000000        -1.010264416979
   17          0.180933000000         0.952127593852
   18          0.085096000000         2.031984066335
   19        257.497000000000         0.000589673803
   20         21.354600000000        -0.033386308800
   21         13.480600000000         0.302472279541
   22          8.486510000000        -0.274004982651
   23          5.325510000000        -0.779925771928
   24          1.626860000000         2.515457298989
   25          0.740469000000        -1.118404058639
   26          0.180933000000        -2.637445203848
   27          0.085096000000         1.983193143289
   28        257.497000000000         0.000391916995
   29         21.354600000000        -0.046825501800
   30         13.480600000000         0.258711789405
   31          8.486510000000        -0.413227856440
   32          5.325510000000         0.028736585137
   33          1.626860000000         0.924363877393
   34          0.740469000000        -1.102326875720
   35          0.180933000000         0.677335789992
   36          0.085096000000        -0.158637595799
   37          0.036384000000        -3.810827575769
   38          0.015600000000         1.509729615710
 S 38
    1        257.497000000000         0.001417080059
    2         21.354600000000        -0.144280153781
    3         13.480600000000         0.850484215182
    4          8.486510000000        -0.989391273741
    5          5.325510000000        -0.739581094188
    6          1.626860000000         1.578276605601
    7          0.740469000000         0.903883039266
    8          0.180933000000         0.040646948713
    9          0.085096000000        -0.015425506888
   10        257.497000000000        -0.001472252667
   11         21.354600000000         0.141992714965
   12         13.480600000000        -0.880834111576
   13          8.486510000000         1.133086441825
   14          5.325510000000         0.673635262277
   15          1.626860000000        -2.077431366481
   16          0.740469000000        -1.907714412991
   17          0.180933000000         1.797932801820
   18          0.085096000000         3.837060105419
   19        257.497000000000         0.000797699399
   20         21.354600000000        -0.045164357540
   21         13.480600000000         0.409178692404
   22          8.486510000000        -0.370668679733
   23          5.325510000000        -1.055068609969
   24          1.626860000000         3.402862338196
   25          0.740469000000        -1.512955537570
   26          0.180933000000        -3.567885233764
   27          0.085096000000         2.682825607645
   28        257.497000000000        -0.002224415104
   29         21.354600000000         0.265768912025
   30         13.480600000000        -1.468378301453
   31          8.486510000000         2.345369800691
   32          5.325510000000        -0.163101102464
   33          1.626860000000        -5.246439921951
   34          0.740469000000         6.256509875878
   35          0.180933000000        -3.844375160139
   36          0.085096000000         0.900384184275
   37          0.036384000000        -5.229610799991
   38          0.015600000000         1.849681348543
 P 34
    1        243.165000000000        -0.000112998702
    2         13.958800000000        -0.069671199782
    3          8.310010000000         0.253672086415
    4          2.202000000000        -0.482486458336
    5          1.100720000000        -0.484544434699
    6          0.535975000000        -0.179637936744
    7          0.213654000000        -0.015228825087
    8          0.085469000000         0.000187997841
    9        243.165000000000        -0.000000011556
   10         13.958800000000        -0.000005155611
   11          8.310010000000         0.000019883473
   12          2.202000000000        -0.000045762720
   13          1.100720000000        -0.000048781690
   14          0.535975000000        -0.000008543753
   15          0.213654000000         0.000100757566
   16          0.085469000000         0.000173872789
   17        243.165000000000         0.000000011663
   18         13.958800000000         0.000006319378
   19          8.310010000000        -0.000024000711
   20          2.202000000000         0.000058366678
   21          1.100720000000         0.000061635349
   22          0.535975000000        -0.000034779904
   23          0.213654000000        -0.000131232249
   24          0.085469000000        -0.000061504762
   25        243.165000000000        -0.000000002436
   26         13.958800000000        -0.000002037069
   27          8.310010000000         0.000007683970
   28          2.202000000000        -0.000025609521
   29          1.100720000000        -0.000007819786
   30          0.535975000000         0.000042343015
   31          0.213654000000        -0.000005864790
   32          0.085469000000        -0.000020692639
   33          0.033823000000        -0.000371418553
   34          0.013400000000         0.000100185156
 P 33
    1        243.165000000000        -0.000000376858
    2         13.958800000000        -0.000232358183
    3          8.310010000000         0.000846013636
    4          2.202000000000        -0.001609125105
    5          1.100720000000        -0.001615988596
    6          0.535975000000        -0.000599104719
    7          0.213654000000        -0.000050789166
    8        243.165000000000        -0.000021892984
    9         13.958800000000        -0.009767229494
   10          8.310010000000         0.037668950389
   11          2.202000000000        -0.086696809400
   12          1.100720000000        -0.092416203614
   13          0.535975000000        -0.016186015801
   14          0.213654000000         0.190883746419
   15          0.085469000000         0.329399474472
   16        243.165000000000         0.000014341381
   17         13.958800000000         0.007770677394
   18          8.310010000000        -0.029512681025
   19          2.202000000000         0.071771087984
   20          1.100720000000         0.075790436306
   21          0.535975000000        -0.042767408428
   22          0.213654000000        -0.161370863455
   23          0.085469000000        -0.075629859861
   24        243.165000000000        -0.000002458898
   25         13.958800000000        -0.002055867569
   26          8.310010000000         0.007754878630
   27          2.202000000000        -0.025845849904
   28          1.100720000000        -0.007891947905
   29          0.535975000000         0.042733762381
   30          0.213654000000        -0.005918910893
   31          0.085469000000        -0.020883593341
   32          0.033823000000        -0.210998187207
   33          0.013400000000         1.059719221781
 P 34
    1        243.165000000000        -0.000011133359
    2         13.958800000000        -0.006864454633
    3          8.310010000000         0.024993405229
    4          2.202000000000        -0.047537668575
    5          1.100720000000        -0.047740433640
    6          0.535975000000        -0.017699084716
    7          0.213654000000        -0.001500441779
    8          0.085469000000         0.000018522756
    9        243.165000000000         0.000019840540
   10         13.958800000000         0.008851562116
   11          8.310010000000        -0.034137526348
   12          2.202000000000         0.078569075713
   13          1.100720000000         0.083752282802
   14          0.535975000000         0.014668594032
   15          0.213654000000        -0.172988598181
   16          0.085469000000        -0.298518624029
   17        243.165000000000        -0.000029339676
   18         13.958800000000        -0.015897294740
   19          8.310010000000         0.060377205881
   20          2.202000000000        -0.146829688288
   21          1.100720000000        -0.155052493289
   22          0.535975000000         0.087493800425
   23          0.213654000000         0.330133403929
   24          0.085469000000         0.154723985111
   25        243.165000000000         0.000005655045
   26         13.958800000000         0.004728143410
   27          8.310010000000        -0.017834893089
   28          2.202000000000         0.059441029552
   29          1.100720000000         0.018150128953
   30          0.535975000000        -0.098280336765
   31          0.213654000000         0.013612481641
   32          0.085469000000         0.048028689076
   33          0.033823000000         1.573304248041
   34          0.013400000000        -1.254450967703
 P 34
    1        243.165000000000         0.000026862466
    2         13.958800000000         0.016562493181
    3          8.310010000000        -0.060303858905
    4          2.202000000000         0.114698450737
    5          1.100720000000         0.115187680428
    6          0.535975000000         0.042704189273
    7          0.213654000000         0.003620252162
    8          0.085469000000        -0.000044691536
    9        243.165000000000        -0.000203609402
   10         13.958800000000        -0.090837307906
   11          8.310010000000         0.350329235834
   12          2.202000000000        -0.806298733367
   13          1.100720000000        -0.859490313800
   14          0.535975000000        -0.150533383278
   15          0.213654000000         1.775259366800
   16          0.085469000000         3.063485044927
   17        243.165000000000         0.000159946355
   18         13.958800000000         0.086664703920
   19          8.310010000000        -0.329148622871
   20          2.202000000000         0.800447602562
   21          1.100720000000         0.845274535221
   22          0.535975000000        -0.476975764273
   23          0.213654000000        -1.799734745618
   24          0.085469000000        -0.843483660454
   25        243.165000000000        -0.000027020061
   26         13.958800000000        -0.022591284456
   27          8.310010000000         0.085215931090
   28          2.202000000000        -0.284011945170
   29          1.100720000000        -0.086722142396
   30          0.535975000000         0.469587923145
   31          0.213654000000        -0.065041056970
   32          0.085469000000        -0.229483262847
   33          0.033823000000        -2.327585081969
   34          0.013400000000         0.910480669185
 P 34
    1        243.165000000000        -0.000029881355
    2         13.958800000000        -0.018423838369
    3          8.310010000000         0.067080996646
    4          2.202000000000        -0.127588624161
    5          1.100720000000        -0.128132835025
    6          0.535975000000        -0.047503420666
    7          0.213654000000        -0.004027107511
    8          0.085469000000         0.000049714112
    9        243.165000000000         0.000408726961
   10         13.958800000000         0.182347458077
   11          8.310010000000        -0.703253400139
   12          2.202000000000         1.618569813103
   13          1.100720000000         1.725346970053
   14          0.535975000000         0.302181784437
   15          0.213654000000        -3.563668281521
   16          0.085469000000        -6.149661671806
   17        243.165000000000        -0.000498418516
   18         13.958800000000        -0.270061127911
   19          8.310010000000         1.025679940295
   20          2.202000000000        -2.494323208905
   21          1.100720000000        -2.634011126210
   22          0.535975000000         1.486333040542
   23          0.213654000000         5.608262341592
   24          0.085469000000         2.628430472985
   25        243.165000000000         0.000097060468
   26         13.958800000000         0.081151579763
   27          8.310010000000        -0.306109528322
   28          2.202000000000         1.020217246485
   29          1.100720000000         0.311520085083
   30          0.535975000000        -1.686836437977
   31          0.213654000000         0.233638088745
   32          0.085469000000         0.824341322672
   33          0.033823000000         1.560253456854
   34          0.013400000000        -0.505837610869
 P 34
    1        243.165000000000        -0.000024738566
    2         13.958800000000        -0.015252967614
    3          8.310010000000         0.055535890450
    4          2.202000000000        -0.105629734325
    5          1.100720000000        -0.106080282714
    6          0.535975000000        -0.039327751495
    7          0.213654000000        -0.003334014293
    8          0.085469000000         0.000041157967
    9        243.165000000000         0.000419343958
   10         13.958800000000         0.187084073258
   11          8.310010000000        -0.721520946978
   12          2.202000000000         1.660613406306
   13          1.100720000000         1.770164181862
   14          0.535975000000         0.310031188222
   15          0.213654000000        -3.656237300371
   16          0.085469000000        -6.309403853806
   17        243.165000000000        -0.000500427568
   18         13.958800000000        -0.271149704309
   19          8.310010000000         1.029814304183
   20          2.202000000000        -2.504377456232
   21          1.100720000000        -2.644628434837
   22          0.535975000000         1.492324228832
   23          0.213654000000         5.630868416240
   24          0.085469000000         2.639025286827
   25        243.165000000000         0.000233876316
   26         13.958800000000         0.195542356212
   27          8.310010000000        -0.737599669674
   28          2.202000000000         2.458309312123
   29          1.100720000000         0.750636914552
   30          0.535975000000        -4.064590887673
   31          0.213654000000         0.562972926803
   32          0.085469000000         1.986327869751
   33          0.033823000000         0.847543916007
   34          0.013400000000        -0.273015019103
 D 23
    1         86.066600000000         0.000443128997
    2         22.638600000000         0.005007457697
    3         12.138400000000        -0.016081681461
    4          3.440810000000         0.177203584886
    5          1.717610000000         0.366762766551
    6          0.814849000000         0.377335844430
    7          0.366007000000         0.233988115159
    8         86.066600000000        -0.000000248647
    9         22.638600000000        -0.000002869460
   10         12.138400000000         0.000009377105
   11          3.440810000000        -0.000131215050
   12          1.717610000000        -0.000214035015
   13          0.814849000000         0.000068577151
   14          0.366007000000         0.000237542984
   15         86.066600000000         0.000000063566
   16         22.638600000000         0.000002861842
   17         12.138400000000        -0.000008967509
   18          3.440810000000         0.000127241137
   19          1.717610000000         0.000041546730
   20          0.814849000000        -0.000223614660
   21          0.366007000000         0.000042092307
   22          0.150282000000         0.063701705164
   23          0.061700000000         0.001049251294
 D 23
    1         86.066600000000         0.000008622690
    2         22.638600000000         0.000097438343
    3         12.138400000000        -0.000312927735
    4          3.440810000000         0.003448141700
    5          1.717610000000         0.007136706575
    6          0.814849000000         0.007342444347
    7          0.366007000000         0.004553091732
    8         86.066600000000         0.000077335751
    9         22.638600000000         0.000892476555
   10         12.138400000000        -0.002916522975
   11          3.440810000000         0.040811285214
   12          1.717610000000         0.066570443247
   13          0.814849000000        -0.021329273375
   14          0.366007000000        -0.073882031465
   15         86.066600000000        -0.000018502341
   16         22.638600000000        -0.000833002634
   17         12.138400000000         0.002610192214
   18          3.440810000000        -0.037036351619
   19          1.717610000000        -0.012093096014
   20          0.814849000000         0.065088000510
   21          0.366007000000        -0.012251898315
   22          0.150282000000         0.371990271562
   23          0.061700000000        -1.218605348588
 D 23
    1         86.066600000000        -0.000302653609
    2         22.638600000000        -0.003420054103
    3         12.138400000000         0.010983661569
    4          3.440810000000        -0.121028650511
    5          1.717610000000        -0.250496076147
    6          0.814849000000        -0.257717404926
    7          0.366007000000        -0.159812036711
    8         86.066600000000         0.000256905766
    9         22.638600000000         0.002964765596
   10         12.138400000000        -0.009688553636
   11          3.440810000000         0.135573190804
   12          1.717610000000         0.221143915387
   13          0.814849000000        -0.070854853843
   14          0.366007000000        -0.245432671290
   15         86.066600000000        -0.000061597470
   16         22.638600000000        -0.002773208776
   17         12.138400000000         0.008689777993
   18          3.440810000000        -0.123300372856
   19          1.717610000000        -0.040259992745
   20          0.814849000000         0.216689127856
   21          0.366007000000        -0.040788672867
   22          0.150282000000         1.784399692892
   23          0.061700000000        -0.950945586876
 D 23
    1         86.066600000000        -0.000479028500
    2         22.638600000000        -0.005413130187
    3         12.138400000000         0.017384517382
    4          3.440810000000        -0.191559496381
    5          1.717610000000        -0.396475561693
    6          0.814849000000        -0.407905203338
    7          0.366007000000        -0.252944349448
    8         86.066600000000         0.001516825241
    9         22.638600000000         0.017504594610
   10         12.138400000000        -0.057203241961
   11          3.440810000000         0.800452402712
   12          1.717610000000         1.305679812994
   13          0.814849000000        -0.418341839310
   14          0.366007000000        -1.449085695132
   15         86.066600000000        -0.000327007613
   16         22.638600000000        -0.014722364212
   17         12.138400000000         0.046132147586
   18          3.440810000000        -0.654574950298
   19          1.717610000000        -0.213731573875
   20          0.814849000000         1.150355605673
   21          0.366007000000        -0.216538222037
   22          0.150282000000         1.466716049913
   23          0.061700000000        -0.523526595358
 D 23
    1         86.066600000000         0.000507861609
    2         22.638600000000         0.005738950823
    3         12.138400000000        -0.018430905390
    4          3.440810000000         0.203089615707
    5          1.717610000000         0.420339742914
    6          0.814849000000         0.432457343833
    7          0.366007000000         0.268169272185
    8         86.066600000000        -0.000992512644
    9         22.638600000000        -0.011453878148
   10         12.138400000000         0.037430113505
   11          3.440810000000        -0.523764445195
   12          1.717610000000        -0.854352689227
   13          0.814849000000         0.273735928114
   14          0.366007000000         0.948188252767
   15         86.066600000000         0.000710732369
   16         22.638600000000         0.031998217750
   17         12.138400000000        -0.100265587948
   18          3.440810000000         1.422681268545
   19          1.717610000000         0.464533368578
   20          0.814849000000        -2.500232206579
   21          0.366007000000         0.470633458056
   22          0.150282000000        -0.873499124765
   23          0.061700000000         0.293023510432
 F 3
    1          2.908600000000         0.092206899106
    2          0.850800000000        -0.034241697124
    3          0.338900000000         1.008164257856
 F 3
    1          2.908600000000         0.253618362554
    2          0.850800000000         1.096590297708
    3          0.338900000000        -0.755250343580
 F 3
    1          2.908600000000         1.123955092200
    2          0.850800000000        -0.994596740258
    3          0.338900000000         0.430912962878
 G 2
    1          1.801900000000         0.164874227371
    2          0.834400000000        -1.103274663075
 G 2
    1          1.801900000000         1.339888863581
    2          0.834400000000        -0.777991449449
 end
  // -----------------------------------------------
  // The basis set
  // -----------------------------------------------
  BAS[ATNO] = new BFNGauss[NSH];
  // Basis function   1 L = s
  InitBFNGauss(BAS[ATNO][  0]);
  BAS[ATNO][  0].l  = 0;
  BAS[ATNO][  0].ng = 38;
  BAS[ATNO][  0].a[  0] =       257.497000000000;     BAS[ATNO][  0].d[  0] =         0.000767791520;
  BAS[ATNO][  0].a[  1] =        21.354600000000;     BAS[ATNO][  0].d[  1] =        -0.078172773636;
  BAS[ATNO][  0].a[  2] =        13.480600000000;     BAS[ATNO][  0].d[  2] =         0.460802877540;
  BAS[ATNO][  0].a[  3] =         8.486510000000;     BAS[ATNO][  0].d[  3] =        -0.536064441660;
  BAS[ATNO][  0].a[  4] =         5.325510000000;     BAS[ATNO][  0].d[  4] =        -0.400714193505;
  BAS[ATNO][  0].a[  5] =         1.626860000000;     BAS[ATNO][  0].d[  5] =         0.855129805388;
  BAS[ATNO][  0].a[  6] =         0.740469000000;     BAS[ATNO][  0].d[  6] =         0.489735021553;
  BAS[ATNO][  0].a[  7] =         0.180933000000;     BAS[ATNO][  0].d[  7] =         0.022023020058;
  BAS[ATNO][  0].a[  8] =         0.085096000000;     BAS[ATNO][  0].d[  8] =        -0.008357730614;
  BAS[ATNO][  0].a[  9] =       257.497000000000;     BAS[ATNO][  0].d[  9] =         0.000000196741;
  BAS[ATNO][  0].a[ 10] =        21.354600000000;     BAS[ATNO][  0].d[ 10] =        -0.000018974820;
  BAS[ATNO][  0].a[ 11] =        13.480600000000;     BAS[ATNO][  0].d[ 11] =         0.000117707931;
  BAS[ATNO][  0].a[ 12] =         8.486510000000;     BAS[ATNO][  0].d[ 12] =        -0.000151417002;
  BAS[ATNO][  0].a[ 13] =         5.325510000000;     BAS[ATNO][  0].d[ 13] =        -0.000090019462;
  BAS[ATNO][  0].a[ 14] =         1.626860000000;     BAS[ATNO][  0].d[ 14] =         0.000277612031;
  BAS[ATNO][  0].a[ 15] =         0.740469000000;     BAS[ATNO][  0].d[ 15] =         0.000254932356;
  BAS[ATNO][  0].a[ 16] =         0.180933000000;     BAS[ATNO][  0].d[ 16] =        -0.000240261982;
  BAS[ATNO][  0].a[ 17] =         0.085096000000;     BAS[ATNO][  0].d[ 17] =        -0.000512755352;
  BAS[ATNO][  0].a[ 18] =       257.497000000000;     BAS[ATNO][  0].d[ 18] =        -0.000000086105;
  BAS[ATNO][  0].a[ 19] =        21.354600000000;     BAS[ATNO][  0].d[ 19] =         0.000004875094;
  BAS[ATNO][  0].a[ 20] =        13.480600000000;     BAS[ATNO][  0].d[ 20] =        -0.000044167233;
  BAS[ATNO][  0].a[ 21] =         8.486510000000;     BAS[ATNO][  0].d[ 21] =         0.000040010416;
  BAS[ATNO][  0].a[ 22] =         5.325510000000;     BAS[ATNO][  0].d[ 22] =         0.000113885355;
  BAS[ATNO][  0].a[ 23] =         1.626860000000;     BAS[ATNO][  0].d[ 23] =        -0.000367308990;
  BAS[ATNO][  0].a[ 24] =         0.740469000000;     BAS[ATNO][  0].d[ 24] =         0.000163310212;
  BAS[ATNO][  0].a[ 25] =         0.180933000000;     BAS[ATNO][  0].d[ 25] =         0.000385121757;
  BAS[ATNO][  0].a[ 26] =         0.085096000000;     BAS[ATNO][  0].d[ 26] =        -0.000289587373;
  BAS[ATNO][  0].a[ 27] =       257.497000000000;     BAS[ATNO][  0].d[ 27] =         0.000000090570;
  BAS[ATNO][  0].a[ 28] =        21.354600000000;     BAS[ATNO][  0].d[ 28] =        -0.000010821168;
  BAS[ATNO][  0].a[ 29] =        13.480600000000;     BAS[ATNO][  0].d[ 29] =         0.000059787159;
  BAS[ATNO][  0].a[ 30] =         8.486510000000;     BAS[ATNO][  0].d[ 30] =        -0.000095495144;
  BAS[ATNO][  0].a[ 31] =         5.325510000000;     BAS[ATNO][  0].d[ 31] =         0.000006640899;
  BAS[ATNO][  0].a[ 32] =         1.626860000000;     BAS[ATNO][  0].d[ 32] =         0.000213616435;
  BAS[ATNO][  0].a[ 33] =         0.740469000000;     BAS[ATNO][  0].d[ 33] =        -0.000254742903;
  BAS[ATNO][  0].a[ 34] =         0.180933000000;     BAS[ATNO][  0].d[ 34] =         0.000156529328;
  BAS[ATNO][  0].a[ 35] =         0.085096000000;     BAS[ATNO][  0].d[ 35] =        -0.000036660452;
  BAS[ATNO][  0].a[ 36] =         0.036384000000;     BAS[ATNO][  0].d[ 36] =         0.003152817348;
  BAS[ATNO][  0].a[ 37] =         0.015600000000;     BAS[ATNO][  0].d[ 37] =        -0.000744146380;

  // Basis function   2 L = s
  InitBFNGauss(BAS[ATNO][  1]);
  BAS[ATNO][  1].l  = 0;
  BAS[ATNO][  1].ng = 37;
  BAS[ATNO][  1].a[  0] =       257.497000000000;     BAS[ATNO][  1].d[  0] =         0.000000081035;
  BAS[ATNO][  1].a[  1] =        21.354600000000;     BAS[ATNO][  1].d[  1] =        -0.000008250580;
  BAS[ATNO][  1].a[  2] =        13.480600000000;     BAS[ATNO][  1].d[  2] =         0.000048634465;
  BAS[ATNO][  1].a[  3] =         8.486510000000;     BAS[ATNO][  1].d[  3] =        -0.000056577788;
  BAS[ATNO][  1].a[  4] =         5.325510000000;     BAS[ATNO][  1].d[  4] =        -0.000042292532;
  BAS[ATNO][  1].a[  5] =         1.626860000000;     BAS[ATNO][  1].d[  5] =         0.000090252866;
  BAS[ATNO][  1].a[  6] =         0.740469000000;     BAS[ATNO][  1].d[  6] =         0.000051688047;
  BAS[ATNO][  1].a[  7] =         0.180933000000;     BAS[ATNO][  1].d[  7] =         0.000002324373;
  BAS[ATNO][  1].a[  8] =       257.497000000000;     BAS[ATNO][  1].d[  8] =        -0.000231031039;
  BAS[ATNO][  1].a[  9] =        21.354600000000;     BAS[ATNO][  1].d[  9] =         0.022281993592;
  BAS[ATNO][  1].a[ 10] =        13.480600000000;     BAS[ATNO][  1].d[ 10] =        -0.138223570378;
  BAS[ATNO][  1].a[ 11] =         8.486510000000;     BAS[ATNO][  1].d[ 11] =         0.177807888542;
  BAS[ATNO][  1].a[ 12] =         5.325510000000;     BAS[ATNO][  1].d[ 12] =         0.105709202063;
  BAS[ATNO][  1].a[ 13] =         1.626860000000;     BAS[ATNO][  1].d[ 13] =        -0.325997797900;
  BAS[ATNO][  1].a[ 14] =         0.740469000000;     BAS[ATNO][  1].d[ 14] =        -0.299365219806;
  BAS[ATNO][  1].a[ 15] =         0.180933000000;     BAS[ATNO][  1].d[ 15] =         0.282137905311;
  BAS[ATNO][  1].a[ 16] =         0.085096000000;     BAS[ATNO][  1].d[ 16] =         0.602124895658;
  BAS[ATNO][  1].a[ 17] =       257.497000000000;     BAS[ATNO][  1].d[ 17] =        -0.000000019592;
  BAS[ATNO][  1].a[ 18] =        21.354600000000;     BAS[ATNO][  1].d[ 18] =         0.000001109286;
  BAS[ATNO][  1].a[ 19] =        13.480600000000;     BAS[ATNO][  1].d[ 19] =        -0.000010049879;
  BAS[ATNO][  1].a[ 20] =         8.486510000000;     BAS[ATNO][  1].d[ 20] =         0.000009104031;
  BAS[ATNO][  1].a[ 21] =         5.325510000000;     BAS[ATNO][  1].d[ 21] =         0.000025913646;
  BAS[ATNO][  1].a[ 22] =         1.626860000000;     BAS[ATNO][  1].d[ 22] =        -0.000083578042;
  BAS[ATNO][  1].a[ 23] =         0.740469000000;     BAS[ATNO][  1].d[ 23] =         0.000037159852;
  BAS[ATNO][  1].a[ 24] =         0.180933000000;     BAS[ATNO][  1].d[ 24] =         0.000087631186;
  BAS[ATNO][  1].a[ 25] =         0.085096000000;     BAS[ATNO][  1].d[ 25] =        -0.000065893148;
  BAS[ATNO][  1].a[ 26] =       257.497000000000;     BAS[ATNO][  1].d[ 26] =         0.000000051439;
  BAS[ATNO][  1].a[ 27] =        21.354600000000;     BAS[ATNO][  1].d[ 27] =        -0.000006145882;
  BAS[ATNO][  1].a[ 28] =        13.480600000000;     BAS[ATNO][  1].d[ 28] =         0.000033956115;
  BAS[ATNO][  1].a[ 29] =         8.486510000000;     BAS[ATNO][  1].d[ 29] =        -0.000054236464;
  BAS[ATNO][  1].a[ 30] =         5.325510000000;     BAS[ATNO][  1].d[ 30] =         0.000003771698;
  BAS[ATNO][  1].a[ 31] =         1.626860000000;     BAS[ATNO][  1].d[ 31] =         0.000121323447;
  BAS[ATNO][  1].a[ 32] =         0.740469000000;     BAS[ATNO][  1].d[ 32] =        -0.000144681223;
  BAS[ATNO][  1].a[ 33] =         0.180933000000;     BAS[ATNO][  1].d[ 33] =         0.000088900827;
  BAS[ATNO][  1].a[ 34] =         0.085096000000;     BAS[ATNO][  1].d[ 34] =        -0.000020821303;
  BAS[ATNO][  1].a[ 35] =         0.036384000000;     BAS[ATNO][  1].d[ 35] =         0.295445972802;
  BAS[ATNO][  1].a[ 36] =         0.015600000000;     BAS[ATNO][  1].d[ 36] =         0.001362438272;

  // Basis function   3 L = s
  InitBFNGauss(BAS[ATNO][  2]);
  BAS[ATNO][  2].l  = 0;
  BAS[ATNO][  2].ng = 38;
  BAS[ATNO][  2].a[  0] =       257.497000000000;     BAS[ATNO][  2].d[  0] =         0.000010318294;
  BAS[ATNO][  2].a[  1] =        21.354600000000;     BAS[ATNO][  2].d[  1] =        -0.001050558190;
  BAS[ATNO][  2].a[  2] =        13.480600000000;     BAS[ATNO][  2].d[  2] =         0.006192696186;
  BAS[ATNO][  2].a[  3] =         8.486510000000;     BAS[ATNO][  2].d[  3] =        -0.007204130844;
  BAS[ATNO][  2].a[  4] =         5.325510000000;     BAS[ATNO][  2].d[  4] =        -0.005385168754;
  BAS[ATNO][  2].a[  5] =         1.626860000000;     BAS[ATNO][  2].d[  5] =         0.011492026943;
  BAS[ATNO][  2].a[  6] =         0.740469000000;     BAS[ATNO][  2].d[  6] =         0.006581513154;
  BAS[ATNO][  2].a[  7] =         0.180933000000;     BAS[ATNO][  2].d[  7] =         0.000295965757;
  BAS[ATNO][  2].a[  8] =         0.085096000000;     BAS[ATNO][  2].d[  8] =        -0.000112318931;
  BAS[ATNO][  2].a[  9] =       257.497000000000;     BAS[ATNO][  2].d[  9] =         0.000071157847;
  BAS[ATNO][  2].a[ 10] =        21.354600000000;     BAS[ATNO][  2].d[ 10] =        -0.006862881714;
  BAS[ATNO][  2].a[ 11] =        13.480600000000;     BAS[ATNO][  2].d[ 11] =         0.042573031433;
  BAS[ATNO][  2].a[ 12] =         8.486510000000;     BAS[ATNO][  2].d[ 12] =        -0.054765050615;
  BAS[ATNO][  2].a[ 13] =         5.325510000000;     BAS[ATNO][  2].d[ 13] =        -0.032558565589;
  BAS[ATNO][  2].a[ 14] =         1.626860000000;     BAS[ATNO][  2].d[ 14] =         0.100407726838;
  BAS[ATNO][  2].a[ 15] =         0.740469000000;     BAS[ATNO][  2].d[ 15] =         0.092204859691;
  BAS[ATNO][  2].a[ 16] =         0.180933000000;     BAS[ATNO][  2].d[ 16] =        -0.086898825420;
  BAS[ATNO][  2].a[ 17] =         0.085096000000;     BAS[ATNO][  2].d[ 17] =        -0.185455216062;
  BAS[ATNO][  2].a[ 18] =       257.497000000000;     BAS[ATNO][  2].d[ 18] =        -0.000015904033;
  BAS[ATNO][  2].a[ 19] =        21.354600000000;     BAS[ATNO][  2].d[ 19] =         0.000900458766;
  BAS[ATNO][  2].a[ 20] =        13.480600000000;     BAS[ATNO][  2].d[ 20] =        -0.008157949336;
  BAS[ATNO][  2].a[ 21] =         8.486510000000;     BAS[ATNO][  2].d[ 21] =         0.007390160744;
  BAS[ATNO][  2].a[ 22] =         5.325510000000;     BAS[ATNO][  2].d[ 22] =         0.021035299311;
  BAS[ATNO][  2].a[ 23] =         1.626860000000;     BAS[ATNO][  2].d[ 23] =        -0.067844145037;
  BAS[ATNO][  2].a[ 24] =         0.740469000000;     BAS[ATNO][  2].d[ 24] =         0.030164363034;
  BAS[ATNO][  2].a[ 25] =         0.180933000000;     BAS[ATNO][  2].d[ 25] =         0.071134268512;
  BAS[ATNO][  2].a[ 26] =         0.085096000000;     BAS[ATNO][  2].d[ 26] =        -0.053488502192;
  BAS[ATNO][  2].a[ 27] =       257.497000000000;     BAS[ATNO][  2].d[ 27] =         0.000025805873;
  BAS[ATNO][  2].a[ 28] =        21.354600000000;     BAS[ATNO][  2].d[ 28] =        -0.003083236962;
  BAS[ATNO][  2].a[ 29] =        13.480600000000;     BAS[ATNO][  2].d[ 29] =         0.017034942946;
  BAS[ATNO][  2].a[ 30] =         8.486510000000;     BAS[ATNO][  2].d[ 30] =        -0.027209092304;
  BAS[ATNO][  2].a[ 31] =         5.325510000000;     BAS[ATNO][  2].d[ 31] =         0.001892167687;
  BAS[ATNO][  2].a[ 32] =         1.626860000000;     BAS[ATNO][  2].d[ 32] =         0.060864972365;
  BAS[ATNO][  2].a[ 33] =         0.740469000000;     BAS[ATNO][  2].d[ 33] =        -0.072582990821;
  BAS[ATNO][  2].a[ 34] =         0.180933000000;     BAS[ATNO][  2].d[ 34] =         0.044599345721;
  BAS[ATNO][  2].a[ 35] =         0.085096000000;     BAS[ATNO][  2].d[ 35] =        -0.010445532458;
  BAS[ATNO][  2].a[ 36] =         0.036384000000;     BAS[ATNO][  2].d[ 36] =        -1.205775522702;
  BAS[ATNO][  2].a[ 37] =         0.015600000000;     BAS[ATNO][  2].d[ 37] =         1.884765841136;

  // Basis function   4 L = s
  InitBFNGauss(BAS[ATNO][  3]);
  BAS[ATNO][  3].l  = 0;
  BAS[ATNO][  3].ng = 38;
  BAS[ATNO][  3].a[  0] =       257.497000000000;     BAS[ATNO][  3].d[  0] =        -0.000150570859;
  BAS[ATNO][  3].a[  1] =        21.354600000000;     BAS[ATNO][  3].d[  1] =         0.015330387700;
  BAS[ATNO][  3].a[  2] =        13.480600000000;     BAS[ATNO][  3].d[  2] =        -0.090367610579;
  BAS[ATNO][  3].a[  3] =         8.486510000000;     BAS[ATNO][  3].d[  3] =         0.105127083772;
  BAS[ATNO][  3].a[  4] =         5.325510000000;     BAS[ATNO][  3].d[  4] =         0.078583676356;
  BAS[ATNO][  3].a[  5] =         1.626860000000;     BAS[ATNO][  3].d[  5] =        -0.167698686390;
  BAS[ATNO][  3].a[  6] =         0.740469000000;     BAS[ATNO][  3].d[  6] =        -0.096041465607;
  BAS[ATNO][  3].a[  7] =         0.180933000000;     BAS[ATNO][  3].d[  7] =        -0.004318913352;
  BAS[ATNO][  3].a[  8] =         0.085096000000;     BAS[ATNO][  3].d[  8] =         0.001639026539;
  BAS[ATNO][  3].a[  9] =       257.497000000000;     BAS[ATNO][  3].d[  9] =         0.000123817932;
  BAS[ATNO][  3].a[ 10] =        21.354600000000;     BAS[ATNO][  3].d[ 10] =        -0.011941730297;
  BAS[ATNO][  3].a[ 11] =        13.480600000000;     BAS[ATNO][  3].d[ 11] =         0.074079035672;
  BAS[ATNO][  3].a[ 12] =         8.486510000000;     BAS[ATNO][  3].d[ 12] =        -0.095293710632;
  BAS[ATNO][  3].a[ 13] =         5.325510000000;     BAS[ATNO][  3].d[ 13] =        -0.056653403823;
  BAS[ATNO][  3].a[ 14] =         1.626860000000;     BAS[ATNO][  3].d[ 14] =         0.174714069630;
  BAS[ATNO][  3].a[ 15] =         0.740469000000;     BAS[ATNO][  3].d[ 15] =         0.160440702959;
  BAS[ATNO][  3].a[ 16] =         0.180933000000;     BAS[ATNO][  3].d[ 16] =        -0.151207958923;
  BAS[ATNO][  3].a[ 17] =         0.085096000000;     BAS[ATNO][  3].d[ 17] =        -0.322700618298;
  BAS[ATNO][  3].a[ 18] =       257.497000000000;     BAS[ATNO][  3].d[ 18] =         0.000350546854;
  BAS[ATNO][  3].a[ 19] =        21.354600000000;     BAS[ATNO][  3].d[ 19] =        -0.019847355365;
  BAS[ATNO][  3].a[ 20] =        13.480600000000;     BAS[ATNO][  3].d[ 20] =         0.179812475111;
  BAS[ATNO][  3].a[ 21] =         8.486510000000;     BAS[ATNO][  3].d[ 21] =        -0.162889353689;
  BAS[ATNO][  3].a[ 22] =         5.325510000000;     BAS[ATNO][  3].d[ 22] =        -0.463647061032;
  BAS[ATNO][  3].a[ 23] =         1.626860000000;     BAS[ATNO][  3].d[ 23] =         1.495378696035;
  BAS[ATNO][  3].a[ 24] =         0.740469000000;     BAS[ATNO][  3].d[ 24] =        -0.664864239007;
  BAS[ATNO][  3].a[ 25] =         0.180933000000;     BAS[ATNO][  3].d[ 25] =        -1.567897563349;
  BAS[ATNO][  3].a[ 26] =         0.085096000000;     BAS[ATNO][  3].d[ 26] =         1.178960492706;
  BAS[ATNO][  3].a[ 27] =       257.497000000000;     BAS[ATNO][  3].d[ 27] =        -0.000513241373;
  BAS[ATNO][  3].a[ 28] =        21.354600000000;     BAS[ATNO][  3].d[ 28] =         0.061321109068;
  BAS[ATNO][  3].a[ 29] =        13.480600000000;     BAS[ATNO][  3].d[ 29] =        -0.338800295678;
  BAS[ATNO][  3].a[ 30] =         8.486510000000;     BAS[ATNO][  3].d[ 30] =         0.541149362641;
  BAS[ATNO][  3].a[ 31] =         5.325510000000;     BAS[ATNO][  3].d[ 31] =        -0.037632469566;
  BAS[ATNO][  3].a[ 32] =         1.626860000000;     BAS[ATNO][  3].d[ 32] =        -1.210515978787;
  BAS[ATNO][  3].a[ 33] =         0.740469000000;     BAS[ATNO][  3].d[ 33] =         1.443570361780;
  BAS[ATNO][  3].a[ 34] =         0.180933000000;     BAS[ATNO][  3].d[ 34] =        -0.887016267989;
  BAS[ATNO][  3].a[ 35] =         0.085096000000;     BAS[ATNO][  3].d[ 35] =         0.207746483011;
  BAS[ATNO][  3].a[ 36] =         0.036384000000;     BAS[ATNO][  3].d[ 36] =         1.733106314806;
  BAS[ATNO][  3].a[ 37] =         0.015600000000;     BAS[ATNO][  3].d[ 37] =        -1.103602993507;

  // Basis function   5 L = s
  InitBFNGauss(BAS[ATNO][  4]);
  BAS[ATNO][  4].l  = 0;
  BAS[ATNO][  4].ng = 38;
  BAS[ATNO][  4].a[  0] =       257.497000000000;     BAS[ATNO][  4].d[  0] =        -0.000771942138;
  BAS[ATNO][  4].a[  1] =        21.354600000000;     BAS[ATNO][  4].d[  1] =         0.078595369167;
  BAS[ATNO][  4].a[  2] =        13.480600000000;     BAS[ATNO][  4].d[  2] =        -0.463293939681;
  BAS[ATNO][  4].a[  3] =         8.486510000000;     BAS[ATNO][  4].d[  3] =         0.538962361576;
  BAS[ATNO][  4].a[  4] =         5.325510000000;     BAS[ATNO][  4].d[  4] =         0.402880421204;
  BAS[ATNO][  4].a[  5] =         1.626860000000;     BAS[ATNO][  4].d[  5] =        -0.859752566200;
  BAS[ATNO][  4].a[  6] =         0.740469000000;     BAS[ATNO][  4].d[  6] =        -0.492382488466;
  BAS[ATNO][  4].a[  7] =         0.180933000000;     BAS[ATNO][  4].d[  7] =        -0.022142074678;
  BAS[ATNO][  4].a[  8] =         0.085096000000;     BAS[ATNO][  4].d[  8] =         0.008402911812;
  BAS[ATNO][  4].a[  9] =       257.497000000000;     BAS[ATNO][  4].d[  9] =         0.000779657831;
  BAS[ATNO][  4].a[ 10] =        21.354600000000;     BAS[ATNO][  4].d[ 10] =        -0.075194791434;
  BAS[ATNO][  4].a[ 11] =        13.480600000000;     BAS[ATNO][  4].d[ 11] =         0.466461517576;
  BAS[ATNO][  4].a[ 12] =         8.486510000000;     BAS[ATNO][  4].d[ 12] =        -0.600046267797;
  BAS[ATNO][  4].a[ 13] =         5.325510000000;     BAS[ATNO][  4].d[ 13] =        -0.356735647048;
  BAS[ATNO][  4].a[ 14] =         1.626860000000;     BAS[ATNO][  4].d[ 14] =         1.100141076662;
  BAS[ATNO][  4].a[ 15] =         0.740469000000;     BAS[ATNO][  4].d[ 15] =         1.010264416979;
  BAS[ATNO][  4].a[ 16] =         0.180933000000;     BAS[ATNO][  4].d[ 16] =        -0.952127593852;
  BAS[ATNO][  4].a[ 17] =         0.085096000000;     BAS[ATNO][  4].d[ 17] =        -2.031984066335;
  BAS[ATNO][  4].a[ 18] =       257.497000000000;     BAS[ATNO][  4].d[ 18] =        -0.000589673803;
  BAS[ATNO][  4].a[ 19] =        21.354600000000;     BAS[ATNO][  4].d[ 19] =         0.033386308800;
  BAS[ATNO][  4].a[ 20] =        13.480600000000;     BAS[ATNO][  4].d[ 20] =        -0.302472279541;
  BAS[ATNO][  4].a[ 21] =         8.486510000000;     BAS[ATNO][  4].d[ 21] =         0.274004982651;
  BAS[ATNO][  4].a[ 22] =         5.325510000000;     BAS[ATNO][  4].d[ 22] =         0.779925771928;
  BAS[ATNO][  4].a[ 23] =         1.626860000000;     BAS[ATNO][  4].d[ 23] =        -2.515457298989;
  BAS[ATNO][  4].a[ 24] =         0.740469000000;     BAS[ATNO][  4].d[ 24] =         1.118404058639;
  BAS[ATNO][  4].a[ 25] =         0.180933000000;     BAS[ATNO][  4].d[ 25] =         2.637445203848;
  BAS[ATNO][  4].a[ 26] =         0.085096000000;     BAS[ATNO][  4].d[ 26] =        -1.983193143289;
  BAS[ATNO][  4].a[ 27] =       257.497000000000;     BAS[ATNO][  4].d[ 27] =        -0.000391916995;
  BAS[ATNO][  4].a[ 28] =        21.354600000000;     BAS[ATNO][  4].d[ 28] =         0.046825501800;
  BAS[ATNO][  4].a[ 29] =        13.480600000000;     BAS[ATNO][  4].d[ 29] =        -0.258711789405;
  BAS[ATNO][  4].a[ 30] =         8.486510000000;     BAS[ATNO][  4].d[ 30] =         0.413227856440;
  BAS[ATNO][  4].a[ 31] =         5.325510000000;     BAS[ATNO][  4].d[ 31] =        -0.028736585137;
  BAS[ATNO][  4].a[ 32] =         1.626860000000;     BAS[ATNO][  4].d[ 32] =        -0.924363877393;
  BAS[ATNO][  4].a[ 33] =         0.740469000000;     BAS[ATNO][  4].d[ 33] =         1.102326875720;
  BAS[ATNO][  4].a[ 34] =         0.180933000000;     BAS[ATNO][  4].d[ 34] =        -0.677335789992;
  BAS[ATNO][  4].a[ 35] =         0.085096000000;     BAS[ATNO][  4].d[ 35] =         0.158637595799;
  BAS[ATNO][  4].a[ 36] =         0.036384000000;     BAS[ATNO][  4].d[ 36] =         3.810827575769;
  BAS[ATNO][  4].a[ 37] =         0.015600000000;     BAS[ATNO][  4].d[ 37] =        -1.509729615710;

  // Basis function   6 L = s
  InitBFNGauss(BAS[ATNO][  5]);
  BAS[ATNO][  5].l  = 0;
  BAS[ATNO][  5].ng = 38;
  BAS[ATNO][  5].a[  0] =       257.497000000000;     BAS[ATNO][  5].d[  0] =         0.001417080059;
  BAS[ATNO][  5].a[  1] =        21.354600000000;     BAS[ATNO][  5].d[  1] =        -0.144280153781;
  BAS[ATNO][  5].a[  2] =        13.480600000000;     BAS[ATNO][  5].d[  2] =         0.850484215182;
  BAS[ATNO][  5].a[  3] =         8.486510000000;     BAS[ATNO][  5].d[  3] =        -0.989391273741;
  BAS[ATNO][  5].a[  4] =         5.325510000000;     BAS[ATNO][  5].d[  4] =        -0.739581094188;
  BAS[ATNO][  5].a[  5] =         1.626860000000;     BAS[ATNO][  5].d[  5] =         1.578276605601;
  BAS[ATNO][  5].a[  6] =         0.740469000000;     BAS[ATNO][  5].d[  6] =         0.903883039266;
  BAS[ATNO][  5].a[  7] =         0.180933000000;     BAS[ATNO][  5].d[  7] =         0.040646948713;
  BAS[ATNO][  5].a[  8] =         0.085096000000;     BAS[ATNO][  5].d[  8] =        -0.015425506888;
  BAS[ATNO][  5].a[  9] =       257.497000000000;     BAS[ATNO][  5].d[  9] =        -0.001472252667;
  BAS[ATNO][  5].a[ 10] =        21.354600000000;     BAS[ATNO][  5].d[ 10] =         0.141992714965;
  BAS[ATNO][  5].a[ 11] =        13.480600000000;     BAS[ATNO][  5].d[ 11] =        -0.880834111576;
  BAS[ATNO][  5].a[ 12] =         8.486510000000;     BAS[ATNO][  5].d[ 12] =         1.133086441825;
  BAS[ATNO][  5].a[ 13] =         5.325510000000;     BAS[ATNO][  5].d[ 13] =         0.673635262277;
  BAS[ATNO][  5].a[ 14] =         1.626860000000;     BAS[ATNO][  5].d[ 14] =        -2.077431366481;
  BAS[ATNO][  5].a[ 15] =         0.740469000000;     BAS[ATNO][  5].d[ 15] =        -1.907714412991;
  BAS[ATNO][  5].a[ 16] =         0.180933000000;     BAS[ATNO][  5].d[ 16] =         1.797932801820;
  BAS[ATNO][  5].a[ 17] =         0.085096000000;     BAS[ATNO][  5].d[ 17] =         3.837060105419;
  BAS[ATNO][  5].a[ 18] =       257.497000000000;     BAS[ATNO][  5].d[ 18] =         0.000797699399;
  BAS[ATNO][  5].a[ 19] =        21.354600000000;     BAS[ATNO][  5].d[ 19] =        -0.045164357540;
  BAS[ATNO][  5].a[ 20] =        13.480600000000;     BAS[ATNO][  5].d[ 20] =         0.409178692404;
  BAS[ATNO][  5].a[ 21] =         8.486510000000;     BAS[ATNO][  5].d[ 21] =        -0.370668679733;
  BAS[ATNO][  5].a[ 22] =         5.325510000000;     BAS[ATNO][  5].d[ 22] =        -1.055068609969;
  BAS[ATNO][  5].a[ 23] =         1.626860000000;     BAS[ATNO][  5].d[ 23] =         3.402862338196;
  BAS[ATNO][  5].a[ 24] =         0.740469000000;     BAS[ATNO][  5].d[ 24] =        -1.512955537570;
  BAS[ATNO][  5].a[ 25] =         0.180933000000;     BAS[ATNO][  5].d[ 25] =        -3.567885233764;
  BAS[ATNO][  5].a[ 26] =         0.085096000000;     BAS[ATNO][  5].d[ 26] =         2.682825607645;
  BAS[ATNO][  5].a[ 27] =       257.497000000000;     BAS[ATNO][  5].d[ 27] =        -0.002224415104;
  BAS[ATNO][  5].a[ 28] =        21.354600000000;     BAS[ATNO][  5].d[ 28] =         0.265768912025;
  BAS[ATNO][  5].a[ 29] =        13.480600000000;     BAS[ATNO][  5].d[ 29] =        -1.468378301453;
[...]
<sd|sf>:          540 b           17 skpd (  3.1%)    0.003 s ( 0.006 ms/b)
<sd|sg>:          360 b           16 skpd (  4.4%)    0.005 s ( 0.014 ms/b)
<sd|pp>:          630 b            4 skpd (  0.6%)    0.017 s ( 0.027 ms/b)
<sd|pd>:          900 b            1 skpd (  0.1%)    0.029 s ( 0.033 ms/b)
<sd|pf>: done
<sd|pg>: done
<sd|dd>:          450 b            0 skpd (  0.0%)    0.037 s ( 0.083 ms/b)
<sd|df>:          450 b            0 skpd (  0.0%)    0.010 s ( 0.021 ms/b)
<sd|dg>:          300 b            0 skpd (  0.0%)    0.015 s ( 0.050 ms/b)
<sd|ff>: done
<sd|fg>: done
<sd|gg>: done
<sf|sf>:          171 b            7 skpd (  4.1%)    0.001 s ( 0.005 ms/b)
<sf|sg>:          216 b           12 skpd (  5.6%)    0.001 s ( 0.007 ms/b)
<sf|pp>:          378 b            2 skpd (  0.5%)    0.004 s ( 0.011 ms/b)
<sf|pd>: done
<sf|pf>: done
<sf|pg>: done
<sf|dd>:          270 b            0 skpd (  0.0%)    0.011 s ( 0.042 ms/b)
<sf|df>: done
<sf|dg>: done
<sf|ff>: done
<sf|fg>: done
<sf|gg>: done
<sg|sg>:           78 b            4 skpd (  5.1%)    0.002 s ( 0.025 ms/b)
<sg|pp>:          252 b            2 skpd (  0.8%)    0.006 s ( 0.022 ms/b)
<sg|pd>: done
<sg|pf>: done
<sg|pg>: done
<sg|dd>:          180 b            0 skpd (  0.0%)    0.015 s ( 0.082 ms/b)
<sg|df>: done
<sg|dg>: done
<sg|ff>: done
<sg|fg>: done
<sg|gg>: done
<pp|pp>:          231 b            0 skpd (  0.0%)    0.013 s ( 0.058 ms/b)
<pp|pd>:          630 b            1 skpd (  0.2%)    0.025 s ( 0.039 ms/b)
<pp|pf>:          378 b            4 skpd (  1.1%)    0.005 s ( 0.013 ms/b)
<pp|pg>:          252 b            3 skpd (  1.2%)    0.008 s ( 0.032 ms/b)
<pp|dd>:          315 b            0 skpd (  0.0%)    0.032 s ( 0.102 ms/b)
<pp|df>:          315 b            5 skpd (  1.6%)    0.008 s ( 0.027 ms/b)
<pp|dg>:          210 b            3 skpd (  1.4%)    0.013 s ( 0.063 ms/b)
<pp|ff>:          126 b            0 skpd (  0.0%)    0.003 s ( 0.022 ms/b)
<pp|fg>:          126 b            0 skpd (  0.0%)    0.003 s ( 0.026 ms/b)
<pp|gg>:           63 b            0 skpd (  0.0%)    0.005 s ( 0.077 ms/b)
<pd|pd>:          465 b            1 skpd (  0.2%)    0.050 s ( 0.107 ms/b)
<pd|pf>:          540 b           45 skpd (  8.3%)    0.012 s ( 0.024 ms/b)
<pd|pg>:          360 b           32 skpd (  8.9%)    0.022 s ( 0.067 ms/b)
<pd|dd>:          450 b            0 skpd (  0.0%)    0.081 s ( 0.180 ms/b)
<pd|df>:          450 b            0 skpd (  0.0%)    0.023 s ( 0.051 ms/b)
<pd|dg>:          300 b            0 skpd (  0.0%)    0.036 s ( 0.119 ms/b)
<pd|ff>: done
<pd|fg>: done
<pd|gg>: done
<pf|pf>:          171 b           26 skpd ( 15.2%)    0.003 s ( 0.022 ms/b)
<pf|pg>:          216 b           34 skpd ( 15.7%)    0.006 s ( 0.033 ms/b)
<pf|dd>:          270 b            0 skpd (  0.0%)    0.021 s ( 0.076 ms/b)
<pf|df>: done
<pf|dg>: done
<pf|ff>: done
<pf|fg>: done
<pf|gg>: done
<pg|pg>:           78 b           15 skpd ( 19.2%)    0.008 s ( 0.126 ms/b)
<pg|dd>:          180 b            0 skpd (  0.0%)    0.029 s ( 0.160 ms/b)
<pg|df>: done
<pg|dg>: done
<pg|ff>: done
<pg|fg>: done
<pg|gg>: done
<dd|dd>:          120 b            0 skpd (  0.0%)    0.070 s ( 0.580 ms/b)
<dd|df>:          225 b            0 skpd (  0.0%)    0.021 s ( 0.094 ms/b)
<dd|dg>:          150 b            0 skpd (  0.0%)    0.034 s ( 0.230 ms/b)
<dd|ff>:           90 b            0 skpd (  0.0%)    0.006 s ( 0.063 ms/b)
<dd|fg>:           90 b            0 skpd (  0.0%)    0.009 s ( 0.096 ms/b)
<dd|gg>:           45 b            0 skpd (  0.0%)    0.013 s ( 0.282 ms/b)
<df|df>:          120 b            0 skpd (  0.0%)    0.008 s ( 0.070 ms/b)
<df|dg>:          150 b            0 skpd (  0.0%)    0.014 s ( 0.092 ms/b)
<df|ff>: done
<df|fg>: done
<df|gg>: done
<dg|dg>:           55 b            0 skpd (  0.0%)    0.016 s ( 0.286 ms/b)
<dg|ff>: done
<dg|fg>: done
<dg|gg>: done
<ff|ff>: done
<ff|fg>: done
<ff|gg>: done
<fg|fg>: done
<fg|gg>: done
<gg|gg>: done
Recanonicalizing the internal orbitals
Recanonicalizing the virtual orbitals
Time needed for Fock operator              ...            0.970 sec
Reference energy                           ...   -166.838764554

------------------------------
PARTIAL COULOMB TRANSFORMATION
------------------------------

Transformation type                        ... one-operator
Dimension of the basis                     ...   88
Number of internal MOs                     ...   88 (0-87)
Pair cutoff                                ... 0.000e+00 Eh
Number of AO pairs included in the trafo   ... 3916
Total Number of distinct AO pairs          ... 3916
Memory devoted for trafo                   ... 2500.0 MB 
Max. Number of MO pairs treated together   ... 83677      
Max. Number of MOs treated per batch       ...  950      
Number Format for Storage                  ... Double (8 Byte)
AO-integral source                         ... DIRECT
Integral package used                      ... LIBINT

Starting integral evaluation:
<ss|**>: <sp|**>:         5313 b        0 skpd     0.085 s (  0.016 ms/b)
        9108 b        0 skpd     0.150 s (  0.016 ms/b)
<sd|**>:         7590 b        0 skpd     0.153 s (  0.020 ms/b)
<sf|**>:         4554 b        0 skpd     0.044 s (  0.010 ms/b)
<sg|**>:         3036 b        0 skpd     0.076 s (  0.025 ms/b)
<pp|**>:         5313 b        0 skpd     0.152 s (  0.029 ms/b)
<pd|**>:         7590 b        0 skpd     0.311 s (  0.041 ms/b)
<pf|**>:         4554 b        0 skpd     0.091 s (  0.020 ms/b)
<pg|**>:         3036 b        0 skpd     0.195 s (  0.064 ms/b)
<dd|**>:         3795 b        0 skpd     0.440 s (  0.116 ms/b)
<df|**>:         3795 b        0 skpd     0.150 s (  0.040 ms/b)
<dg|**>:         2530 b        0 skpd     0.225 s (  0.089 ms/b)
<ff|**>:         1518 b        0 skpd     0.082 s (  0.054 ms/b)
<fg|**>:         1518 b        0 skpd     0.110 s (  0.073 ms/b)
<gg|**>:          759 b        0 skpd     0.132 s (  0.174 ms/b)
Closing buffer AOJ ( 0.00 GB; CompressionRatio= 1.00)
Collecting buffer AOJ 
    ... done with AO integral generation
Number of MO pairs included in the trafo   ... 3916
    ... Now sorting integrals
IBATCH = 1 of  1
Closing buffer JAO ( 0.00 GB; CompressionRatio= 1.00)
Collecting buffer JAO 
TOTAL TIME for half transformation         ...     3.116 sec
AO-integral generation                     ...     2.275 sec
Half transformation                        ...     0.132 sec
J-integral sorting                         ...     0.661 sec

-------------------------- SECOND HALF TRANSFORMATION -------------------------
Formation of (pq|rs)                       ... ok (     0.762 sec)
Integral sorting                           ... ok (     0.779 sec)

------------------
CLOSED SHELL GUESS
------------------

Initial guess performed in     0.008 sec
E(0)                                       ...   -166.838764554
E(MP2)                                     ...     -0.775728182
Initial E(tot)                             ...   -167.614492736
<T|T>                                      ...      0.141406029
Number of pairs included                   ... 55
Total number of pairs                      ... 55

------------------------------------------------
                  RHF COUPLED CLUSTER ITERATIONS
------------------------------------------------

Number of amplitudes to be optimized       ... 335400

Iter       E(tot)           E(Corr)          Delta-E          Residual     Time
  0   -167.614492736     -0.775728182      0.000000000      0.027649372    0.12
                           *** Turning on DIIS ***
  1   -167.559742245     -0.720977691      0.054750491      0.007438956    1.04
  2   -167.575553909     -0.736789355     -0.015811664      0.005289332    1.05
  3   -167.577308121     -0.738543567     -0.001754211      0.002297131    1.05
  4   -167.578224915     -0.739460361     -0.000916794      0.000743740    1.05
  5   -167.578532447     -0.739767893     -0.000307532      0.000218033    1.05
  6   -167.578561792     -0.739797238     -0.000029345      0.000077231    1.05
  7   -167.578566373     -0.739801819     -0.000004581      0.000021025    1.06
  8   -167.578566170     -0.739801616      0.000000203      0.000003362    1.05
               --- The Coupled-Cluster iterations have converged ---

----------------------
COUPLED CLUSTER ENERGY
----------------------

E(0)                                       ...   -166.838764554
E(CORR)                                    ...     -0.739801616
E(TOT)                                     ...   -167.578566170
Singles Norm <S|S>**1/2                    ...      0.075896381  
T1 diagnostic                              ...      0.016970947  

------------------
LARGEST AMPLITUDES
------------------
   9-> 25  -1-> -1       0.051153
   9-> 14   9-> 14       0.045826
   9-> 15   9-> 15       0.045826
   9-> 16   9-> 16       0.045826
   9-> 13  -1-> -1       0.045557
   9-> 14   9-> 24       0.035699
   9-> 24   9-> 14       0.035699
   9-> 22   9-> 16       0.035581
   9-> 16   9-> 22       0.035581
   9-> 15   9-> 23       0.035079
   9-> 23   9-> 15       0.035079
   9-> 22   9-> 22       0.031363
   9-> 23   9-> 23       0.031363
   9-> 24   9-> 24       0.031363
   9-> 12   9-> 16       0.027051
   9-> 16   9-> 12       0.027051


        !!!!!!!!!!!!!!!!!!!!!!!!!!!!!!!!!!!!!!!!!!!!!!!!!!!!!!!!!!!!!!!!!!!!!!!!!! 
        !  Warning: Densities are linearized densities !                         !
        !!!!!!!!!!!!!!!!!!!!!!!!!!!!!!!!!!!!!!!!!!!!!!!!!!!!!!!!!!!!!!!!!!!!!!!!!! 

Trace of internal density part =     -0.283629676
Trace of external density part =      0.283629676
----------------------
RHF TRIPLES CORRECTION (Algorithm 1)
----------------------

Multiplier for the singles contribution    ...      1.000000000

10% done
20% done
30% done
40% done
50% done
60% done
70% done
80% done

Triples Correction (T)                     ...     -0.024908258
Scaling of triples based on CCSD energies (Peterson et al. Molecular Physics 113, 1551 (2015))
E(T*) = f*E(T) where f = E(F12-CCSD)/E(CCSD) 
f = CCSD (with F12)/ CCSD (without F12)    ...      1.000000000
Scaled triples correction (T)              ...     -0.024908258

Final correlation energy                   ...     -0.764709874
E(CCSD)                                    ...   -167.578566170
E(CCSD(T))                                 ...   -167.603474428

NORM  =      1.147575099 sqrt=     1.071249317
W(HF) =      0.871402666
------------------------------------------------------------------------------
                           ORCA POPULATION ANALYSIS
------------------------------------------------------------------------------
Input electron density              ... 48_Cd.mdcip
BaseName (.gbw .S,...)              ... 48_Cd

                    ********************************
                    * MULLIKEN POPULATION ANALYSIS *
                    ********************************

-----------------------
MULLIKEN ATOMIC CHARGES
-----------------------
   0 Cd:   -0.000000
Sum of atomic charges:   -0.0000000

--------------------------------
MULLIKEN REDUCED ORBITAL CHARGES
--------------------------------
  0 Cds       :     3.914720  s :     3.914720
      pz      :     2.026328  p :     6.078984
      px      :     2.026328
      py      :     2.026328
      dz2     :     1.980199  d :     9.900997
      dxz     :     1.980199
      dyz     :     1.980199
      dx2y2   :     1.980199
      dxy     :     1.980199
      f0      :     0.013499  f :     0.094495
      f+1     :     0.013499
      f-1     :     0.013499
      f+2     :     0.013499
      f-2     :     0.013499
      f+3     :     0.013499
      f-3     :     0.013499
      g0      :     0.001200  g :     0.010804
      g+1     :     0.001200
      g-1     :     0.001200
      g+2     :     0.001200
      g-2     :     0.001200
      g+3     :     0.001200
      g-3     :     0.001200
      g+4     :     0.001200
      g-4     :     0.001200


                     *******************************
                     * LOEWDIN POPULATION ANALYSIS *
                     *******************************

----------------------
LOEWDIN ATOMIC CHARGES
----------------------
   0 Cd:   -0.000000

-------------------------------
LOEWDIN REDUCED ORBITAL CHARGES
-------------------------------
  0 Cds       :     3.914720  s :     3.914720
      pz      :     2.026328  p :     6.078984
      px      :     2.026328
      py      :     2.026328
      dz2     :     1.980199  d :     9.900997
      dxz     :     1.980199
      dyz     :     1.980199
      dx2y2   :     1.980199
      dxy     :     1.980199
      f0      :     0.013499  f :     0.094495
      f+1     :     0.013499
      f-1     :     0.013499
      f+2     :     0.013499
      f-2     :     0.013499
      f+3     :     0.013499
      f-3     :     0.013499
      g0      :     0.001200  g :     0.010804
      g+1     :     0.001200
      g-1     :     0.001200
      g+2     :     0.001200
      g-2     :     0.001200
      g+3     :     0.001200
      g-3     :     0.001200
      g+4     :     0.001200
      g-4     :     0.001200


                      *****************************
                      * MAYER POPULATION ANALYSIS *
                      *****************************

  NA   - Mulliken gross atomic population
  ZA   - Total nuclear charge
  QA   - Mulliken gross atomic charge
  VA   - Mayer's total valence
  BVA  - Mayer's bonded valence
  FA   - Mayer's free valence

  ATOM       NA         ZA         QA         VA         BVA        FA
  0 Cd    20.0000    20.0000    -0.0000     1.0698     0.0000     1.0698





------------------------------------------------------------------------------- 
                                     TIMINGS                                   
------------------------------------------------------------------------------- 


Total execution time                   ...       14.886 sec

Fock Matrix Formation                  ...        0.970 sec (  6.5%)
Initial Guess                          ...        0.008 sec (  0.1%)
DIIS Solver                            ...        0.165 sec (  1.1%)
State Vector Update                    ...        0.008 sec (  0.1%)
Sigma-vector construction              ...        8.350 sec ( 56.1%)
  <D|H|D>(0-ext)                       ...        0.020 sec (  0.2% of sigma)
  <D|H|D>(2-ext Fock)                  ...        0.001 sec (  0.0% of sigma)
  <D|H|D>(2-ext)                       ...        0.043 sec (  0.5% of sigma)
  <D|H|D>(4-ext)                       ...        0.181 sec (  2.2% of sigma)
  <D|H|D>(4-ext-corr)                  ...        0.138 sec (  1.6% of sigma)
  <S|H|0>                              ...        0.003 sec (  0.0% of sigma)
  <S|H|S>                              ...        0.003 sec (  0.0% of sigma)
  <S|H|D>(1-ext)                       ...        0.010 sec (  0.1% of sigma)
  <D|H|S>(1-ext)                       ...        0.011 sec (  0.1% of sigma)
  <S|H|D>(3-ext)                       ...        0.145 sec (  1.7% of sigma)
  Fock-dressing                        ...        7.326 sec ( 87.7% of sigma)
  (ik|jl)-dressing                     ...        0.025 sec (  0.3% of sigma)
  (ij|ab),(ia|jb)-dressing             ...        0.356 sec (  4.3% of sigma)
  Pair energies                        ...        0.001 sec (  0.0% of sigma)
Total Time for computing (T)           ...        0.289 sec (  1.9% of ALL)
  I/O of integral and amplitudes       ...        0.099 sec ( 34.1% of (T))
  N**6 sorting step                    ...        0.062 sec ( 21.3% of (T))
  External N**7 contributions          ...        0.072 sec ( 24.9% of (T))
  Internal N**7 contributions          ...        0.028 sec (  9.8% of (T))
  N**6 triples energy contributions    ...        0.028 sec (  9.8% of (T))
One-particle density matrix            ...        0.001 sec (  0.0%)


-------------------------   --------------------
FINAL SINGLE POINT ENERGY      -167.603474427973
-------------------------   --------------------


                            ***************************************
                            *     ORCA property calculations      *
                            ***************************************

                                    ---------------------
                                    Active property flags
                                    ---------------------
   (+) Dipole Moment


------------------------------------------------------------------------------
                       ORCA ELECTRIC PROPERTIES CALCULATION
------------------------------------------------------------------------------

Dipole Moment Calculation                       ... on
Quadrupole Moment Calculation                   ... off
Polarizability Calculation                      ... off
GBWName                                         ... 48_Cd.gbw
Electron density file                           ... 48_Cd.scfp
The origin for moment calculation is the CENTER OF MASS  = ( 0.000000,  0.000000  0.000000)

-------------
DIPOLE MOMENT
-------------
                                X             Y             Z
Electronic contribution:     -0.00000       0.00000      -0.00000
Nuclear contribution   :      0.00000       0.00000       0.00000
                        -----------------------------------------
Total Dipole Moment    :     -0.00000       0.00000      -0.00000
                        -----------------------------------------
Magnitude (a.u.)       :      0.00000
Magnitude (Debye)      :      0.00000



--------------------
Rotational spectrum 
--------------------
 
Rotational constants in cm-1:     0.000000     0.000000     0.000000 
Rotational constants in MHz :     0.000000     0.000000     0.000000 

 Dipole components along the rotational axes: 
x,y,z [a.u.] :    -0.000000     0.000000    -0.000000 
x,y,z [Debye]:    -0.000000     0.000000    -0.000000 

 

                           *** MDCI DENSITY ***

------------------------------------------------------------------------------
                       ORCA ELECTRIC PROPERTIES CALCULATION
------------------------------------------------------------------------------

Dipole Moment Calculation                       ... on
Quadrupole Moment Calculation                   ... off
Polarizability Calculation                      ... off
GBWName                                         ... 48_Cd.gbw
Electron density file                           ... 48_Cd.mdcip
The origin for moment calculation is the CENTER OF MASS  = ( 0.000000,  0.000000  0.000000)

-------------
DIPOLE MOMENT
-------------
                                X             Y             Z
Electronic contribution:      0.00000       0.00000      -0.00000
Nuclear contribution   :      0.00000       0.00000       0.00000
                        -----------------------------------------
Total Dipole Moment    :      0.00000       0.00000      -0.00000
                        -----------------------------------------
Magnitude (a.u.)       :      0.00000
Magnitude (Debye)      :      0.00000



--------------------
Rotational spectrum 
--------------------
 
Rotational constants in cm-1:     0.000000     0.000000     0.000000 
Rotational constants in MHz :     0.000000     0.000000     0.000000 

 Dipole components along the rotational axes: 
x,y,z [a.u.] :     0.000000     0.000000    -0.000000 
x,y,z [Debye]:     0.000000     0.000000    -0.000000 

 

Timings for individual modules:

Sum of individual times         ...       29.934 sec (=   0.499 min)
GTO integral calculation        ...        1.107 sec (=   0.018 min)   3.7 %
SCF iterations                  ...       13.476 sec (=   0.225 min)  45.0 %
MDCI module                     ...       15.350 sec (=   0.256 min)  51.3 %
                             ****ORCA TERMINATED NORMALLY****
TOTAL RUN TIME: 0 days 0 hours 0 minutes 30 seconds 703 msec
