
                                 *****************
                                 * O   R   C   A *
                                 *****************

           --- An Ab Initio, DFT and Semiempirical electronic structure package ---

                  #######################################################
                  #                        -***-                        #
                  #          Department of theory and spectroscopy      #
                  #               Directorship: Frank Neese             #
                  #        Max Planck Institute fuer Kohlenforschung    #
                  #                Kaiser Wilhelm Platz 1               #
                  #                 D-45470 Muelheim/Ruhr               #
                  #                      Germany                        #
                  #                                                     #
                  #                  All rights reserved                #
                  #                        -***-                        #
                  #######################################################


                         Program Version 4.2.0 -  RELEASE  -


 With contributions from (in alphabetic order):
   Daniel Aravena         : Magnetic Suceptibility
   Michael Atanasov       : Ab Initio Ligand Field Theory (pilot matlab implementation)
   Alexander A. Auer      : GIAO ZORA, VPT2
   Ute Becker             : Parallelization
   Giovanni Bistoni       : ED, misc. LED, open-shell LED, HFLED
   Martin Brehm           : Molecular dynamics
   Dmytro Bykov           : SCF Hessian
   Vijay G. Chilkuri      : MRCI spin determinant printing, contributions to CSF-ICE
   Dipayan Datta          : RHF DLPNO-CCSD density
   Achintya Kumar Dutta   : EOM-CC, STEOM-CC
   Dmitry Ganyushin       : Spin-Orbit,Spin-Spin,Magnetic field MRCI
   Miquel Garcia          : C-PCM Hessian, Gaussian charge scheme
   Yang Guo               : DLPNO-NEVPT2, CIM, IAO-localization
   Andreas Hansen         : Spin unrestricted coupled pair/coupled cluster methods
   Benjamin Helmich-Paris : CASSCF linear response (MC-RPA)
   Lee Huntington         : MR-EOM, pCC
   Robert Izsak           : Overlap fitted RIJCOSX, COSX-SCS-MP3, EOM
   Christian Kollmar      : KDIIS, OOCD, Brueckner-CCSD(T), CCSD density
   Simone Kossmann        : Meta GGA functionals, TD-DFT gradient, OOMP2, MP2 Hessian
   Martin Krupicka        : AUTO-CI
   Lucas Lang             : DCDCAS
   Dagmar Lenk            : GEPOL surface, SMD
   Dimitrios Liakos       : Extrapolation schemes; Compound Job, initial MDCI parallelization
   Dimitrios Manganas     : Further ROCIS development; embedding schemes
   Dimitrios Pantazis     : SARC Basis sets
   Taras Petrenko         : DFT Hessian,TD-DFT gradient, ASA, ECA, R-Raman, ABS, FL, XAS/XES, NRVS
   Peter Pinski           : DLPNO-MP2, DLPNO-MP2 Gradient
   Christoph Reimann      : Effective Core Potentials
   Marius Retegan         : Local ZFS, SOC
   Christoph Riplinger    : Optimizer, TS searches, QM/MM, DLPNO-CCSD(T), (RO)-DLPNO pert. Triples
   Tobias Risthaus        : Range-separated hybrids, TD-DFT gradient, RPA, STAB
   Michael Roemelt        : Original ROCIS implementation
   Masaaki Saitow         : Open-shell DLPNO-CCSD energy and density
   Barbara Sandhoefer     : DKH picture change effects
   Avijit Sen             : IP-ROCIS
   Kantharuban Sivalingam : CASSCF convergence, NEVPT2, FIC-MRCI
   Bernardo de Souza      : ESD, SOC TD-DFT
   Georgi Stoychev        : AutoAux, RI-MP2 NMR
   Willem Van den Heuvel  : Paramagnetic NMR
   Boris Wezisla          : Elementary symmetry handling
   Frank Wennmohs         : Technical directorship


 We gratefully acknowledge several colleagues who have allowed us to
 interface, adapt or use parts of their codes:
   Stefan Grimme, W. Hujo, H. Kruse,             : VdW corrections, initial TS optimization,
                  C. Bannwarth                     DFT functionals, gCP, sTDA/sTD-DF
   Ed Valeev, F. Pavosevic, A. Kumar             : LibInt (2-el integral package), F12 methods
   Garnet Chan, S. Sharma, J. Yang, R. Olivares  : DMRG
   Ulf Ekstrom                                   : XCFun DFT Library
   Mihaly Kallay                                 : mrcc  (arbitrary order and MRCC methods)
   Andreas Klamt, Michael Diedenhofen            : otool_cosmo (COSMO solvation model)
   Jiri Pittner, Ondrej Demel                    : Mk-CCSD
   Frank Weinhold                                : gennbo (NPA and NBO analysis)
   Christopher J. Cramer and Donald G. Truhlar   : smd solvation model
   Lars Goerigk                                  : TD-DFT with DH, B97 family of functionals
   V. Asgeirsson, H. Jonsson                     : NEB implementation
   FAccTs GmbH                                   : IRC, NEB, NEB-TS, Multilevel, MM, QM/MM, CI optimization
   S Lehtola, MJT Oliveira, MAL Marques          : LibXC Library


 Your calculation uses the libint2 library for the computation of 2-el integrals
 For citations please refer to: http://libint.valeyev.net

 Your ORCA version has been built with support for libXC version: 4.2.3
 For citations please refer to: https://tddft.org/programs/libxc/

 This ORCA versions uses:
   CBLAS   interface :  Fast vector & matrix operations
   LAPACKE interface :  Fast linear algebra routines
   SCALAPACK package :  Parallel linear algebra routines


----- Orbital basis set information -----
Your calculation utilizes the basis: aug-cc-pVTZ-PP 
       Ca, Sr, Ba, Ra : Obtained from the Peterson Research Group Website (tyr0.chem.wsu.edu/~kipeters) Feb. 2017
                        H. Li, H. Feng, W. Sun, Y. Zhang, Q. Fan, K. A. Peterson, Y. Xie, H. F. Schaefer III, Mol. Phys. 111, 2292 (2013)
  Cu-Zn, Ag-Cd, Au-Hg : Obtained from the ccRepo (grant-hill.group.shef.ac.uk/ccrepo) Feb. 2017
                        K. A. Peterson, C. Puzzarini, Theor. Chem. Acc. 114, 283 (2005)
  Ga-Kr, In-Xe, Tl-Rn : Obtained from the ccRepo (grant-hill.group.shef.ac.uk/ccrepo) Feb. 2017
                        K. A. Peterson, J. Chem. Phys. 119, 11099 (2003)
                        K. A. Peterson, D. Figgen, E. Goll, H. Stoll, M. Dolg, J. Chem. Phys. 119, 11113 (2003)
                 Y-Pd : Obtained from the ccRepo (grant-hill.group.shef.ac.uk/ccrepo) Feb. 2017
                        K. A. Peterson, D. Figgen, M. Dolg, H. Stoll, J. Chem. Phys. 126, 124101 (2007)
                Hf-Pt : Obtained from the ccRepo (grant-hill.group.shef.ac.uk/ccrepo) Feb. 2017
                        D. Figgen, K. A. Peterson, M. Dolg, H. Stoll, J. Chem. Phys. 130, 164108 (2009)

cite the ECPs for Sn [SK MCDHF RSC] as follows:
O: B. Metz and H. Stoll, private communication (KAP)
Tl: B. Metz, M. Schweizer, H. Stoll, M. Dolg, W. Liu, Theor. Chem. Acc. 104, 22 (2000)
Ga-As, In-Sb, Pb-Bi: B. Metz, H. Stoll, M. Dolg, J. Chem. Phys. 113, 2563 (2000)
Se-Kr, Te-Xe, Po-Rn: K.A. Peterson, D. Figgen, E. Goll, H. Stoll, and M. Dolg, J. Chem. Phys., in press (2003)
Cu-Zn, Ag-Cd, Au-Hg: D. Figgen, G. Rauhut, M. Dolg, and H. Stoll, Chem. Phys. 311, 227 (2005)
Y-Pd: K.A. Peterson, D. Figgen, M. Dolg, H. Stoll, J. Chem. Phys. 126, 124101 (2007)
I: K. A. Peterson, B. C. Shepler, D. Figgen, H. Stoll, J. Phys. Chem. A 110, 13877 (2006)
Hf-Pt: D. Figgen, K.A. Peterson, M. Dolg, H. Stoll, J. Chem. Phys. 130, 164108 (2009)
Ca, Sr, Ba, Ra: I.S. Lim, H. Stoll, P. Schwerdtfeger, J. Chem. Phys. 124, 034107 (2006)

ECP parameters for Sn [SK MCDHF RSC] have been obtained from:
cc-pVDZ-PP  EMSL  Basis Set Exchange Library   4/7/16 5:27 AM
Ca, Sr, Ba, Ra: http://www.tc.uni-koeln.de/PP/index.en.html 3/16/17 1:54 PM

================================================================================
                                        WARNINGS
                       Please study these warnings very carefully!
================================================================================


WARNING: your system is open-shell and RHF/RKS was chosen
  ===> : WILL SWITCH to UHF/UKS


WARNING: MDCI localization with Augmented Hessian Foster-Boys
  ===> : Switching off randomization!

WARNING: Post HF methods need fully converged wavefunctions
  ===> : Setting SCFConvForced true
         You can overwrite this default with %scf ConvForced false 


INFO   : the flag for use of LIBINT has been found!

================================================================================
                                       INPUT FILE
================================================================================
NAME = 50_Sn.in
|  1> #
|  2> # 50_Sn CCSD(T)/aug-cc-pVTZ-PP
|  3> #
|  4> ! CCSD(T) aug-cc-pVTZ-PP tightscf
|  5> 
|  6> *xyz 0 3
|  7>  Sn 0.0 0.0 0.0
|  8> *
|  9> 
| 10> %maxcore 5000 
| 11> 
| 12> %pal
| 13> nprocs 24
| 14> end
| 15> 
| 16> 
| 17>                          ****END OF INPUT****
================================================================================

                       ****************************
                       * Single Point Calculation *
                       ****************************

---------------------------------
CARTESIAN COORDINATES (ANGSTROEM)
---------------------------------
  Sn     0.000000    0.000000    0.000000

----------------------------
CARTESIAN COORDINATES (A.U.)
----------------------------
  NO LB      ZA    FRAG     MASS         X           Y           Z
   0 Sn   22.0000*   0   118.690    0.000000    0.000000    0.000000
* core charge reduced due to ECP

--------------------------------
INTERNAL COORDINATES (ANGSTROEM)
--------------------------------
 Sn     0   0   0     0.000000000000     0.00000000     0.00000000

---------------------------
INTERNAL COORDINATES (A.U.)
---------------------------
 Sn     0   0   0     0.000000000000     0.00000000     0.00000000

---------------------
BASIS SET INFORMATION
---------------------
There are 1 groups of distinct atoms

 Group   1 Type Sn  : 22s21p10d2f contracted to 6s5p4d2f pattern {991111/99111/7111/11}

Atom   0Sn   basis set group =>   1
-------------------------
ECP PARAMETER INFORMATION
-------------------------

 Group 1, Type Sn ECP SK MCDHF RSC (replacing 28 core electrons, lmax=4)

Atom   0Sn   ECP group =>   1



           ************************************************************
           *        Program running with 24 parallel MPI-processes    *
           *              working on a common directory               *
           ************************************************************
------------------------------------------------------------------------------
                           ORCA GTO INTEGRAL CALCULATION
------------------------------------------------------------------------------

                         BASIS SET STATISTICS AND STARTUP INFO

 # of primitive gaussian shells          ...   55
 # of primitive gaussian functions       ...  149
 # of contracted shells                  ...   17
 # of contracted basis functions         ...   55
 Highest angular momentum                ...    3
 Maximum contraction depth               ...    9
 Integral package used                   ... LIBINT
 Integral threshhold            Thresh   ...  2.500e-11
 Primitive cut-off              TCut     ...  2.500e-12


------------------------------ INTEGRAL EVALUATION ----------------------------


 * One electron integrals 

   ECP integrals                         ... done
 Pre-screening matrix                    ... done
 Shell pair data                         ... done (   0.000 sec)



           ************************************************************
           *        Program running with 24 parallel MPI-processes    *
           *              working on a common directory               *
           ************************************************************
-------------------------------------------------------------------------------
                                 ORCA SCF
-------------------------------------------------------------------------------

------------
SCF SETTINGS
------------
Hamiltonian:
 Ab initio Hamiltonian  Method          .... Hartree-Fock(GTOs)


General Settings:
 Integral files         IntName         .... 50_Sn
 Hartree-Fock type      HFTyp           .... UHF
 Total Charge           Charge          ....    0
 Multiplicity           Mult            ....    3
 Number of Electrons    NEL             ....   22
 Basis Dimension        Dim             ....   55
 Nuclear Repulsion      ENuc            ....      0.0000000000 Eh

Convergence Acceleration:
 DIIS                   CNVDIIS         .... on
   Start iteration      DIISMaxIt       ....    12
   Startup error        DIISStart       ....  0.200000
   # of expansion vecs  DIISMaxEq       ....     5
   Bias factor          DIISBfac        ....   1.050
   Max. coefficient     DIISMaxC        ....  10.000
 Newton-Raphson         CNVNR           .... off
 SOSCF                  CNVSOSCF        .... off
 Level Shifting         CNVShift        .... on
   Level shift para.    LevelShift      ....    0.2500
   Turn off err/grad.   ShiftErr        ....    0.0010
 Zerner damping         CNVZerner       .... off
 Static damping         CNVDamp         .... on
   Fraction old density DampFac         ....    0.7000
   Max. Damping (<1)    DampMax         ....    0.9800
   Min. Damping (>=0)   DampMin         ....    0.0000
   Turn off err/grad.   DampErr         ....    0.1000
 Fernandez-Rico         CNVRico         .... off

SCF Procedure:
 Maximum # iterations   MaxIter         ....   125
 SCF integral mode      SCFMode         .... Direct
   Integral package                     .... LIBINT
 Reset frequency        DirectResetFreq ....    20
 Integral Threshold     Thresh          ....  2.500e-11 Eh
 Primitive CutOff       TCut            ....  2.500e-12 Eh

Convergence Tolerance:
 Convergence Check Mode ConvCheckMode   .... Total+1el-Energy
 Convergence forced     ConvForced      .... 1
 Energy Change          TolE            ....  1.000e-08 Eh
 1-El. energy change                    ....  1.000e-05 Eh
 DIIS Error             TolErr          ....  5.000e-07


Diagonalization of the overlap matrix:
Smallest eigenvalue                        ... 3.219e-03
Time for diagonalization                   ...    0.002 sec
Threshold for overlap eigenvalues          ... 1.000e-08
Number of eigenvalues below threshold      ... 0
Time for construction of square roots      ...    0.111 sec
Total time needed                          ...    0.113 sec

-------------------
DFT GRID GENERATION
-------------------

General Integration Accuracy     IntAcc      ...  4.340
Radial Grid Type                 RadialGrid  ... Gauss-Chebyshev
Angular Grid (max. acc.)         AngularGrid ... Lebedev-110
Angular grid pruning method      GridPruning ... 3 (G Style)
Weight generation scheme         WeightScheme... Becke
Basis function cutoff            BFCut       ...    1.0000e-11
Integration weight cutoff        WCut        ...    1.0000e-14
Grids for H and He will be reduced by one unit

# of grid points (after initial pruning)     ...   3304 (   0.0 sec)
# of grid points (after weights+screening)   ...   3304 (   0.0 sec)
Grid point division into batches done        ...    0.0 sec
Reduced shell lists constructed in    0.0 sec

Total number of grid points                  ...     3304
Total number of batches                      ...       52
Average number of points per batch           ...       63
Average number of grid points per atom       ...     3304
Average number of shells per batch           ...    12.00 (70.59%)
Average number of basis functions per batch  ...    37.50 (68.18%)
Average number of large shells per batch     ...     9.00 (75.00%)
Average number of large basis fcns per batch ...    28.50 (76.00%)
Maximum spatial batch extension              ...  19.89, 29.99, 29.99 au
Average spatial batch extension              ...   1.08,  1.54,  1.73 au

Time for grid setup =    0.067 sec

------------------------------
INITIAL GUESS: MODEL POTENTIAL
------------------------------
Loading Hartree-Fock densities                     ... done
  calling /sw/apps/orca/orca_4_2_0_linux_x86-64_openmpi314/orca 50_Sn_atom50.inp > 50_Sn_atom50.out in order to generate an atomic fitting density for atom 0 (Sn with ECP) on-the-fly... 
    atom 0 (Sn), assumed electronic state with S=3: 1s2 2s2 2p6 3s2 3p6 4s2 3d10 4p6 5s2 4d10 5p2           ... done
Calculating cut-offs                               ... done
Setting up the integral package                    ... done
Initializing the effective Hamiltonian             ... done
Starting the Coulomb interaction                   ... done (   0.0 sec)
Reading the grid                                   ... done
Mapping shells                                     ... done
Starting the XC term evaluation                    ... done (   0.0 sec)
Transforming the Hamiltonian                       ... done (   0.0 sec)
Diagonalizing the Hamiltonian                      ... done (   0.0 sec)
Back transforming the eigenvectors                 ... done (   0.0 sec)
Now organizing SCF variables                       ... done
                      ------------------
                      INITIAL GUESS DONE (   1.6 sec)
                      ------------------
--------------
SCF ITERATIONS
--------------
ITER       Energy         Delta-E        Max-DP      RMS-DP      [F,P]     Damp
               ***  Starting incremental Fock matrix formation  ***
  0   -209.4096866118   0.000000000000 2.52830613  0.08927111  0.9541626 0.7000
  1   -210.6783538052  -1.268667193383 1.81516449  0.06282688  0.6404096 0.7000
  2   -211.4932427736  -0.814888968352 1.25701112  0.04390758  0.4055478 0.7000
  3   -212.0416337405  -0.548390966967 0.87047612  0.03064095  0.2572600 0.7000
                               ***Turning on DIIS***
  4   -212.4238761608  -0.382242420261 0.61012079  0.02140416  0.1653947 0.7000
  5   -213.4078498003  -0.983973639546 0.43489823  0.01496883  0.1079288 0.7000
  6   -213.4964177064  -0.088567906069 1.04434326  0.03503303  0.0753641 0.0000
  7   -213.3295156725   0.166902033892 0.03411753  0.00106725  0.0061965 0.0000
  8   -213.3411506048  -0.011634932270 0.01581617  0.00055019  0.0020288 0.0000
  9   -213.3411955956  -0.000044990818 0.01136391  0.00044005  0.0009540 0.0000
 10   -213.3404457472   0.000749848431 0.00370806  0.00014733  0.0002066 0.0000
 11   -213.3403423233   0.000103423846 0.00040219  0.00001681  0.0000426 0.0000
 12   -213.3403320917   0.000010231622 0.00011858  0.00000422  0.0000114 0.0000
 13   -213.3402823570   0.000049734759 0.00003097  0.00000073  0.0000020 0.0000
                            ***DIIS convergence achieved***

               *****************************************************
               *                     SUCCESS                       *
               *           SCF CONVERGED AFTER  14 CYCLES          *
               *****************************************************


----------------
TOTAL SCF ENERGY
----------------

Total Energy       :         -213.34027585 Eh           -5805.28404 eV

Components:
Nuclear Repulsion  :            0.00000000 Eh               0.00000 eV
Electronic Energy  :         -213.34027585 Eh           -5805.28404 eV
One Electron Energy:         -376.09058536 Eh          -10233.94511 eV
Two Electron Energy:          162.75030951 Eh            4428.66107 eV

Virial components:
Potential Energy   :         -295.92502561 Eh           -8052.52933 eV
Kinetic Energy     :           82.58474976 Eh            2247.24529 eV
Virial Ratio       :            3.58328900


---------------
SCF CONVERGENCE
---------------

  Last Energy change         ...    6.5021e-06  Tolerance :   1.0000e-08
  Last MAX-Density change    ...    1.0021e-05  Tolerance :   1.0000e-07
  Last RMS-Density change    ...    2.3236e-07  Tolerance :   5.0000e-09
  Last DIIS Error            ...    3.7961e-07  Tolerance :   5.0000e-07

             **** THE GBW FILE WAS UPDATED (50_Sn.gbw) ****
             **** DENSITY FILE WAS UPDATED (50_Sn.scfp) ****
             **** ENERGY FILE WAS UPDATED (50_Sn.en.tmp) ****
----------------------
UHF SPIN CONTAMINATION
----------------------

Expectation value of <S**2>     :     2.012009
Ideal value S*(S+1) for S=1.0   :     2.000000
Deviation                       :     0.012009

             **** THE GBW FILE WAS UPDATED (50_Sn.gbw) ****
             **** DENSITY FILE WAS UPDATED (50_Sn.scfp) ****
----------------
ORBITAL ENERGIES
----------------
                 SPIN UP ORBITALS
  NO   OCC          E(Eh)            E(eV) 
   0   1.0000      -5.859862      -159.4550 
   1   1.0000      -4.048668      -110.1699 
   2   1.0000      -4.044356      -110.0525 
   3   1.0000      -4.044356      -110.0525 
   4   1.0000      -1.315719       -35.8025 
   5   1.0000      -1.312662       -35.7193 
   6   1.0000      -1.312662       -35.7193 
   7   1.0000      -1.303901       -35.4810 
   8   1.0000      -1.303901       -35.4810 
   9   1.0000      -0.573904       -15.6167 
  10   1.0000      -0.266844        -7.2612 
  11   1.0000      -0.266844        -7.2612 
  12   0.0000      -0.018330        -0.4988 
  13   0.0000       0.044666         1.2154 
  14   0.0000       0.058607         1.5948 
  15   0.0000       0.058607         1.5948 
  16   0.0000       0.065082         1.7710 
  17   0.0000       0.114802         3.1239 
  18   0.0000       0.114802         3.1239 
  19   0.0000       0.115646         3.1469 
  20   0.0000       0.115646         3.1469 
  21   0.0000       0.116197         3.1619 
  22   0.0000       0.256045         6.9673 
  23   0.0000       0.320042         8.7088 
  24   0.0000       0.320042         8.7088 
  25   0.0000       0.331103         9.0098 
  26   0.0000       0.355653         9.6778 
  27   0.0000       0.355653         9.6778 
  28   0.0000       0.363814         9.8999 
  29   0.0000       0.363814         9.8999 
  30   0.0000       0.367277         9.9941 
  31   0.0000       0.409054        11.1309 
  32   0.0000       0.409929        11.1547 
  33   0.0000       0.409929        11.1547 
  34   0.0000       0.412819        11.2334 
  35   0.0000       0.412819        11.2334 
  36   0.0000       0.417825        11.3696 
  37   0.0000       0.417825        11.3696 
  38   0.0000       0.944423        25.6991 
  39   0.0000       1.090262        29.6675 
  40   0.0000       1.091795        29.7092 
  41   0.0000       1.091795        29.7092 
  42   0.0000       1.096366        29.8336 
  43   0.0000       1.096366        29.8336 
  44   0.0000       1.103869        30.0378 
  45   0.0000       1.103869        30.0378 
  46   0.0000       1.187391        32.3106 
  47   0.0000       1.188325        32.3360 
  48   0.0000       1.188325        32.3360 
  49   0.0000       1.191494        32.4222 
  50   0.0000       1.191494        32.4222 
  51   0.0000       1.458269        39.6815 
  52   0.0000       1.463633        39.8275 
  53   0.0000       1.463633        39.8275 
  54   0.0000      54.338865      1478.6357 

                 SPIN DOWN ORBITALS
  NO   OCC          E(Eh)            E(eV) 
   0   1.0000      -5.854429      -159.3071 
   1   1.0000      -4.050717      -110.2256 
   2   1.0000      -4.034851      -109.7939 
   3   1.0000      -4.034851      -109.7939 
   4   1.0000      -1.313208       -35.7342 
   5   1.0000      -1.308436       -35.6043 
   6   1.0000      -1.308436       -35.6043 
   7   1.0000      -1.294684       -35.2302 
   8   1.0000      -1.294684       -35.2302 
   9   1.0000      -0.441977       -12.0268 
  10   0.0000       0.000287         0.0078 
  11   0.0000       0.027233         0.7410 
  12   0.0000       0.027233         0.7410 
  13   0.0000       0.051464         1.4004 
  14   0.0000       0.070599         1.9211 
  15   0.0000       0.090793         2.4706 
  16   0.0000       0.090793         2.4706 
  17   0.0000       0.124540         3.3889 
  18   0.0000       0.127109         3.4588 
  19   0.0000       0.127109         3.4588 
  20   0.0000       0.136302         3.7090 
  21   0.0000       0.136302         3.7090 
  22   0.0000       0.275167         7.4877 
  23   0.0000       0.339394         9.2354 
  24   0.0000       0.366764         9.9802 
  25   0.0000       0.366764         9.9802 
  26   0.0000       0.394450        10.7335 
  27   0.0000       0.401160        10.9161 
  28   0.0000       0.401160        10.9161 
  29   0.0000       0.423405        11.5214 
  30   0.0000       0.424803        11.5595 
  31   0.0000       0.424803        11.5595 
  32   0.0000       0.426091        11.5945 
  33   0.0000       0.426091        11.5945 
  34   0.0000       0.434268        11.8170 
  35   0.0000       0.434268        11.8170 
  36   0.0000       0.449103        12.2207 
  37   0.0000       0.449103        12.2207 
  38   0.0000       0.966103        26.2890 
  39   0.0000       1.112214        30.2649 
  40   0.0000       1.116527        30.3823 
  41   0.0000       1.116527        30.3823 
  42   0.0000       1.129708        30.7409 
  43   0.0000       1.129708        30.7409 
  44   0.0000       1.152984        31.3743 
  45   0.0000       1.152984        31.3743 
  46   0.0000       1.206759        32.8376 
  47   0.0000       1.214531        33.0491 
  48   0.0000       1.214531        33.0491 
  49   0.0000       1.240297        33.7502 
  50   0.0000       1.240297        33.7502 
  51   0.0000       1.465462        39.8772 
  52   0.0000       1.497153        40.7396 
  53   0.0000       1.497153        40.7396 
  54   0.0000      54.340124      1478.6700 

                    ********************************
                    * MULLIKEN POPULATION ANALYSIS *
                    ********************************

--------------------------------------------
MULLIKEN ATOMIC CHARGES AND SPIN POPULATIONS
--------------------------------------------
   0 Sn:   -0.000000    2.000000
Sum of atomic charges         :   -0.0000000
Sum of atomic spin populations:    2.0000000

-----------------------------------------------------
MULLIKEN REDUCED ORBITAL CHARGES AND SPIN POPULATIONS
-----------------------------------------------------
CHARGE
  0 Sns       :     3.994868  s :     3.994868
      pz      :     2.015905  p :     7.999947
      px      :     2.999973
      py      :     2.984070
      dz2     :     2.004890  d :    10.005132
      dxz     :     2.000000
      dyz     :     2.000241
      dx2y2   :     2.000001
      dxy     :     2.000000
      f0      :     0.000003  f :     0.000053
      f+1     :     0.000025
      f-1     :     0.000023
      f+2     :     0.000001
      f-2     :     0.000001
      f+3     :     0.000000
      f-3     :     0.000000

SPIN
  0 Sns       :    -0.000634  s :    -0.000634
      pz      :     0.015907  p :     1.999952
      px      :     0.999974
      py      :     0.984071
      dz2     :     0.000604  d :     0.000634
      dxz     :     0.000000
      dyz     :     0.000030
      dx2y2   :     0.000000
      dxy     :     0.000000
      f0      :     0.000001  f :     0.000048
      f+1     :     0.000024
      f-1     :     0.000021
      f+2     :     0.000001
      f-2     :     0.000001
      f+3     :     0.000000
      f-3     :     0.000000


                     *******************************
                     * LOEWDIN POPULATION ANALYSIS *
                     *******************************

-------------------------------------------
LOEWDIN ATOMIC CHARGES AND SPIN POPULATIONS
-------------------------------------------
   0 Sn:   -0.000000    2.000000

----------------------------------------------------
LOEWDIN REDUCED ORBITAL CHARGES AND SPIN POPULATIONS
----------------------------------------------------
CHARGE
  0 Sns       :     3.994868  s :     3.994868
      pz      :     2.015905  p :     7.999947
      px      :     2.999973
      py      :     2.984070
      dz2     :     2.004890  d :    10.005132
      dxz     :     2.000000
      dyz     :     2.000241
      dx2y2   :     2.000001
      dxy     :     2.000000
      f0      :     0.000003  f :     0.000053
      f+1     :     0.000025
      f-1     :     0.000023
      f+2     :     0.000001
      f-2     :     0.000001
      f+3     :     0.000000
      f-3     :     0.000000

SPIN
  0 Sns       :    -0.000634  s :    -0.000634
      pz      :     0.015907  p :     1.999952
      px      :     0.999974
      py      :     0.984071
      dz2     :     0.000604  d :     0.000634
      dxz     :     0.000000
      dyz     :     0.000030
      dx2y2   :     0.000000
      dxy     :     0.000000
      f0      :     0.000001  f :     0.000048
      f+1     :     0.000024
      f-1     :     0.000021
      f+2     :     0.000001
      f-2     :     0.000001
      f+3     :     0.000000
      f-3     :     0.000000


                      *****************************
                      * MAYER POPULATION ANALYSIS *
                      *****************************

  NA   - Mulliken gross atomic population
  ZA   - Total nuclear charge
  QA   - Mulliken gross atomic charge
  VA   - Mayer's total valence
  BVA  - Mayer's bonded valence
  FA   - Mayer's free valence

  ATOM       NA         ZA         QA         VA         BVA        FA
  0 Sn    22.0000    22.0000    -0.0000     2.0240     0.0000     2.0240

  Mayer bond orders larger than 0.100000


-------
TIMINGS
-------

Total SCF time: 0 days 0 hours 0 min 5 sec 

Total time                  ....       5.217 sec
Sum of individual times     ....       4.626 sec  ( 88.7%)

Fock matrix formation       ....       2.675 sec  ( 51.3%)
Diagonalization             ....       0.063 sec  (  1.2%)
Density matrix formation    ....       0.006 sec  (  0.1%)
Population analysis         ....       0.177 sec  (  3.4%)
Initial guess               ....       1.488 sec  ( 28.5%)
Orbital Transformation      ....       0.000 sec  (  0.0%)
Orbital Orthonormalization  ....       0.000 sec  (  0.0%)
DIIS solution               ....       0.149 sec  (  2.9%)


           ************************************************************
           *        Program running with 24 parallel MPI-processes    *
           *              working on a common directory               *
           ************************************************************


------------------------------------------------------------------------------- 
                              ORCA-MATRIX DRIVEN CI                            
------------------------------------------------------------------------------- 

--------------------------------
AUTOMATIC CHOICE OF INCORE LEVEL
--------------------------------

Memory available                           ...   2500.00 MB
Memory needed for S+T                      ...      1.52 MB
Memory needed for J+K                      ...      3.07 MB
Memory needed for DIIS                     ...     21.33 MB
Memory needed for 3-ext                    ...      4.85 MB
Memory needed for 4-ext                    ...     13.34 MB
Memory needed for triples                  ...      3.03 MB
 -> Final InCoreLevel    ... 5
 -> check shows that triples correction can be computed


Wavefunction type
-----------------
Correlation treatment                      ...      CCSD     
Single excitations                         ... ON
Orbital optimization                       ... OFF
Calculation of Z vector                    ... OFF
Calculation of Brueckner orbitals          ... OFF
Perturbative triple excitations            ... ON
Calculation of F12 correction              ... OFF
Frozen core treatment                      ... chemical core (8 el)
Reference Wavefunction                     ... UHF
  Alpha-MOs occ    :     4 ...   11 (  8 MO's/  8 electrons)
  Beta-MOs occ     :     4 ...    9 (  6 MO's/  6 electrons)
  Alpha-MOs virt   :    12 ...   54 ( 43 MO's              )
  Beta-MOs virt    :    10 ...   54 ( 45 MO's              )
Number of AO's                             ...     55
Number of electrons                        ...     22
Number of correlated electrons             ...     14

Algorithmic settings
--------------------
Integral transformation                    ... AO direct full transformation
K(C) Formation                             ... FULL-MO TRAFO
Maximum number of iterations               ...        50
Convergence tolerance (max. residuum)      ... 1.000e-05
Level shift for amplitude update           ... 2.000e-01
Maximum number of DIIS vectors             ...         7
DIIS turned on at iteration                ...         0
Damping before turning on DIIS             ...     0.500
Damping after turning on DIIS              ...     0.000
Pair specific amplitude update             ... OFF
Natural orbital iterations                 ... OFF
Perturbative natural orbital generation    ... OFF
Printlevel                                 ... 2

Memory handling:
----------------
Maximum memory for working arrays          ...   2500 MB
Data storage in matrix containers          ... UNCOMPRESSED
Data type for integral storage             ... DOUBLE
In-Core Storage of quantities:
   Amplitudes+Sigma Vector      ... YES
   J+K operators                ... YES
   DIIS vectors                 ... YES
   3-external integrals         ... YES
   4-external integrals         ... YES


Initializing the integral package          ... done
Warning: reference  - re-canonicalizations have been set to INT 1 VIRT 1

--------------------------
UNRESTRICTED FOCK OPERATOR
--------------------------

<ss|ss>:          231 b            0 skpd (  0.0%)    0.001 s ( 0.003 ms/b)
<ss|sp>:          630 b            0 skpd (  0.0%)    0.003 s ( 0.005 ms/b)
<ss|sd>:          504 b            0 skpd (  0.0%)    0.002 s ( 0.003 ms/b)
<ss|sf>:          252 b            0 skpd (  0.0%)    0.000 s ( 0.001 ms/b)
<ss|pp>:          315 b            0 skpd (  0.0%)    0.005 s ( 0.015 ms/b)
<ss|pd>:          420 b            0 skpd (  0.0%)    0.003 s ( 0.007 ms/b)
<ss|pf>:          210 b            0 skpd (  0.0%)    0.001 s ( 0.002 ms/b)
<ss|dd>:          210 b            0 skpd (  0.0%)    0.003 s ( 0.013 ms/b)
<ss|df>:          168 b            0 skpd (  0.0%)    0.001 s ( 0.007 ms/b)
<ss|ff>:           63 b            0 skpd (  0.0%)    0.000 s ( 0.005 ms/b)
<sp|sp>:          465 b            0 skpd (  0.0%)    0.003 s ( 0.007 ms/b)
<sp|sd>:          720 b            0 skpd (  0.0%)    0.003 s ( 0.005 ms/b)
<sp|sf>:          360 b            0 skpd (  0.0%)    0.001 s ( 0.002 ms/b)
<sp|pp>:          450 b            0 skpd (  0.0%)    0.005 s ( 0.012 ms/b)
<sp|pd>:          600 b            0 skpd (  0.0%)    0.007 s ( 0.011 ms/b)
<sp|pf>:          300 b            0 skpd (  0.0%)    0.001 s ( 0.005 ms/b)
<sp|dd>:          300 b            0 skpd (  0.0%)    0.008 s ( 0.028 ms/b)
<sp|df>:          240 b            0 skpd (  0.0%)    0.002 s ( 0.008 ms/b)
<sp|ff>:           90 b            0 skpd (  0.0%)    0.001 s ( 0.007 ms/b)
<sd|sd>:          300 b            0 skpd (  0.0%)    0.003 s ( 0.010 ms/b)
<sd|sf>:          288 b            0 skpd (  0.0%)    0.001 s ( 0.003 ms/b)
<sd|pp>:          360 b            0 skpd (  0.0%)    0.005 s ( 0.013 ms/b)
<sd|pd>:          480 b            0 skpd (  0.0%)    0.007 s ( 0.014 ms/b)
<sd|pf>:          240 b            0 skpd (  0.0%)    0.002 s ( 0.007 ms/b)
<sd|dd>:          240 b            0 skpd (  0.0%)    0.009 s ( 0.039 ms/b)
<sd|df>:          192 b            0 skpd (  0.0%)    0.003 s ( 0.013 ms/b)
<sd|ff>:           72 b            0 skpd (  0.0%)    0.001 s ( 0.012 ms/b)
<sf|sf>:           78 b            0 skpd (  0.0%)    0.000 s ( 0.003 ms/b)
<sf|pp>:          180 b            0 skpd (  0.0%)    0.002 s ( 0.012 ms/b)
<sf|pd>:          240 b            0 skpd (  0.0%)    0.003 s ( 0.012 ms/b)
<sf|pf>:          120 b            0 skpd (  0.0%)    0.001 s ( 0.007 ms/b)
<sf|dd>:          120 b            0 skpd (  0.0%)    0.004 s ( 0.036 ms/b)
<sf|df>:           96 b            0 skpd (  0.0%)    0.001 s ( 0.013 ms/b)
<sf|ff>:           36 b            0 skpd (  0.0%)    0.001 s ( 0.016 ms/b)
<pp|pp>:          120 b            0 skpd (  0.0%)    0.007 s ( 0.057 ms/b)
<pp|pd>:          300 b            0 skpd (  0.0%)    0.010 s ( 0.033 ms/b)
<pp|pf>:          150 b            0 skpd (  0.0%)    0.002 s ( 0.016 ms/b)
<pp|dd>:          150 b            0 skpd (  0.0%)    0.014 s ( 0.091 ms/b)
<pp|df>:          120 b            0 skpd (  0.0%)    0.004 s ( 0.030 ms/b)
<pp|ff>:           45 b            0 skpd (  0.0%)    0.001 s ( 0.025 ms/b)
<pd|pd>:          210 b            0 skpd (  0.0%)    0.015 s ( 0.071 ms/b)
<pd|pf>:          200 b            0 skpd (  0.0%)    0.004 s ( 0.019 ms/b)
<pd|dd>:          200 b            0 skpd (  0.0%)    0.022 s ( 0.109 ms/b)
<pd|df>:          160 b            0 skpd (  0.0%)    0.006 s ( 0.039 ms/b)
<pd|ff>:           60 b            0 skpd (  0.0%)    0.002 s ( 0.037 ms/b)
<pf|pf>:           55 b            0 skpd (  0.0%)    0.002 s ( 0.030 ms/b)
<pf|dd>:          100 b            0 skpd (  0.0%)    0.009 s ( 0.086 ms/b)
<pf|df>:           80 b            0 skpd (  0.0%)    0.003 s ( 0.034 ms/b)
<pf|ff>:           30 b            0 skpd (  0.0%)    0.001 s ( 0.044 ms/b)
<dd|dd>:           55 b            0 skpd (  0.0%)    0.016 s ( 0.286 ms/b)
<dd|df>:           80 b            0 skpd (  0.0%)    0.005 s ( 0.060 ms/b)
<dd|ff>:           30 b            0 skpd (  0.0%)    0.002 s ( 0.057 ms/b)
<df|df>:           36 b            0 skpd (  0.0%)    0.002 s ( 0.054 ms/b)
<df|ff>:           24 b            0 skpd (  0.0%)    0.002 s ( 0.068 ms/b)
<ff|ff>:            6 b            0 skpd (  0.0%)    0.001 s ( 0.101 ms/b)
Recanonicalizing the internal orbitals
Recanonicalizing the virtual orbitals
Time needed for Fock operator              ...            0.262 sec
Reference energy                           ...   -213.340270851
Warning: for UHF the TrafoType has to be JK
Warning: for UHF the K(C)-option cannot be MO but must be AOX

-------------------------------
PARTIAL EXCHANGE TRANSFORMATION
-------------------------------

Transformation type                        ... two-operators
Generation of integrals (i,mue|j,nue)      ... ON
Generation of integrals (mue,kappa|nue,tau)... ON
Generation of integrals (i,mue|a,nue)      ... ON
Dimension of the basis                     ...   55
Number of internal alpha-MOs               ...    8 (   4-  11)
Number of internal beta-MOs                ...    6 (   4-   9)
Number of external alpha-MOs               ...   43 (  12-  54)
Number of external beta-MOs                ...   45 (  10-  54)
Pair cutoff                                ... 0.000e+00 Eh
Number of AO pairs in the trafo            ... 1540
Total Number of distinct AO pairs          ... 1540
Memory devoted for trafo                   ... 2500.0 MB 
Max. Number of MO pairs treated together   ... 108323      
Number Format for Storage                  ... Double (8 Byte)
Integral package used                      ... LIBINT

Starting integral evaluation:
    ... done with AO integral generation
Closing buffer AOK[aa] ( 0.00 GB; CompressionRatio= 0.00)
Closing buffer AOK[bb] ( 0.00 GB; CompressionRatio= 0.00)
Closing buffer AOK[ab] ( 0.00 GB; CompressionRatio= 0.00)
Closing buffer AOK[ba] ( 0.00 GB; CompressionRatio= 0.00)
Collecting buffer AOK 
Closing buffer IAAO1[aa] ( 0.00 GB; CompressionRatio= 0.00)
Closing buffer IAAO1[bb] ( 0.00 GB; CompressionRatio= 0.00)
Closing buffer IAAO1[ab] ( 0.00 GB; CompressionRatio= 0.00)
Closing buffer IAAO1[ba] ( 0.00 GB; CompressionRatio= 0.00)
Closing buffer IAAO2[aa] ( 0.00 GB; CompressionRatio= 0.00)
Closing buffer IAAO2[bb] ( 0.00 GB; CompressionRatio= 0.00)
Closing buffer IAAO2[ab] ( 0.00 GB; CompressionRatio= 0.00)
Closing buffer IAAO2[ba] ( 0.00 GB; CompressionRatio= 0.00)
Collecting buffer IAAO 
Closing buffer PRQS    ( 0.00 GB; CompressionRatio= 0.00)
Collecting buffer PRQS 
Number of alpha/alpha MO pairs in trafo    ...   36
Number of beta /beta  MO pairs in trafo    ...   21
Number of alpha/ beta MO pairs in trafo    ...   48
------------------------
SORTING OF (i,mue|j,nue)
------------------------

SORTING OF ALPHA/ALPHA PAIRS
IBATCH = 1 of  1
Closing buffer KAO[aa] ( 0.00 GB; CompressionRatio= 1.00)
Collecting buffer KAO 
SORTING OF BETA /BETA  PAIRS
IBATCH = 1 of  1
Closing buffer KAO[bb] ( 0.00 GB; CompressionRatio= 1.00)
Collecting buffer KAO 
SORTING OF ALPHA/BETA  PAIRS
IBATCH = 1 of  1
Closing buffer KAO[ab] ( 0.00 GB; CompressionRatio= 0.999504377994)
Collecting buffer KAO[ab] 
------------------------
SORTING OF (i,mue|a,nue)
------------------------

Number of alpha/alpha (i,a) pairs in trafo  ...  344
Number of beta /beta  (i,a) pairs in trafo  ...  270
Number of alpha/ beta (i,a) pairs in trafo  ...  360
Number of beta /alpha (i,a) pairs in trafo  ...  258
Setting up the alpha/alpha list             ... done
Setting up the beta /beta  list             ... done
Setting up the alpha/beta  list             ... done
Setting up the beta /alpha list             ... done
    ... Now sorting (i,mue|a,nue)integrals
    ... Integrals (i,b|a,c) will be made on the fly
SORTING OF ALPHA/ALPHA PAIRS
IBATCH = 1 of  1
Closing buffer IPAQ[aa]  0.00 GB; CompressionRatio= 1.00)
SORTING OF BETA /BETA  PAIRS
IBATCH = 1 of  1
Closing buffer IPAQ[bb]( 0.00 GB; CompressionRatio= 1.00)
SORTING OF ALPHA/BETA  PAIRS (NMatSort_ab=15)
IBATCH = 1 of  1
Closing buffer IPAQ[ab]( 0.00 GB; CompressionRatio= 1.00)
SORTING OF BETA/ALPHA  PAIRS
IBATCH = 1 of  1
Closing buffer IPAQ[ba]( 0.00 GB; CompressionRatio= 1.00)
N(AO-Batches) Done                         ...         0 
N(AO-Batches) Skipped                      ...         0 
N(IJ)-pairs Skipped                        ...         0 
TOTAL TIME for half transformation         ...     3.055 sec
AO-integral generation                     ...     0.000 sec
Half transformation                        ...     0.000 sec
K-integral sorting                         ...     0.795 sec
<ss|**>: 
------------------------------
PARTIAL COULOMB TRANSFORMATION
------------------------------

Transformation type                        ... two-operators
Dimension of the basis                     ...   55
Number of internal alpha-MOs               ...    8 (4-11)
Number of internal beta-MOs                ...    6 (4-9)
Pair cutoff                                ... 0.000e+00 Eh
Number of AO pairs included in the trafo   ... 1540
Total Number of distinct AO pairs          ... 1540
Memory devoted for trafo                   ... 2500.0 MB 
Max. Number of MO pairs treated together   ... 212779      
Max. Number of MOs treated per batch       ... 3868      
Number Format for Storage                  ... Double (8 Byte)
AO-integral source                         ... DIRECT
Integral package used                      ... LIBINT

Starting integral evaluation:
<sp|**>:         3213 b        0 skpd     0.025 s (  0.008 ms/b)
<sd|**>:         4590 b        0 skpd     0.042 s (  0.009 ms/b)
        3672 b        0 skpd     0.033 s (  0.009 ms/b)
<sf|**>:         1836 b        0 skpd     0.015 s (  0.008 ms/b)
<pp|**>:         2295 b        0 skpd     0.050 s (  0.022 ms/b)
<pd|**>:         3060 b        0 skpd     0.076 s (  0.025 ms/b)
<pf|**>:         1530 b        0 skpd     0.038 s (  0.025 ms/b)
<dd|**>:         1530 b        0 skpd     0.107 s (  0.070 ms/b)
<df|**>:         1224 b        0 skpd     0.059 s (  0.048 ms/b)
<ff|**>:          459 b        0 skpd     0.047 s (  0.102 ms/b)
Closing buffer AOJ[aa] ( 0.00 GB; CompressionRatio= 0.96)
Closing buffer AOJ[bb] ( 0.00 GB; CompressionRatio= 0.00)
Collecting buffer AOJ 
    ... done with AO integral generation
Number of Alpha-MO pairs included          ...   36
Number of Beta-MO pairs included           ...   21
    ... Now sorting integrals
SORTING ALPHA/ALPHA PAIRS
IBATCH = 1 of  1
Closing buffer JAO[aa] ( 0.00 GB; CompressionRatio= 1.00)
SORTING BETA/BETA PAIRS
IBATCH = 1 of  1
Closing buffer JAO[bb] ( 0.00 GB; CompressionRatio= 1.00)
Collecting buffer JAO 
TOTAL TIME for half transformation         ...     0.638 sec
AO-integral generation                     ...     0.379 sec
Half transformation                        ...     0.113 sec
J-integral sorting                         ...     0.097 sec

-------------------------- SECOND HALF TRANSFORMATION -------------------------
Formation of (ij|kl),(ij|ka), (ij|ab)      ... ok (     0.155 sec)
Formation of (ik|jl),(ik|ja), (ia|jb)      ... ok (     0.214 sec)


-----------------------
SPIN UNRESTRICTED GUESS
-----------------------

Entering MDCI_UHF_Guess, Tailored=0
Spin-components of the MP2 energy:
EMP2(aa)=     -0.022184007
EMP2(bb)=     -0.009447453
EMP2(ab)=     -0.077508029

Initial guess performed in     0.007 sec
E(0)                                       ...   -213.340270851
E(MP2)                                     ...     -0.109139488
Initial E(tot)                             ...   -213.449410339
<T|T>                                      ...      0.048268564
Number of pairs included                   ... 91

------------------------------------------------
                  UHF COUPLED CLUSTER ITERATIONS
------------------------------------------------

Number of amplitudes to be optimized       ...       134239

Iter       E(tot)           E(Corr)          Delta-E          Residual     Time      <S|S>**1/2
  0   -213.449410339     -0.109139488     -0.000000000      0.016038000    0.31      0.000000419
                           *** Turning on DIIS ***
  1   -213.455929931     -0.115659080     -0.006519593      0.006778565    0.29      0.020286699
  2   -213.460264072     -0.119993221     -0.004334141      0.003145655    0.29      0.027068457
  3   -213.461496199     -0.121225349     -0.001232127      0.001142876    0.29      0.030953867
  4   -213.461707869     -0.121437018     -0.000211670      0.000232266    0.29      0.032257436
  5   -213.461737315     -0.121466465     -0.000029447      0.000043218    0.29      0.032428866
  6   -213.461736342     -0.121465492      0.000000973      0.000012130    0.29      0.032429741
  7   -213.461736631     -0.121465780     -0.000000289      0.000002944    0.30      0.032430920
               --- The Coupled-Cluster iterations have converged ---

----------------------
COUPLED CLUSTER ENERGY
----------------------

E(0)                                       ...   -213.340270851
E(CORR)                                    ...     -0.121465780
E(TOT)                                     ...   -213.461736631
Singles norm <S|S>**1/2                    ...      0.032430920 ( 0.022240964, 0.010189955)  
T1 diagnostic                              ...      0.008667528                              

------------------
LARGEST AMPLITUDES
------------------
   9a-> 12a   9b-> 10b       0.067048
   9a-> 12a   9b-> 14b       0.042873
  10a-> 29a   9b-> 10b       0.035338
  11a-> 28a   9b-> 10b       0.035338
   9a-> 12a   9b-> 23b       0.034922
   9a-> 16a   9b-> 10b       0.032151
   9a-> 25a   9b-> 10b       0.030085
  11a-> 27a  10a-> 26a       0.027923
  11a-> 26a  10a-> 27a       0.027923
  10a-> 12a   9b-> 28b       0.025847
  11a-> 12a   9b-> 27b       0.025847
  11a-> 19a   9b-> 10b       0.023967
  10a-> 20a   9b-> 10b       0.023967
  10a-> 29a   9b-> 14b       0.022230
  11a-> 28a   9b-> 14b       0.022230
  11a-> 26a  10a-> 17a       0.022209

----------------------
UHF TRIPLES CORRECTION (Algorithm 1)
----------------------

Multiplier for the singles contribution    ...      1.000000000

SPIN-CASE Alpha-Alpha-Alpha:
10% done
20% done
30% done
40% done
50% done
60% done
70% done
80% done
90% done


SPIN-CASE Beta-Beta-Beta:
10% done
20% done
30% done
40% done
50% done
60% done
70% done
80% done
90% done


SPIN-CASE Alpha-Alpha-Beta:
10% done
20% done
30% done
40% done
50% done
60% done
70% done
80% done
90% done


SPIN-CASE Beta-Beta-Alpha:
10% done
20% done
30% done
40% done
50% done
60% done
70% done
80% done
90% done


Triples Correction (T)                     ...     -0.004527449
    alpha-alpha-alpha ... -0.000244587 (  5.4%)
    alpha-alpha-beta  ... -0.002978687 ( 65.8%)
    alpha-beta -beta  ... -0.001231938 ( 27.2%)
    beta -beta -beta  ... -0.000072238 (  1.6%)
Scaling of triples based on CCSD energies (Peterson et al. Molecular Physics 113, 1551 (2015))
E(T*) = f*E(T) where f = E(F12-CCSD)/E(CCSD) 
f = CCSD (with F12)/ CCSD (without F12)    ...      1.000000000
Scaled triples correction (T)              ...     -0.004527449

Final correlation energy                   ...     -0.125993229
E(CCSD)                                    ...   -213.461736631
E(CCSD(T))                                 ...   -213.466264080



        !!!!!!!!!!!!!!!!!!!!!!!!!!!!!!!!!!!!!!!!!!!!!!!!!!!!!!!!!!!!!!!!!!!!!!!!!! 
        !  Warning: Densities are linearized densities                           !
        !!!!!!!!!!!!!!!!!!!!!!!!!!!!!!!!!!!!!!!!!!!!!!!!!!!!!!!!!!!!!!!!!!!!!!!!!! 

NORM  =      1.072315206 sqrt=     1.035526536
W(HF) =      0.932561614
------------------------------------------------------------------------------
                           ORCA POPULATION ANALYSIS
------------------------------------------------------------------------------
Input electron density              ... 50_Sn.mdcip
Input spin density                  ... 50_Sn.mdcir
BaseName (.gbw .S,...)              ... 50_Sn

                    ********************************
                    * MULLIKEN POPULATION ANALYSIS *
                    ********************************

------------------------------------------
MULLIKEN ATOMIC CHARGES AND SPIN DENSITIES
------------------------------------------
   0 Sn:   -0.000000    2.000000
Sum of atomic charges       :   -0.0000000
Sum of atomic spin densities:    2.0000000

---------------------------------------------------
MULLIKEN REDUCED ORBITAL CHARGES AND SPIN DENSITIES
---------------------------------------------------
CHARGE
  0 Sns       :     3.933208  s :     3.933208
      pz      :     2.053480  p :     8.026179
      px      :     2.993949
      py      :     2.978750
      dz2     :     2.003116  d :    10.029474
      dxz     :     2.004517
      dyz     :     2.004450
      dx2y2   :     2.008696
      dxy     :     2.008696
      f0      :     0.001334  f :     0.011139
      f+1     :     0.001387
      f-1     :     0.001383
      f+2     :     0.001568
      f-2     :     0.001568
      f+3     :     0.001950
      f-3     :     0.001950

SPIN
  0 Sns       :     0.027250  s :     0.027250
      pz      :     0.013142  p :     1.942085
      px      :     0.972221
      py      :     0.956722
      dz2     :     0.001621  d :     0.028289
      dxz     :     0.003686
      dyz     :     0.003587
      dx2y2   :     0.009698
      dxy     :     0.009698
      f0      :     0.000200  f :     0.002376
      f+1     :     0.000232
      f-1     :     0.000229
      f+2     :     0.000330
      f-2     :     0.000330
      f+3     :     0.000528
      f-3     :     0.000528


                     *******************************
                     * LOEWDIN POPULATION ANALYSIS *
                     *******************************

-----------------------------------------
LOEWDIN ATOMIC CHARGES AND SPIN DENSITIES
-----------------------------------------
   0 Sn:   -0.000000    2.000000

--------------------------------------------------
LOEWDIN REDUCED ORBITAL CHARGES AND SPIN DENSITIES
--------------------------------------------------
CHARGE
  0 Sns       :     3.933208  s :     3.933208
      pz      :     2.053480  p :     8.026179
      px      :     2.993949
      py      :     2.978750
      dz2     :     2.003116  d :    10.029474
      dxz     :     2.004517
      dyz     :     2.004450
      dx2y2   :     2.008696
      dxy     :     2.008696
      f0      :     0.001334  f :     0.011139
      f+1     :     0.001387
      f-1     :     0.001383
      f+2     :     0.001568
      f-2     :     0.001568
      f+3     :     0.001950
      f-3     :     0.001950

SPIN
  0 Sns       :     0.027250  s :     0.027250
      pz      :     0.013142  p :     1.942085
      px      :     0.972221
      py      :     0.956722
      dz2     :     0.001621  d :     0.028289
      dxz     :     0.003686
      dyz     :     0.003587
      dx2y2   :     0.009698
      dxy     :     0.009698
      f0      :     0.000200  f :     0.002376
      f+1     :     0.000232
      f-1     :     0.000229
      f+2     :     0.000330
      f-2     :     0.000330
      f+3     :     0.000528
      f-3     :     0.000528


                      *****************************
                      * MAYER POPULATION ANALYSIS *
                      *****************************

  NA   - Mulliken gross atomic population
  ZA   - Total nuclear charge
  QA   - Mulliken gross atomic charge
  VA   - Mayer's total valence
  BVA  - Mayer's bonded valence
  FA   - Mayer's free valence

  ATOM       NA         ZA         QA         VA         BVA        FA
  0 Sn    22.0000    22.0000    -0.0000     2.4435     0.0000     2.4435





------------------------------------------------------------------------------- 
                                     TIMINGS                                   
------------------------------------------------------------------------------- 


Total execution time                   ...        7.377 sec

Fock Matrix Formation                  ...        0.262 sec (  3.6%)
Initial Guess                          ...        0.007 sec (  0.1%)
DIIS Solver                            ...        0.068 sec (  0.9%)
State Vector Update                    ...        0.004 sec (  0.1%)
Sigma-vector construction              ...        2.285 sec ( 31.0%)
  <D|H|D>(0-ext Fock)                  ...        0.001 sec (  0.1% of sigma)
  <D|H|D>(0-ext)                       ...        0.003 sec (  0.1% of sigma)
  <D|H|D>(2-ext)                       ...        0.014 sec (  0.6% of sigma)
  <D|H|D>(4-ext)                       ...        0.431 sec ( 18.9% of sigma)
  <S|H|0>                              ...        0.024 sec (  1.1% of sigma)
  <D|H|S>(1-ext)                       ...        0.008 sec (  0.4% of sigma)
  Fock-dressing                        ...        1.517 sec ( 66.4% of sigma)
  (ik|jl)-dressing                     ...        0.004 sec (  0.2% of sigma)
  (ij|ab),(ia|jb)-dressing             ...        0.210 sec (  9.2% of sigma)
Total Time for computing (T)           ...        0.114 sec (  1.6% of ALL)
  I/O of integral and amplitudes       ...        0.019 sec ( 17.0% of (T))
  External N**7 contributions          ...        0.022 sec ( 18.8% of (T))
  Internal N**7 contributions          ...        0.007 sec (  6.3% of (T))
  N**6 triples energy contributions    ...        0.032 sec ( 28.4% of (T))


-------------------------   --------------------
FINAL SINGLE POINT ENERGY      -213.466264079893
-------------------------   --------------------


                            ***************************************
                            *     ORCA property calculations      *
                            ***************************************

                                    ---------------------
                                    Active property flags
                                    ---------------------
   (+) Dipole Moment


------------------------------------------------------------------------------
                       ORCA ELECTRIC PROPERTIES CALCULATION
------------------------------------------------------------------------------

Dipole Moment Calculation                       ... on
Quadrupole Moment Calculation                   ... off
Polarizability Calculation                      ... off
GBWName                                         ... 50_Sn.gbw
Electron density file                           ... 50_Sn.scfp
The origin for moment calculation is the CENTER OF MASS  = ( 0.000000,  0.000000  0.000000)

-------------
DIPOLE MOMENT
-------------
                                X             Y             Z
Electronic contribution:     -0.00000      -0.00000      -0.00000
Nuclear contribution   :      0.00000       0.00000       0.00000
                        -----------------------------------------
Total Dipole Moment    :     -0.00000      -0.00000      -0.00000
                        -----------------------------------------
Magnitude (a.u.)       :      0.00000
Magnitude (Debye)      :      0.00000



--------------------
Rotational spectrum 
--------------------
 
Rotational constants in cm-1:     0.000000     0.000000     0.000000 
Rotational constants in MHz :     0.000000     0.000000     0.000000 

 Dipole components along the rotational axes: 
x,y,z [a.u.] :    -0.000000    -0.000000    -0.000000 
x,y,z [Debye]:    -0.000000    -0.000000    -0.000000 

 

                           *** MDCI DENSITY ***

------------------------------------------------------------------------------
                       ORCA ELECTRIC PROPERTIES CALCULATION
------------------------------------------------------------------------------

Dipole Moment Calculation                       ... on
Quadrupole Moment Calculation                   ... off
Polarizability Calculation                      ... off
GBWName                                         ... 50_Sn.gbw
Electron density file                           ... 50_Sn.mdcip
The origin for moment calculation is the CENTER OF MASS  = ( 0.000000,  0.000000  0.000000)

-------------
DIPOLE MOMENT
-------------
                                X             Y             Z
Electronic contribution:      0.00000      -0.00000       0.00000
Nuclear contribution   :      0.00000       0.00000       0.00000
                        -----------------------------------------
Total Dipole Moment    :      0.00000      -0.00000       0.00000
                        -----------------------------------------
Magnitude (a.u.)       :      0.00000
Magnitude (Debye)      :      0.00000



--------------------
Rotational spectrum 
--------------------
 
Rotational constants in cm-1:     0.000000     0.000000     0.000000 
Rotational constants in MHz :     0.000000     0.000000     0.000000 

 Dipole components along the rotational axes: 
x,y,z [a.u.] :     0.000000    -0.000000     0.000000 
x,y,z [Debye]:     0.000000    -0.000000     0.000000 

 

Timings for individual modules:

Sum of individual times         ...       14.312 sec (=   0.239 min)
GTO integral calculation        ...        0.892 sec (=   0.015 min)   6.2 %
SCF iterations                  ...        5.584 sec (=   0.093 min)  39.0 %
MDCI module                     ...        7.836 sec (=   0.131 min)  54.8 %
                             ****ORCA TERMINATED NORMALLY****
TOTAL RUN TIME: 0 days 0 hours 0 minutes 15 seconds 104 msec
