
                                 *****************
                                 * O   R   C   A *
                                 *****************

           --- An Ab Initio, DFT and Semiempirical electronic structure package ---

                  #######################################################
                  #                        -***-                        #
                  #          Department of theory and spectroscopy      #
                  #               Directorship: Frank Neese             #
                  #        Max Planck Institute fuer Kohlenforschung    #
                  #                Kaiser Wilhelm Platz 1               #
                  #                 D-45470 Muelheim/Ruhr               #
                  #                      Germany                        #
                  #                                                     #
                  #                  All rights reserved                #
                  #                        -***-                        #
                  #######################################################


                         Program Version 4.2.0 -  RELEASE  -


 With contributions from (in alphabetic order):
   Daniel Aravena         : Magnetic Suceptibility
   Michael Atanasov       : Ab Initio Ligand Field Theory (pilot matlab implementation)
   Alexander A. Auer      : GIAO ZORA, VPT2
   Ute Becker             : Parallelization
   Giovanni Bistoni       : ED, misc. LED, open-shell LED, HFLED
   Martin Brehm           : Molecular dynamics
   Dmytro Bykov           : SCF Hessian
   Vijay G. Chilkuri      : MRCI spin determinant printing, contributions to CSF-ICE
   Dipayan Datta          : RHF DLPNO-CCSD density
   Achintya Kumar Dutta   : EOM-CC, STEOM-CC
   Dmitry Ganyushin       : Spin-Orbit,Spin-Spin,Magnetic field MRCI
   Miquel Garcia          : C-PCM Hessian, Gaussian charge scheme
   Yang Guo               : DLPNO-NEVPT2, CIM, IAO-localization
   Andreas Hansen         : Spin unrestricted coupled pair/coupled cluster methods
   Benjamin Helmich-Paris : CASSCF linear response (MC-RPA)
   Lee Huntington         : MR-EOM, pCC
   Robert Izsak           : Overlap fitted RIJCOSX, COSX-SCS-MP3, EOM
   Christian Kollmar      : KDIIS, OOCD, Brueckner-CCSD(T), CCSD density
   Simone Kossmann        : Meta GGA functionals, TD-DFT gradient, OOMP2, MP2 Hessian
   Martin Krupicka        : AUTO-CI
   Lucas Lang             : DCDCAS
   Dagmar Lenk            : GEPOL surface, SMD
   Dimitrios Liakos       : Extrapolation schemes; Compound Job, initial MDCI parallelization
   Dimitrios Manganas     : Further ROCIS development; embedding schemes
   Dimitrios Pantazis     : SARC Basis sets
   Taras Petrenko         : DFT Hessian,TD-DFT gradient, ASA, ECA, R-Raman, ABS, FL, XAS/XES, NRVS
   Peter Pinski           : DLPNO-MP2, DLPNO-MP2 Gradient
   Christoph Reimann      : Effective Core Potentials
   Marius Retegan         : Local ZFS, SOC
   Christoph Riplinger    : Optimizer, TS searches, QM/MM, DLPNO-CCSD(T), (RO)-DLPNO pert. Triples
   Tobias Risthaus        : Range-separated hybrids, TD-DFT gradient, RPA, STAB
   Michael Roemelt        : Original ROCIS implementation
   Masaaki Saitow         : Open-shell DLPNO-CCSD energy and density
   Barbara Sandhoefer     : DKH picture change effects
   Avijit Sen             : IP-ROCIS
   Kantharuban Sivalingam : CASSCF convergence, NEVPT2, FIC-MRCI
   Bernardo de Souza      : ESD, SOC TD-DFT
   Georgi Stoychev        : AutoAux, RI-MP2 NMR
   Willem Van den Heuvel  : Paramagnetic NMR
   Boris Wezisla          : Elementary symmetry handling
   Frank Wennmohs         : Technical directorship


 We gratefully acknowledge several colleagues who have allowed us to
 interface, adapt or use parts of their codes:
   Stefan Grimme, W. Hujo, H. Kruse,             : VdW corrections, initial TS optimization,
                  C. Bannwarth                     DFT functionals, gCP, sTDA/sTD-DF
   Ed Valeev, F. Pavosevic, A. Kumar             : LibInt (2-el integral package), F12 methods
   Garnet Chan, S. Sharma, J. Yang, R. Olivares  : DMRG
   Ulf Ekstrom                                   : XCFun DFT Library
   Mihaly Kallay                                 : mrcc  (arbitrary order and MRCC methods)
   Andreas Klamt, Michael Diedenhofen            : otool_cosmo (COSMO solvation model)
   Jiri Pittner, Ondrej Demel                    : Mk-CCSD
   Frank Weinhold                                : gennbo (NPA and NBO analysis)
   Christopher J. Cramer and Donald G. Truhlar   : smd solvation model
   Lars Goerigk                                  : TD-DFT with DH, B97 family of functionals
   V. Asgeirsson, H. Jonsson                     : NEB implementation
   FAccTs GmbH                                   : IRC, NEB, NEB-TS, Multilevel, MM, QM/MM, CI optimization
   S Lehtola, MJT Oliveira, MAL Marques          : LibXC Library


 Your calculation uses the libint2 library for the computation of 2-el integrals
 For citations please refer to: http://libint.valeyev.net

 Your ORCA version has been built with support for libXC version: 4.2.3
 For citations please refer to: https://tddft.org/programs/libxc/

 This ORCA versions uses:
   CBLAS   interface :  Fast vector & matrix operations
   LAPACKE interface :  Fast linear algebra routines
   SCALAPACK package :  Parallel linear algebra routines


----- Orbital basis set information -----
Your calculation utilizes the basis: aug-cc-pVTZ-PP 
       Ca, Sr, Ba, Ra : Obtained from the Peterson Research Group Website (tyr0.chem.wsu.edu/~kipeters) Feb. 2017
                        H. Li, H. Feng, W. Sun, Y. Zhang, Q. Fan, K. A. Peterson, Y. Xie, H. F. Schaefer III, Mol. Phys. 111, 2292 (2013)
  Cu-Zn, Ag-Cd, Au-Hg : Obtained from the ccRepo (grant-hill.group.shef.ac.uk/ccrepo) Feb. 2017
                        K. A. Peterson, C. Puzzarini, Theor. Chem. Acc. 114, 283 (2005)
  Ga-Kr, In-Xe, Tl-Rn : Obtained from the ccRepo (grant-hill.group.shef.ac.uk/ccrepo) Feb. 2017
                        K. A. Peterson, J. Chem. Phys. 119, 11099 (2003)
                        K. A. Peterson, D. Figgen, E. Goll, H. Stoll, M. Dolg, J. Chem. Phys. 119, 11113 (2003)
                 Y-Pd : Obtained from the ccRepo (grant-hill.group.shef.ac.uk/ccrepo) Feb. 2017
                        K. A. Peterson, D. Figgen, M. Dolg, H. Stoll, J. Chem. Phys. 126, 124101 (2007)
                Hf-Pt : Obtained from the ccRepo (grant-hill.group.shef.ac.uk/ccrepo) Feb. 2017
                        D. Figgen, K. A. Peterson, M. Dolg, H. Stoll, J. Chem. Phys. 130, 164108 (2009)

cite the ECPs for I  [SK MCDHF RSC] as follows:
O: B. Metz and H. Stoll, private communication (KAP)
Tl: B. Metz, M. Schweizer, H. Stoll, M. Dolg, W. Liu, Theor. Chem. Acc. 104, 22 (2000)
Ga-As, In-Sb, Pb-Bi: B. Metz, H. Stoll, M. Dolg, J. Chem. Phys. 113, 2563 (2000)
Se-Kr, Te-Xe, Po-Rn: K.A. Peterson, D. Figgen, E. Goll, H. Stoll, and M. Dolg, J. Chem. Phys., in press (2003)
Cu-Zn, Ag-Cd, Au-Hg: D. Figgen, G. Rauhut, M. Dolg, and H. Stoll, Chem. Phys. 311, 227 (2005)
Y-Pd: K.A. Peterson, D. Figgen, M. Dolg, H. Stoll, J. Chem. Phys. 126, 124101 (2007)
I: K. A. Peterson, B. C. Shepler, D. Figgen, H. Stoll, J. Phys. Chem. A 110, 13877 (2006)
Hf-Pt: D. Figgen, K.A. Peterson, M. Dolg, H. Stoll, J. Chem. Phys. 130, 164108 (2009)
Ca, Sr, Ba, Ra: I.S. Lim, H. Stoll, P. Schwerdtfeger, J. Chem. Phys. 124, 034107 (2006)

ECP parameters for I  [SK MCDHF RSC] have been obtained from:
cc-pVDZ-PP  EMSL  Basis Set Exchange Library   4/7/16 5:27 AM
Ca, Sr, Ba, Ra: http://www.tc.uni-koeln.de/PP/index.en.html 3/16/17 1:54 PM

================================================================================
                                        WARNINGS
                       Please study these warnings very carefully!
================================================================================


WARNING: your system is open-shell and RHF/RKS was chosen
  ===> : WILL SWITCH to UHF/UKS


WARNING: MDCI localization with Augmented Hessian Foster-Boys
  ===> : Switching off randomization!

WARNING: Post HF methods need fully converged wavefunctions
  ===> : Setting SCFConvForced true
         You can overwrite this default with %scf ConvForced false 


INFO   : the flag for use of LIBINT has been found!

================================================================================
                                       INPUT FILE
================================================================================
NAME = 53_I.in
|  1> #
|  2> # 53_I CCSD(T)/aug-cc-pVTZ-PP
|  3> #
|  4> ! CCSD(T) aug-cc-pVTZ-PP tightscf
|  5> 
|  6> *xyz 0 2
|  7>  I 0.0 0.0 0.0
|  8> *
|  9> 
| 10> %maxcore 5000 
| 11> 
| 12> %pal
| 13> nprocs 24
| 14> end
| 15> 
| 16> 
| 17>                          ****END OF INPUT****
================================================================================

                       ****************************
                       * Single Point Calculation *
                       ****************************

---------------------------------
CARTESIAN COORDINATES (ANGSTROEM)
---------------------------------
  I      0.000000    0.000000    0.000000

----------------------------
CARTESIAN COORDINATES (A.U.)
----------------------------
  NO LB      ZA    FRAG     MASS         X           Y           Z
   0 I    25.0000*   0   126.900    0.000000    0.000000    0.000000
* core charge reduced due to ECP

--------------------------------
INTERNAL COORDINATES (ANGSTROEM)
--------------------------------
 I      0   0   0     0.000000000000     0.00000000     0.00000000

---------------------------
INTERNAL COORDINATES (A.U.)
---------------------------
 I      0   0   0     0.000000000000     0.00000000     0.00000000

---------------------
BASIS SET INFORMATION
---------------------
There are 1 groups of distinct atoms

 Group   1 Type I   : 22s21p10d2f contracted to 6s5p4d2f pattern {991111/99111/7111/11}

Atom   0I    basis set group =>   1
-------------------------
ECP PARAMETER INFORMATION
-------------------------

 Group 1, Type I  ECP SK MCDHF RSC (replacing 28 core electrons, lmax=4)

Atom   0I    ECP group =>   1



           ************************************************************
           *        Program running with 24 parallel MPI-processes    *
           *              working on a common directory               *
           ************************************************************
------------------------------------------------------------------------------
                           ORCA GTO INTEGRAL CALCULATION
------------------------------------------------------------------------------

                         BASIS SET STATISTICS AND STARTUP INFO

 # of primitive gaussian shells          ...   55
 # of primitive gaussian functions       ...  149
 # of contracted shells                  ...   17
 # of contracted basis functions         ...   55
 Highest angular momentum                ...    3
 Maximum contraction depth               ...    9
 Integral package used                   ... LIBINT
 Integral threshhold            Thresh   ...  2.500e-11
 Primitive cut-off              TCut     ...  2.500e-12


------------------------------ INTEGRAL EVALUATION ----------------------------


 * One electron integrals 

   ECP integrals                         ... done
 Pre-screening matrix                    ... done
 Shell pair data                         ... done (   0.000 sec)



           ************************************************************
           *        Program running with 24 parallel MPI-processes    *
           *              working on a common directory               *
           ************************************************************
-------------------------------------------------------------------------------
                                 ORCA SCF
-------------------------------------------------------------------------------

------------
SCF SETTINGS
------------
Hamiltonian:
 Ab initio Hamiltonian  Method          .... Hartree-Fock(GTOs)


General Settings:
 Integral files         IntName         .... 53_I
 Hartree-Fock type      HFTyp           .... UHF
 Total Charge           Charge          ....    0
 Multiplicity           Mult            ....    2
 Number of Electrons    NEL             ....   25
 Basis Dimension        Dim             ....   55
 Nuclear Repulsion      ENuc            ....      0.0000000000 Eh

Convergence Acceleration:
 DIIS                   CNVDIIS         .... on
   Start iteration      DIISMaxIt       ....    12
   Startup error        DIISStart       ....  0.200000
   # of expansion vecs  DIISMaxEq       ....     5
   Bias factor          DIISBfac        ....   1.050
   Max. coefficient     DIISMaxC        ....  10.000
 Newton-Raphson         CNVNR           .... off
 SOSCF                  CNVSOSCF        .... off
 Level Shifting         CNVShift        .... on
   Level shift para.    LevelShift      ....    0.2500
   Turn off err/grad.   ShiftErr        ....    0.0010
 Zerner damping         CNVZerner       .... off
 Static damping         CNVDamp         .... on
   Fraction old density DampFac         ....    0.7000
   Max. Damping (<1)    DampMax         ....    0.9800
   Min. Damping (>=0)   DampMin         ....    0.0000
   Turn off err/grad.   DampErr         ....    0.1000
 Fernandez-Rico         CNVRico         .... off

SCF Procedure:
 Maximum # iterations   MaxIter         ....   125
 SCF integral mode      SCFMode         .... Direct
   Integral package                     .... LIBINT
 Reset frequency        DirectResetFreq ....    20
 Integral Threshold     Thresh          ....  2.500e-11 Eh
 Primitive CutOff       TCut            ....  2.500e-12 Eh

Convergence Tolerance:
 Convergence Check Mode ConvCheckMode   .... Total+1el-Energy
 Convergence forced     ConvForced      .... 1
 Energy Change          TolE            ....  1.000e-08 Eh
 1-El. energy change                    ....  1.000e-05 Eh
 DIIS Error             TolErr          ....  5.000e-07


Diagonalization of the overlap matrix:
Smallest eigenvalue                        ... 2.844e-03
Time for diagonalization                   ...    0.002 sec
Threshold for overlap eigenvalues          ... 1.000e-08
Number of eigenvalues below threshold      ... 0
Time for construction of square roots      ...    0.012 sec
Total time needed                          ...    0.014 sec

-------------------
DFT GRID GENERATION
-------------------

General Integration Accuracy     IntAcc      ...  4.340
Radial Grid Type                 RadialGrid  ... Gauss-Chebyshev
Angular Grid (max. acc.)         AngularGrid ... Lebedev-110
Angular grid pruning method      GridPruning ... 3 (G Style)
Weight generation scheme         WeightScheme... Becke
Basis function cutoff            BFCut       ...    1.0000e-11
Integration weight cutoff        WCut        ...    1.0000e-14
Grids for H and He will be reduced by one unit

# of grid points (after initial pruning)     ...   3282 (   0.0 sec)
# of grid points (after weights+screening)   ...   3282 (   0.0 sec)
Grid point division into batches done        ...    0.0 sec
Reduced shell lists constructed in    0.0 sec

Total number of grid points                  ...     3282
Total number of batches                      ...       52
Average number of points per batch           ...       63
Average number of grid points per atom       ...     3282
Average number of shells per batch           ...    11.25 (66.18%)
Average number of basis functions per batch  ...    35.25 (64.09%)
Average number of large shells per batch     ...     8.75 (77.78%)
Average number of large basis fcns per batch ...    26.75 (75.89%)
Maximum spatial batch extension              ...  19.06, 28.74, 28.74 au
Average spatial batch extension              ...   1.08,  1.48,  1.66 au

Time for grid setup =    0.070 sec

------------------------------
INITIAL GUESS: MODEL POTENTIAL
------------------------------
Loading Hartree-Fock densities                     ... done
  calling /sw/apps/orca/orca_4_2_0_linux_x86-64_openmpi314/orca 53_I_atom53.inp > 53_I_atom53.out in order to generate an atomic fitting density for atom 0 (I  with ECP) on-the-fly... 
    atom 0 (I ), assumed electronic state with S=2: 1s2 2s2 2p6 3s2 3p6 4s2 3d10 4p6 5s2 4d10 5p5           ... done
Calculating cut-offs                               ... done
Setting up the integral package                    ... done
Initializing the effective Hamiltonian             ... done
Starting the Coulomb interaction                   ... done (   0.0 sec)
Reading the grid                                   ... done
Mapping shells                                     ... done
Starting the XC term evaluation                    ... done (   0.0 sec)
Transforming the Hamiltonian                       ... done (   0.0 sec)
Diagonalizing the Hamiltonian                      ... done (   0.0 sec)
Back transforming the eigenvectors                 ... done (   0.0 sec)
Now organizing SCF variables                       ... done
                      ------------------
                      INITIAL GUESS DONE (   1.4 sec)
                      ------------------
--------------
SCF ITERATIONS
--------------
ITER       Energy         Delta-E        Max-DP      RMS-DP      [F,P]     Damp
               ***  Starting incremental Fock matrix formation  ***
  0   -287.7266896682   0.000000000000 2.56560105  0.08298713  1.3134974 0.7000
  1   -290.0745413429  -2.347851674660 1.80567915  0.05812608  0.8407881 0.7000
  2   -291.4884159530  -1.413874610052 1.23614142  0.04043318  0.4838825 0.7000
  3   -292.4263946553  -0.937978702359 0.84875296  0.02817804  0.2713725 0.7000
                               ***Turning on DIIS***
  4   -293.0818972058  -0.655502550535 0.59028133  0.01971517  0.1510390 0.7000
  5   -294.2733654389  -1.191468233041 1.38755828  0.04618906  0.0833993 0.0000
  6   -294.5319754099  -0.258609971043 0.03901641  0.00154514  0.0311114 0.0000
  7   -294.6030761037  -0.071100693766 0.02633548  0.00097737  0.0151024 0.0000
  8   -294.6331543061  -0.030078202406 0.01165523  0.00042468  0.0067827 0.0000
  9   -294.6507650210  -0.017610714914 0.00519103  0.00018835  0.0026126 0.0000
 10   -294.6569538326  -0.006188811559 0.00326980  0.00009667  0.0009409 0.0000
 11   -294.6618177572  -0.004863924625 0.00027948  0.00001015  0.0000521 0.0000
 12   -294.6618437074  -0.000025950235 0.00010726  0.00000344  0.0000151 0.0000
 13   -294.6618855470  -0.000041839540 0.00006825  0.00000216  0.0000069 0.0000
 14   -294.6618807429   0.000004804091 0.00002581  0.00000077  0.0000017 0.0000
                            ***DIIS convergence achieved***

               *****************************************************
               *                     SUCCESS                       *
               *           SCF CONVERGED AFTER  15 CYCLES          *
               *****************************************************


----------------
TOTAL SCF ENERGY
----------------

Total Energy       :         -294.66188390 Eh           -8018.15750 eV

Components:
Nuclear Repulsion  :            0.00000000 Eh               0.00000 eV
Electronic Energy  :         -294.66188390 Eh           -8018.15750 eV
One Electron Energy:         -513.64778107 Eh          -13977.06670 eV
Two Electron Energy:          218.98589717 Eh            5958.90921 eV

Virial components:
Potential Energy   :         -405.46044258 Eh          -11033.13956 eV
Kinetic Energy     :          110.79855868 Eh            3014.98206 eV
Virial Ratio       :            3.65943788


---------------
SCF CONVERGENCE
---------------

  Last Energy change         ...   -3.1565e-06  Tolerance :   1.0000e-08
  Last MAX-Density change    ...    7.3727e-06  Tolerance :   1.0000e-07
  Last RMS-Density change    ...    2.3300e-07  Tolerance :   5.0000e-09
  Last DIIS Error            ...    4.4851e-07  Tolerance :   5.0000e-07

             **** THE GBW FILE WAS UPDATED (53_I.gbw) ****
             **** DENSITY FILE WAS UPDATED (53_I.scfp) ****
             **** ENERGY FILE WAS UPDATED (53_I.en.tmp) ****
----------------------
UHF SPIN CONTAMINATION
----------------------

Expectation value of <S**2>     :     0.760823
Ideal value S*(S+1) for S=0.5   :     0.750000
Deviation                       :     0.010823

             **** THE GBW FILE WAS UPDATED (53_I.gbw) ****
             **** DENSITY FILE WAS UPDATED (53_I.scfp) ****
----------------
ORBITAL ENERGIES
----------------
                 SPIN UP ORBITALS
  NO   OCC          E(Eh)            E(eV) 
   0   1.0000      -7.749584      -210.8769 
   1   1.0000      -5.590042      -152.1128 
   2   1.0000      -5.566714      -151.4780 
   3   1.0000      -5.566714      -151.4780 
   4   1.0000      -2.313748       -62.9603 
   5   1.0000      -2.307408       -62.7878 
   6   1.0000      -2.307408       -62.7878 
   7   1.0000      -2.288657       -62.2775 
   8   1.0000      -2.288657       -62.2775 
   9   1.0000      -0.922838       -25.1117 
  10   1.0000      -0.460100       -12.5200 
  11   1.0000      -0.399617       -10.8741 
  12   1.0000      -0.399617       -10.8741 
  13   0.0000       0.071915         1.9569 
  14   0.0000       0.093857         2.5540 
  15   0.0000       0.102533         2.7901 
  16   0.0000       0.102533         2.7901 
  17   0.0000       0.180082         4.9003 
  18   0.0000       0.184266         5.0141 
  19   0.0000       0.184266         5.0141 
  20   0.0000       0.199057         5.4166 
  21   0.0000       0.199057         5.4166 
  22   0.0000       0.406696        11.0668 
  23   0.0000       0.528384        14.3780 
  24   0.0000       0.540477        14.7071 
  25   0.0000       0.548480        14.9249 
  26   0.0000       0.548480        14.9249 
  27   0.0000       0.557083        15.1590 
  28   0.0000       0.557083        15.1590 
  29   0.0000       0.576558        15.6890 
  30   0.0000       0.576558        15.6890 
  31   0.0000       0.638235        17.3672 
  32   0.0000       0.641553        17.4575 
  33   0.0000       0.641553        17.4575 
  34   0.0000       0.651646        17.7322 
  35   0.0000       0.651646        17.7322 
  36   0.0000       0.670050        18.2330 
  37   0.0000       0.670050        18.2330 
  38   0.0000       1.462766        39.8039 
  39   0.0000       1.467629        39.9362 
  40   0.0000       1.467629        39.9362 
  41   0.0000       1.478733        40.2384 
  42   0.0000       1.482539        40.3419 
  43   0.0000       1.482539        40.3419 
  44   0.0000       1.509013        41.0623 
  45   0.0000       1.509013        41.0623 
  46   0.0000       1.764882        48.0249 
  47   0.0000       1.773634        48.2630 
  48   0.0000       1.773634        48.2630 
  49   0.0000       1.803229        49.0683 
  50   0.0000       1.803229        49.0683 
  51   0.0000       2.888227        78.5927 
  52   0.0000       2.925526        79.6076 
  53   0.0000       2.925526        79.6076 
  54   0.0000      58.895587      1602.6304 

                 SPIN DOWN ORBITALS
  NO   OCC          E(Eh)            E(eV) 
   0   1.0000      -7.741836      -210.6661 
   1   1.0000      -5.568997      -151.5401 
   2   1.0000      -5.565572      -151.4469 
   3   1.0000      -5.565572      -151.4469 
   4   1.0000      -2.301899       -62.6378 
   5   1.0000      -2.298364       -62.5417 
   6   1.0000      -2.298364       -62.5417 
   7   1.0000      -2.288204       -62.2652 
   8   1.0000      -2.288204       -62.2652 
   9   1.0000      -0.833042       -22.6682 
  10   1.0000      -0.382413       -10.4060 
  11   1.0000      -0.382413       -10.4060 
  12   0.0000      -0.052530        -1.4294 
  13   0.0000       0.075618         2.0577 
  14   0.0000       0.103417         2.8141 
  15   0.0000       0.103417         2.8141 
  16   0.0000       0.110639         3.0106 
  17   0.0000       0.198870         5.4115 
  18   0.0000       0.198870         5.4115 
  19   0.0000       0.203505         5.5376 
  20   0.0000       0.203505         5.5376 
  21   0.0000       0.205176         5.5831 
  22   0.0000       0.417303        11.3554 
  23   0.0000       0.561815        15.2878 
  24   0.0000       0.561815        15.2878 
  25   0.0000       0.576750        15.6942 
  26   0.0000       0.578563        15.7435 
  27   0.0000       0.578563        15.7435 
  28   0.0000       0.592680        16.1276 
  29   0.0000       0.592680        16.1276 
  30   0.0000       0.597899        16.2697 
  31   0.0000       0.662831        18.0366 
  32   0.0000       0.663457        18.0536 
  33   0.0000       0.663457        18.0536 
  34   0.0000       0.665680        18.1141 
  35   0.0000       0.665680        18.1141 
  36   0.0000       0.669399        18.2153 
  37   0.0000       0.669399        18.2153 
  38   0.0000       1.493055        40.6281 
  39   0.0000       1.498834        40.7853 
  40   0.0000       1.500104        40.8199 
  41   0.0000       1.500104        40.8199 
  42   0.0000       1.503813        40.9208 
  43   0.0000       1.503813        40.9208 
  44   0.0000       1.509663        41.0800 
  45   0.0000       1.509663        41.0800 
  46   0.0000       1.803701        49.0812 
  47   0.0000       1.804196        49.0947 
  48   0.0000       1.804196        49.0947 
  49   0.0000       1.805676        49.1349 
  50   0.0000       1.805676        49.1349 
  51   0.0000       2.925851        79.6164 
  52   0.0000       2.930348        79.7388 
  53   0.0000       2.930348        79.7388 
  54   0.0000      58.897635      1602.6861 

                    ********************************
                    * MULLIKEN POPULATION ANALYSIS *
                    ********************************

--------------------------------------------
MULLIKEN ATOMIC CHARGES AND SPIN POPULATIONS
--------------------------------------------
   0 I :   -0.000000    1.000000
Sum of atomic charges         :   -0.0000000
Sum of atomic spin populations:    1.0000000

-----------------------------------------------------
MULLIKEN REDUCED ORBITAL CHARGES AND SPIN POPULATIONS
-----------------------------------------------------
CHARGE
  0 I s       :     3.996077  s :     3.996077
      pz      :     2.999215  p :    10.997155
      px      :     3.999115
      py      :     3.998825
      dz2     :     2.003919  d :    10.003923
      dxz     :     2.000000
      dyz     :     2.000003
      dx2y2   :     2.000000
      dxy     :     2.000000
      f0      :     0.001075  f :     0.002845
      f+1     :     0.000884
      f-1     :     0.000884
      f+2     :     0.000001
      f-2     :     0.000001
      f+3     :     0.000000
      f-3     :     0.000000

SPIN
  0 I s       :     0.001060  s :     0.001060
      pz      :     0.998635  p :     0.997397
      px      :    -0.000764
      py      :    -0.000474
      dz2     :    -0.001059  d :    -0.001060
      dxz     :    -0.000000
      dyz     :    -0.000001
      dx2y2   :    -0.000000
      dxy     :    -0.000000
      f0      :     0.001075  f :     0.002603
      f+1     :     0.000763
      f-1     :     0.000764
      f+2     :     0.000001
      f-2     :     0.000001
      f+3     :     0.000000
      f-3     :     0.000000


                     *******************************
                     * LOEWDIN POPULATION ANALYSIS *
                     *******************************

-------------------------------------------
LOEWDIN ATOMIC CHARGES AND SPIN POPULATIONS
-------------------------------------------
   0 I :   -0.000000    1.000000

----------------------------------------------------
LOEWDIN REDUCED ORBITAL CHARGES AND SPIN POPULATIONS
----------------------------------------------------
CHARGE
  0 I s       :     3.996077  s :     3.996077
      pz      :     2.999215  p :    10.997155
      px      :     3.999115
      py      :     3.998825
      dz2     :     2.003919  d :    10.003923
      dxz     :     2.000000
      dyz     :     2.000003
      dx2y2   :     2.000000
      dxy     :     2.000000
      f0      :     0.001075  f :     0.002845
      f+1     :     0.000884
      f-1     :     0.000884
      f+2     :     0.000001
      f-2     :     0.000001
      f+3     :     0.000000
      f-3     :     0.000000

SPIN
  0 I s       :     0.001060  s :     0.001060
      pz      :     0.998635  p :     0.997397
      px      :    -0.000764
      py      :    -0.000474
      dz2     :    -0.001059  d :    -0.001060
      dxz     :    -0.000000
      dyz     :    -0.000001
      dx2y2   :    -0.000000
      dxy     :    -0.000000
      f0      :     0.001075  f :     0.002603
      f+1     :     0.000763
      f-1     :     0.000764
      f+2     :     0.000001
      f-2     :     0.000001
      f+3     :     0.000000
      f-3     :     0.000000


                      *****************************
                      * MAYER POPULATION ANALYSIS *
                      *****************************

  NA   - Mulliken gross atomic population
  ZA   - Total nuclear charge
  QA   - Mulliken gross atomic charge
  VA   - Mayer's total valence
  BVA  - Mayer's bonded valence
  FA   - Mayer's free valence

  ATOM       NA         ZA         QA         VA         BVA        FA
  0 I     25.0000    25.0000    -0.0000     1.0216     0.0000     1.0216

  Mayer bond orders larger than 0.100000


-------
TIMINGS
-------

Total SCF time: 0 days 0 hours 0 min 5 sec 

Total time                  ....       5.217 sec
Sum of individual times     ....       4.802 sec  ( 92.1%)

Fock matrix formation       ....       2.966 sec  ( 56.9%)
Diagonalization             ....       0.103 sec  (  2.0%)
Density matrix formation    ....       0.007 sec  (  0.1%)
Population analysis         ....       0.071 sec  (  1.4%)
Initial guess               ....       1.324 sec  ( 25.4%)
Orbital Transformation      ....       0.000 sec  (  0.0%)
Orbital Orthonormalization  ....       0.000 sec  (  0.0%)
DIIS solution               ....       0.262 sec  (  5.0%)


           ************************************************************
           *        Program running with 24 parallel MPI-processes    *
           *              working on a common directory               *
           ************************************************************


------------------------------------------------------------------------------- 
                              ORCA-MATRIX DRIVEN CI                            
------------------------------------------------------------------------------- 

--------------------------------
AUTOMATIC CHOICE OF INCORE LEVEL
--------------------------------

Memory available                           ...   2500.00 MB
Memory needed for S+T                      ...      1.82 MB
Memory needed for J+K                      ...      3.66 MB
Memory needed for DIIS                     ...     25.44 MB
Memory needed for 3-ext                    ...      5.09 MB
Memory needed for 4-ext                    ...     12.15 MB
Memory needed for triples                  ...      2.83 MB
 -> Final InCoreLevel    ... 5
 -> check shows that triples correction can be computed


Wavefunction type
-----------------
Correlation treatment                      ...      CCSD     
Single excitations                         ... ON
Orbital optimization                       ... OFF
Calculation of Z vector                    ... OFF
Calculation of Brueckner orbitals          ... OFF
Perturbative triple excitations            ... ON
Calculation of F12 correction              ... OFF
Frozen core treatment                      ... chemical core (8 el)
Reference Wavefunction                     ... UHF
  Alpha-MOs occ    :     4 ...   12 (  9 MO's/  9 electrons)
  Beta-MOs occ     :     4 ...   11 (  8 MO's/  8 electrons)
  Alpha-MOs virt   :    13 ...   54 ( 42 MO's              )
  Beta-MOs virt    :    12 ...   54 ( 43 MO's              )
Number of AO's                             ...     55
Number of electrons                        ...     25
Number of correlated electrons             ...     17

Algorithmic settings
--------------------
Integral transformation                    ... AO direct full transformation
K(C) Formation                             ... FULL-MO TRAFO
Maximum number of iterations               ...        50
Convergence tolerance (max. residuum)      ... 1.000e-05
Level shift for amplitude update           ... 2.000e-01
Maximum number of DIIS vectors             ...         7
DIIS turned on at iteration                ...         0
Damping before turning on DIIS             ...     0.500
Damping after turning on DIIS              ...     0.000
Pair specific amplitude update             ... OFF
Natural orbital iterations                 ... OFF
Perturbative natural orbital generation    ... OFF
Printlevel                                 ... 2

Memory handling:
----------------
Maximum memory for working arrays          ...   2500 MB
Data storage in matrix containers          ... UNCOMPRESSED
Data type for integral storage             ... DOUBLE
In-Core Storage of quantities:
   Amplitudes+Sigma Vector      ... YES
   J+K operators                ... YES
   DIIS vectors                 ... YES
   3-external integrals         ... YES
   4-external integrals         ... YES


Initializing the integral package          ... done
Warning: reference  - re-canonicalizations have been set to INT 1 VIRT 1

--------------------------
UNRESTRICTED FOCK OPERATOR
--------------------------

<ss|ss>:          231 b            0 skpd (  0.0%)    0.001 s ( 0.004 ms/b)
<ss|sp>:          630 b            0 skpd (  0.0%)    0.003 s ( 0.004 ms/b)
<ss|sd>:          504 b            0 skpd (  0.0%)    0.002 s ( 0.003 ms/b)
<ss|sf>:          252 b            0 skpd (  0.0%)    0.000 s ( 0.001 ms/b)
<ss|pp>:          315 b            0 skpd (  0.0%)    0.005 s ( 0.015 ms/b)
<ss|pd>:          420 b            0 skpd (  0.0%)    0.003 s ( 0.007 ms/b)
<ss|pf>:          210 b            0 skpd (  0.0%)    0.001 s ( 0.003 ms/b)
<ss|dd>:          210 b            0 skpd (  0.0%)    0.003 s ( 0.013 ms/b)
<ss|df>:          168 b            0 skpd (  0.0%)    0.001 s ( 0.004 ms/b)
<ss|ff>:           63 b            0 skpd (  0.0%)    0.000 s ( 0.004 ms/b)
<sp|sp>:          465 b            0 skpd (  0.0%)    0.003 s ( 0.007 ms/b)
<sp|sd>:          720 b            0 skpd (  0.0%)    0.003 s ( 0.005 ms/b)
<sp|sf>:          360 b            0 skpd (  0.0%)    0.001 s ( 0.002 ms/b)
<sp|pp>:          450 b            0 skpd (  0.0%)    0.006 s ( 0.013 ms/b)
<sp|pd>:          600 b            0 skpd (  0.0%)    0.007 s ( 0.011 ms/b)
<sp|pf>:          300 b            0 skpd (  0.0%)    0.002 s ( 0.005 ms/b)
<sp|dd>:          300 b            0 skpd (  0.0%)    0.009 s ( 0.028 ms/b)
<sp|df>:          240 b            0 skpd (  0.0%)    0.002 s ( 0.008 ms/b)
<sp|ff>:           90 b            0 skpd (  0.0%)    0.001 s ( 0.007 ms/b)
<sd|sd>:          300 b            0 skpd (  0.0%)    0.003 s ( 0.010 ms/b)
<sd|sf>:          288 b            0 skpd (  0.0%)    0.001 s ( 0.003 ms/b)
<sd|pp>:          360 b            0 skpd (  0.0%)    0.005 s ( 0.014 ms/b)
<sd|pd>:          480 b            0 skpd (  0.0%)    0.007 s ( 0.014 ms/b)
<sd|pf>:          240 b            0 skpd (  0.0%)    0.002 s ( 0.007 ms/b)
<sd|dd>:          240 b            0 skpd (  0.0%)    0.009 s ( 0.039 ms/b)
<sd|df>:          192 b            0 skpd (  0.0%)    0.003 s ( 0.013 ms/b)
<sd|ff>:           72 b            0 skpd (  0.0%)    0.001 s ( 0.017 ms/b)
<sf|sf>:           78 b            0 skpd (  0.0%)    0.000 s ( 0.003 ms/b)
<sf|pp>:          180 b            0 skpd (  0.0%)    0.002 s ( 0.012 ms/b)
<sf|pd>:          240 b            0 skpd (  0.0%)    0.003 s ( 0.012 ms/b)
<sf|pf>:          120 b            0 skpd (  0.0%)    0.001 s ( 0.006 ms/b)
<sf|dd>:          120 b            0 skpd (  0.0%)    0.004 s ( 0.037 ms/b)
<sf|df>:           96 b            0 skpd (  0.0%)    0.001 s ( 0.014 ms/b)
<sf|ff>:           36 b            0 skpd (  0.0%)    0.001 s ( 0.016 ms/b)
<pp|pp>:          120 b            0 skpd (  0.0%)    0.007 s ( 0.059 ms/b)
<pp|pd>:          300 b            0 skpd (  0.0%)    0.010 s ( 0.033 ms/b)
<pp|pf>:          150 b            0 skpd (  0.0%)    0.002 s ( 0.016 ms/b)
<pp|dd>:          150 b            0 skpd (  0.0%)    0.014 s ( 0.092 ms/b)
<pp|df>:          120 b            0 skpd (  0.0%)    0.004 s ( 0.031 ms/b)
<pp|ff>:           45 b            0 skpd (  0.0%)    0.001 s ( 0.025 ms/b)
<pd|pd>:          210 b            0 skpd (  0.0%)    0.015 s ( 0.071 ms/b)
<pd|pf>:          200 b            0 skpd (  0.0%)    0.004 s ( 0.019 ms/b)
<pd|dd>:          200 b            0 skpd (  0.0%)    0.022 s ( 0.109 ms/b)
<pd|df>:          160 b            0 skpd (  0.0%)    0.006 s ( 0.040 ms/b)
<pd|ff>:           60 b            0 skpd (  0.0%)    0.002 s ( 0.035 ms/b)
<pf|pf>:           55 b            0 skpd (  0.0%)    0.002 s ( 0.029 ms/b)
<pf|dd>:          100 b            0 skpd (  0.0%)    0.009 s ( 0.086 ms/b)
<pf|df>:           80 b            0 skpd (  0.0%)    0.003 s ( 0.034 ms/b)
<pf|ff>:           30 b            0 skpd (  0.0%)    0.001 s ( 0.044 ms/b)
<dd|dd>:           55 b            0 skpd (  0.0%)    0.016 s ( 0.287 ms/b)
<dd|df>:           80 b            0 skpd (  0.0%)    0.005 s ( 0.060 ms/b)
<dd|ff>:           30 b            0 skpd (  0.0%)    0.002 s ( 0.057 ms/b)
<df|df>:           36 b            0 skpd (  0.0%)    0.002 s ( 0.048 ms/b)
<df|ff>:           24 b            0 skpd (  0.0%)    0.002 s ( 0.067 ms/b)
<ff|ff>:            6 b            0 skpd (  0.0%)    0.001 s ( 0.102 ms/b)
Recanonicalizing the internal orbitals
Recanonicalizing the virtual orbitals
Time needed for Fock operator              ...            0.265 sec
Reference energy                           ...   -294.661882575
Warning: for UHF the TrafoType has to be JK
Warning: for UHF the K(C)-option cannot be MO but must be AOX

-------------------------------
PARTIAL EXCHANGE TRANSFORMATION
-------------------------------

Transformation type                        ... two-operators
Generation of integrals (i,mue|j,nue)      ... ON
Generation of integrals (mue,kappa|nue,tau)... ON
Generation of integrals (i,mue|a,nue)      ... ON
Dimension of the basis                     ...   55
Number of internal alpha-MOs               ...    9 (   4-  12)
Number of internal beta-MOs                ...    8 (   4-  11)
Number of external alpha-MOs               ...   42 (  13-  54)
Number of external beta-MOs                ...   43 (  12-  54)
Pair cutoff                                ... 0.000e+00 Eh
Number of AO pairs in the trafo            ... 1540
Total Number of distinct AO pairs          ... 1540
Memory devoted for trafo                   ... 2500.0 MB 
Max. Number of MO pairs treated together   ... 108323      
Number Format for Storage                  ... Double (8 Byte)
Integral package used                      ... LIBINT

Starting integral evaluation:
    ... done with AO integral generation
Closing buffer AOK[aa] ( 0.00 GB; CompressionRatio= 0.00)
Closing buffer AOK[bb] ( 0.00 GB; CompressionRatio= 0.00)
Closing buffer AOK[ab] ( 0.00 GB; CompressionRatio= 0.00)
Closing buffer AOK[ba] ( 0.00 GB; CompressionRatio= 0.00)
Collecting buffer AOK 
Closing buffer IAAO1[aa] ( 0.00 GB; CompressionRatio= 0.00)
Closing buffer IAAO1[bb] ( 0.00 GB; CompressionRatio= 0.00)
Closing buffer IAAO1[ab] ( 0.00 GB; CompressionRatio= 0.00)
Closing buffer IAAO1[ba] ( 0.00 GB; CompressionRatio= 0.00)
Closing buffer IAAO2[aa] ( 0.00 GB; CompressionRatio= 0.00)
Closing buffer IAAO2[bb] ( 0.00 GB; CompressionRatio= 0.00)
Closing buffer IAAO2[ab] ( 0.00 GB; CompressionRatio= 0.00)
Closing buffer IAAO2[ba] ( 0.00 GB; CompressionRatio= 0.00)
Collecting buffer IAAO 
Closing buffer PRQS    ( 0.00 GB; CompressionRatio= 0.00)
Collecting buffer PRQS 
Number of alpha/alpha MO pairs in trafo    ...   45
Number of beta /beta  MO pairs in trafo    ...   36
Number of alpha/ beta MO pairs in trafo    ...   72
------------------------
SORTING OF (i,mue|j,nue)
------------------------

SORTING OF ALPHA/ALPHA PAIRS
IBATCH = 1 of  1
Closing buffer KAO[aa] ( 0.00 GB; CompressionRatio= 1.00)
Collecting buffer KAO 
SORTING OF BETA /BETA  PAIRS
IBATCH = 1 of  1
Closing buffer KAO[bb] ( 0.00 GB; CompressionRatio= 1.00)
Collecting buffer KAO 
SORTING OF ALPHA/BETA  PAIRS
IBATCH = 1 of  1
Closing buffer KAO[ab] ( 0.00 GB; CompressionRatio= 0.999504377994)
Collecting buffer KAO[ab] 
------------------------
SORTING OF (i,mue|a,nue)
------------------------

Number of alpha/alpha (i,a) pairs in trafo  ...  378
Number of beta /beta  (i,a) pairs in trafo  ...  344
Number of alpha/ beta (i,a) pairs in trafo  ...  387
Number of beta /alpha (i,a) pairs in trafo  ...  336
Setting up the alpha/alpha list             ... done
Setting up the beta /beta  list             ... done
Setting up the alpha/beta  list             ... done
Setting up the beta /alpha list             ... done
    ... Now sorting (i,mue|a,nue)integrals
    ... Integrals (i,b|a,c) will be made on the fly
SORTING OF ALPHA/ALPHA PAIRS
IBATCH = 1 of  1
Closing buffer IPAQ[aa]  0.00 GB; CompressionRatio= 1.00)
SORTING OF BETA /BETA  PAIRS
IBATCH = 1 of  1
Closing buffer IPAQ[bb]( 0.00 GB; CompressionRatio= 1.00)
SORTING OF ALPHA/BETA  PAIRS (NMatSort_ab=17)
IBATCH = 1 of  1
Closing buffer IPAQ[ab]( 0.00 GB; CompressionRatio= 1.00)
SORTING OF BETA/ALPHA  PAIRS
IBATCH = 1 of  1
Closing buffer IPAQ[ba]( 0.00 GB; CompressionRatio= 1.00)
N(AO-Batches) Done                         ...         0 
N(AO-Batches) Skipped                      ...         0 
N(IJ)-pairs Skipped                        ...         0 
TOTAL TIME for half transformation         ...     3.068 sec
AO-integral generation                     ...     0.000 sec
Half transformation                        ...     0.000 sec
K-integral sorting                         ...     0.808 sec
<ss|**>: 
------------------------------
PARTIAL COULOMB TRANSFORMATION
------------------------------

Transformation type                        ... two-operators
Dimension of the basis                     ...   55
Number of internal alpha-MOs               ...    9 (4-12)
Number of internal beta-MOs                ...    8 (4-11)
Pair cutoff                                ... 0.000e+00 Eh
Number of AO pairs included in the trafo   ... 1540
Total Number of distinct AO pairs          ... 1540
Memory devoted for trafo                   ... 2500.0 MB 
Max. Number of MO pairs treated together   ... 212779      
Max. Number of MOs treated per batch       ... 3868      
Number Format for Storage                  ... Double (8 Byte)
AO-integral source                         ... DIRECT
Integral package used                      ... LIBINT

Starting integral evaluation:
<sp|**>:         3213 b        0 skpd     0.024 s (  0.007 ms/b)
<sd|**>:         4590 b        0 skpd     0.025 s (  0.006 ms/b)
<sf|**>:         3672 b        0 skpd     0.033 s (  0.009 ms/b)
<pp|**>:         1836 b        0 skpd     0.017 s (  0.009 ms/b)
<pd|**>:         2295 b        0 skpd     0.049 s (  0.022 ms/b)
        3060 b        0 skpd     0.077 s (  0.025 ms/b)
<pf|**>:         1530 b        0 skpd     0.041 s (  0.027 ms/b)
<dd|**>:         1530 b        0 skpd     0.106 s (  0.069 ms/b)
<df|**>:         1224 b        0 skpd     0.063 s (  0.051 ms/b)
<ff|**>:          459 b        0 skpd     0.050 s (  0.109 ms/b)
Closing buffer AOJ[aa] ( 0.00 GB; CompressionRatio= 0.97)
Closing buffer AOJ[bb] ( 0.00 GB; CompressionRatio= 0.00)
Collecting buffer AOJ 
    ... done with AO integral generation
Number of Alpha-MO pairs included          ...   45
Number of Beta-MO pairs included           ...   36
    ... Now sorting integrals
SORTING ALPHA/ALPHA PAIRS
IBATCH = 1 of  1
Closing buffer JAO[aa] ( 0.00 GB; CompressionRatio= 1.00)
SORTING BETA/BETA PAIRS
IBATCH = 1 of  1
Closing buffer JAO[bb] ( 0.00 GB; CompressionRatio= 1.00)
Collecting buffer JAO 
TOTAL TIME for half transformation         ...     0.738 sec
AO-integral generation                     ...     0.379 sec
Half transformation                        ...     0.107 sec
J-integral sorting                         ...     0.124 sec

-------------------------- SECOND HALF TRANSFORMATION -------------------------
Formation of (ij|kl),(ij|ka), (ij|ab)      ... ok (     0.147 sec)
Formation of (ik|jl),(ik|ja), (ia|jb)      ... ok (     0.235 sec)


-----------------------
SPIN UNRESTRICTED GUESS
-----------------------

Entering MDCI_UHF_Guess, Tailored=0
Spin-components of the MP2 energy:
EMP2(aa)=     -0.032821820
EMP2(bb)=     -0.021190303
EMP2(ab)=     -0.130002415

Initial guess performed in     0.010 sec
E(0)                                       ...   -294.661882575
E(MP2)                                     ...     -0.184014538
Initial E(tot)                             ...   -294.845897114
<T|T>                                      ...      0.066132054
Number of pairs included                   ... 136

------------------------------------------------
                  UHF COUPLED CLUSTER ITERATIONS
------------------------------------------------

Number of amplitudes to be optimized       ...       188017

Iter       E(tot)           E(Corr)          Delta-E          Residual     Time      <S|S>**1/2
  0   -294.845897114     -0.184014538     -0.000000000      0.015431511    0.32      0.000000613
                           *** Turning on DIIS ***
  1   -294.853757059     -0.191874484     -0.007859946      0.006161094    0.30      0.014027122
  2   -294.858316583     -0.196434008     -0.004559524      0.002373353    0.31      0.018373014
  3   -294.859216694     -0.197334119     -0.000900111      0.000709905    0.31      0.020446560
  4   -294.859358638     -0.197476063     -0.000141944      0.000133018    0.31      0.021302450
  5   -294.859367891     -0.197485316     -0.000009253      0.000034723    0.31      0.021430917
  6   -294.859368415     -0.197485840     -0.000000524      0.000013879    0.32      0.021450057
  7   -294.859368382     -0.197485807      0.000000033      0.000004499    0.31      0.021451821
               --- The Coupled-Cluster iterations have converged ---

----------------------
COUPLED CLUSTER ENERGY
----------------------

E(0)                                       ...   -294.661882575
E(CORR)                                    ...     -0.197485807
E(TOT)                                     ...   -294.859368382
Singles norm <S|S>**1/2                    ...      0.021451821 ( 0.008019432, 0.013432389)  
T1 diagnostic                              ...      0.005202831                              

------------------
LARGEST AMPLITUDES
------------------
  10a-> 24a   9b-> 12b       0.035082
  10a-> 17a   9b-> 12b       0.030687
  12a-> 26a   9b-> 12b       0.030435
  11a-> 25a   9b-> 12b       0.030435
  11a-> 18a   9b-> 12b       0.026204
  12a-> 19a   9b-> 12b       0.026204
  12a-> 26a  11b-> 29b       0.023992
  11a-> 25a  10b-> 28b       0.023992
  11a-> 30a  10b-> 27b       0.022892
  12a-> 29a  11b-> 26b       0.022892
  11a-> 29a  10b-> 26b       0.022892
  12a-> 30a  11b-> 27b       0.022892
  12a-> 19a  11b-> 29b       0.020624
  11a-> 18a  10b-> 28b       0.020624
  10a-> 33a  11b-> 12b       0.020558
  10a-> 32a  10b-> 12b       0.020558

----------------------
UHF TRIPLES CORRECTION (Algorithm 1)
----------------------

Multiplier for the singles contribution    ...      1.000000000

SPIN-CASE Alpha-Alpha-Alpha:
10% done
20% done
30% done
40% done
50% done
60% done
70% done
80% done
90% done


SPIN-CASE Beta-Beta-Beta:
10% done
20% done
30% done
40% done
50% done
60% done
70% done
80% done
90% done


SPIN-CASE Alpha-Alpha-Beta:
10% done
20% done
30% done
40% done
50% done
60% done
70% done
80% done
90% done


SPIN-CASE Beta-Beta-Alpha:
10% done
20% done
30% done
40% done
50% done
60% done
70% done
80% done
90% done


Triples Correction (T)                     ...     -0.006044334
    alpha-alpha-alpha ... -0.000277237 (  4.6%)
    alpha-alpha-beta  ... -0.003262474 ( 54.0%)
    alpha-beta -beta  ... -0.002386255 ( 39.5%)
    beta -beta -beta  ... -0.000118369 (  2.0%)
Scaling of triples based on CCSD energies (Peterson et al. Molecular Physics 113, 1551 (2015))
E(T*) = f*E(T) where f = E(F12-CCSD)/E(CCSD) 
f = CCSD (with F12)/ CCSD (without F12)    ...      1.000000000
Scaled triples correction (T)              ...     -0.006044334

Final correlation energy                   ...     -0.203530141
E(CCSD)                                    ...   -294.859368382
E(CCSD(T))                                 ...   -294.865412716



        !!!!!!!!!!!!!!!!!!!!!!!!!!!!!!!!!!!!!!!!!!!!!!!!!!!!!!!!!!!!!!!!!!!!!!!!!! 
        !  Warning: Densities are linearized densities                           !
        !!!!!!!!!!!!!!!!!!!!!!!!!!!!!!!!!!!!!!!!!!!!!!!!!!!!!!!!!!!!!!!!!!!!!!!!!! 

NORM  =      1.083262070 sqrt=     1.040798765
W(HF) =      0.923137648
------------------------------------------------------------------------------
                           ORCA POPULATION ANALYSIS
------------------------------------------------------------------------------
Input electron density              ... 53_I.mdcip
Input spin density                  ... 53_I.mdcir
BaseName (.gbw .S,...)              ... 53_I

                    ********************************
                    * MULLIKEN POPULATION ANALYSIS *
                    ********************************

------------------------------------------
MULLIKEN ATOMIC CHARGES AND SPIN DENSITIES
------------------------------------------
   0 I :   -0.000000    1.000000
Sum of atomic charges       :   -0.0000000
Sum of atomic spin densities:    1.0000000

---------------------------------------------------
MULLIKEN REDUCED ORBITAL CHARGES AND SPIN DENSITIES
---------------------------------------------------
CHARGE
  0 I s       :     3.975341  s :     3.975341
      pz      :     2.998885  p :    10.915335
      px      :     3.958364
      py      :     3.958086
      dz2     :     2.014588  d :    10.081790
      dxz     :     2.015391
      dyz     :     2.015390
      dx2y2   :     2.018210
      dxy     :     2.018210
      f0      :     0.004244  f :     0.027534
      f+1     :     0.004104
      f-1     :     0.004104
      f+2     :     0.003881
      f-2     :     0.003881
      f+3     :     0.003659
      f-3     :     0.003659

SPIN
  0 I s       :     0.008283  s :     0.008283
      pz      :     0.968090  p :     0.968107
      px      :    -0.000132
      py      :     0.000149
      dz2     :     0.007339  d :     0.016345
      dxz     :     0.005196
      dyz     :     0.005198
      dx2y2   :    -0.000694
      dxy     :    -0.000694
      f0      :     0.001960  f :     0.007265
      f+1     :     0.001699
      f-1     :     0.001699
      f+2     :     0.001005
      f-2     :     0.001005
      f+3     :    -0.000051
      f-3     :    -0.000051


                     *******************************
                     * LOEWDIN POPULATION ANALYSIS *
                     *******************************

-----------------------------------------
LOEWDIN ATOMIC CHARGES AND SPIN DENSITIES
-----------------------------------------
   0 I :   -0.000000    1.000000

--------------------------------------------------
LOEWDIN REDUCED ORBITAL CHARGES AND SPIN DENSITIES
--------------------------------------------------
CHARGE
  0 I s       :     3.975341  s :     3.975341
      pz      :     2.998885  p :    10.915335
      px      :     3.958364
      py      :     3.958086
      dz2     :     2.014588  d :    10.081790
      dxz     :     2.015391
      dyz     :     2.015390
      dx2y2   :     2.018210
      dxy     :     2.018210
      f0      :     0.004244  f :     0.027534
      f+1     :     0.004104
      f-1     :     0.004104
      f+2     :     0.003881
      f-2     :     0.003881
      f+3     :     0.003659
      f-3     :     0.003659

SPIN
  0 I s       :     0.008283  s :     0.008283
      pz      :     0.968090  p :     0.968107
      px      :    -0.000132
      py      :     0.000149
      dz2     :     0.007339  d :     0.016345
      dxz     :     0.005196
      dyz     :     0.005198
      dx2y2   :    -0.000694
      dxy     :    -0.000694
      f0      :     0.001960  f :     0.007265
      f+1     :     0.001699
      f-1     :     0.001699
      f+2     :     0.001005
      f-2     :     0.001005
      f+3     :    -0.000051
      f-3     :    -0.000051


                      *****************************
                      * MAYER POPULATION ANALYSIS *
                      *****************************

  NA   - Mulliken gross atomic population
  ZA   - Total nuclear charge
  QA   - Mulliken gross atomic charge
  VA   - Mayer's total valence
  BVA  - Mayer's bonded valence
  FA   - Mayer's free valence

  ATOM       NA         ZA         QA         VA         BVA        FA
  0 I     25.0000    25.0000    -0.0000     1.5935     0.0000     1.5935





------------------------------------------------------------------------------- 
                                     TIMINGS                                   
------------------------------------------------------------------------------- 


Total execution time                   ...        7.662 sec

Fock Matrix Formation                  ...        0.265 sec (  3.5%)
Initial Guess                          ...        0.010 sec (  0.1%)
DIIS Solver                            ...        0.105 sec (  1.4%)
State Vector Update                    ...        0.007 sec (  0.1%)
Sigma-vector construction              ...        2.390 sec ( 31.2%)
  <D|H|D>(0-ext Fock)                  ...        0.002 sec (  0.1% of sigma)
  <D|H|D>(0-ext)                       ...        0.005 sec (  0.2% of sigma)
  <D|H|D>(2-ext)                       ...        0.027 sec (  1.1% of sigma)
  <D|H|D>(4-ext)                       ...        0.433 sec ( 18.1% of sigma)
  <S|H|0>                              ...        0.040 sec (  1.7% of sigma)
  <D|H|S>(1-ext)                       ...        0.011 sec (  0.5% of sigma)
  Fock-dressing                        ...        1.496 sec ( 62.6% of sigma)
  (ik|jl)-dressing                     ...        0.007 sec (  0.3% of sigma)
  (ij|ab),(ia|jb)-dressing             ...        0.282 sec ( 11.8% of sigma)
  Pair energies                        ...        0.001 sec (  0.0% of sigma)
Total Time for computing (T)           ...        0.124 sec (  1.6% of ALL)
  I/O of integral and amplitudes       ...        0.024 sec ( 19.6% of (T))
  External N**7 contributions          ...        0.032 sec ( 26.1% of (T))
  Internal N**7 contributions          ...        0.011 sec (  9.0% of (T))
  N**6 triples energy contributions    ...        0.050 sec ( 40.1% of (T))


-------------------------   --------------------
FINAL SINGLE POINT ENERGY      -294.865412716143
-------------------------   --------------------


                            ***************************************
                            *     ORCA property calculations      *
                            ***************************************

                                    ---------------------
                                    Active property flags
                                    ---------------------
   (+) Dipole Moment


------------------------------------------------------------------------------
                       ORCA ELECTRIC PROPERTIES CALCULATION
------------------------------------------------------------------------------

Dipole Moment Calculation                       ... on
Quadrupole Moment Calculation                   ... off
Polarizability Calculation                      ... off
GBWName                                         ... 53_I.gbw
Electron density file                           ... 53_I.scfp
The origin for moment calculation is the CENTER OF MASS  = ( 0.000000,  0.000000  0.000000)

-------------
DIPOLE MOMENT
-------------
                                X             Y             Z
Electronic contribution:     -0.00000       0.00000       0.00000
Nuclear contribution   :      0.00000       0.00000       0.00000
                        -----------------------------------------
Total Dipole Moment    :     -0.00000       0.00000       0.00000
                        -----------------------------------------
Magnitude (a.u.)       :      0.00000
Magnitude (Debye)      :      0.00000



--------------------
Rotational spectrum 
--------------------
 
Rotational constants in cm-1:     0.000000     0.000000     0.000000 
Rotational constants in MHz :     0.000000     0.000000     0.000000 

 Dipole components along the rotational axes: 
x,y,z [a.u.] :    -0.000000     0.000000     0.000000 
x,y,z [Debye]:    -0.000000     0.000000     0.000000 

 

                           *** MDCI DENSITY ***

------------------------------------------------------------------------------
                       ORCA ELECTRIC PROPERTIES CALCULATION
------------------------------------------------------------------------------

Dipole Moment Calculation                       ... on
Quadrupole Moment Calculation                   ... off
Polarizability Calculation                      ... off
GBWName                                         ... 53_I.gbw
Electron density file                           ... 53_I.mdcip
The origin for moment calculation is the CENTER OF MASS  = ( 0.000000,  0.000000  0.000000)

-------------
DIPOLE MOMENT
-------------
                                X             Y             Z
Electronic contribution:     -0.00000      -0.00000       0.00000
Nuclear contribution   :      0.00000       0.00000       0.00000
                        -----------------------------------------
Total Dipole Moment    :     -0.00000      -0.00000       0.00000
                        -----------------------------------------
Magnitude (a.u.)       :      0.00000
Magnitude (Debye)      :      0.00000



--------------------
Rotational spectrum 
--------------------
 
Rotational constants in cm-1:     0.000000     0.000000     0.000000 
Rotational constants in MHz :     0.000000     0.000000     0.000000 

 Dipole components along the rotational axes: 
x,y,z [a.u.] :    -0.000000    -0.000000     0.000000 
x,y,z [Debye]:    -0.000000    -0.000000     0.000000 

 

Timings for individual modules:

Sum of individual times         ...       14.708 sec (=   0.245 min)
GTO integral calculation        ...        0.964 sec (=   0.016 min)   6.6 %
SCF iterations                  ...        5.619 sec (=   0.094 min)  38.2 %
MDCI module                     ...        8.124 sec (=   0.135 min)  55.2 %
                             ****ORCA TERMINATED NORMALLY****
TOTAL RUN TIME: 0 days 0 hours 0 minutes 15 seconds 461 msec
