
                                 *****************
                                 * O   R   C   A *
                                 *****************

           --- An Ab Initio, DFT and Semiempirical electronic structure package ---

                  #######################################################
                  #                        -***-                        #
                  #          Department of theory and spectroscopy      #
                  #               Directorship: Frank Neese             #
                  #        Max Planck Institute fuer Kohlenforschung    #
                  #                Kaiser Wilhelm Platz 1               #
                  #                 D-45470 Muelheim/Ruhr               #
                  #                      Germany                        #
                  #                                                     #
                  #                  All rights reserved                #
                  #                        -***-                        #
                  #######################################################


                         Program Version 4.2.0 -  RELEASE  -


 With contributions from (in alphabetic order):
   Daniel Aravena         : Magnetic Suceptibility
   Michael Atanasov       : Ab Initio Ligand Field Theory (pilot matlab implementation)
   Alexander A. Auer      : GIAO ZORA, VPT2
   Ute Becker             : Parallelization
   Giovanni Bistoni       : ED, misc. LED, open-shell LED, HFLED
   Martin Brehm           : Molecular dynamics
   Dmytro Bykov           : SCF Hessian
   Vijay G. Chilkuri      : MRCI spin determinant printing, contributions to CSF-ICE
   Dipayan Datta          : RHF DLPNO-CCSD density
   Achintya Kumar Dutta   : EOM-CC, STEOM-CC
   Dmitry Ganyushin       : Spin-Orbit,Spin-Spin,Magnetic field MRCI
   Miquel Garcia          : C-PCM Hessian, Gaussian charge scheme
   Yang Guo               : DLPNO-NEVPT2, CIM, IAO-localization
   Andreas Hansen         : Spin unrestricted coupled pair/coupled cluster methods
   Benjamin Helmich-Paris : CASSCF linear response (MC-RPA)
   Lee Huntington         : MR-EOM, pCC
   Robert Izsak           : Overlap fitted RIJCOSX, COSX-SCS-MP3, EOM
   Christian Kollmar      : KDIIS, OOCD, Brueckner-CCSD(T), CCSD density
   Simone Kossmann        : Meta GGA functionals, TD-DFT gradient, OOMP2, MP2 Hessian
   Martin Krupicka        : AUTO-CI
   Lucas Lang             : DCDCAS
   Dagmar Lenk            : GEPOL surface, SMD
   Dimitrios Liakos       : Extrapolation schemes; Compound Job, initial MDCI parallelization
   Dimitrios Manganas     : Further ROCIS development; embedding schemes
   Dimitrios Pantazis     : SARC Basis sets
   Taras Petrenko         : DFT Hessian,TD-DFT gradient, ASA, ECA, R-Raman, ABS, FL, XAS/XES, NRVS
   Peter Pinski           : DLPNO-MP2, DLPNO-MP2 Gradient
   Christoph Reimann      : Effective Core Potentials
   Marius Retegan         : Local ZFS, SOC
   Christoph Riplinger    : Optimizer, TS searches, QM/MM, DLPNO-CCSD(T), (RO)-DLPNO pert. Triples
   Tobias Risthaus        : Range-separated hybrids, TD-DFT gradient, RPA, STAB
   Michael Roemelt        : Original ROCIS implementation
   Masaaki Saitow         : Open-shell DLPNO-CCSD energy and density
   Barbara Sandhoefer     : DKH picture change effects
   Avijit Sen             : IP-ROCIS
   Kantharuban Sivalingam : CASSCF convergence, NEVPT2, FIC-MRCI
   Bernardo de Souza      : ESD, SOC TD-DFT
   Georgi Stoychev        : AutoAux, RI-MP2 NMR
   Willem Van den Heuvel  : Paramagnetic NMR
   Boris Wezisla          : Elementary symmetry handling
   Frank Wennmohs         : Technical directorship


 We gratefully acknowledge several colleagues who have allowed us to
 interface, adapt or use parts of their codes:
   Stefan Grimme, W. Hujo, H. Kruse,             : VdW corrections, initial TS optimization,
                  C. Bannwarth                     DFT functionals, gCP, sTDA/sTD-DF
   Ed Valeev, F. Pavosevic, A. Kumar             : LibInt (2-el integral package), F12 methods
   Garnet Chan, S. Sharma, J. Yang, R. Olivares  : DMRG
   Ulf Ekstrom                                   : XCFun DFT Library
   Mihaly Kallay                                 : mrcc  (arbitrary order and MRCC methods)
   Andreas Klamt, Michael Diedenhofen            : otool_cosmo (COSMO solvation model)
   Jiri Pittner, Ondrej Demel                    : Mk-CCSD
   Frank Weinhold                                : gennbo (NPA and NBO analysis)
   Christopher J. Cramer and Donald G. Truhlar   : smd solvation model
   Lars Goerigk                                  : TD-DFT with DH, B97 family of functionals
   V. Asgeirsson, H. Jonsson                     : NEB implementation
   FAccTs GmbH                                   : IRC, NEB, NEB-TS, Multilevel, MM, QM/MM, CI optimization
   S Lehtola, MJT Oliveira, MAL Marques          : LibXC Library


 Your calculation uses the libint2 library for the computation of 2-el integrals
 For citations please refer to: http://libint.valeyev.net

 Your ORCA version has been built with support for libXC version: 4.2.3
 For citations please refer to: https://tddft.org/programs/libxc/

 This ORCA versions uses:
   CBLAS   interface :  Fast vector & matrix operations
   LAPACKE interface :  Fast linear algebra routines
   SCALAPACK package :  Parallel linear algebra routines


----- Orbital basis set information -----
Your calculation utilizes the basis: def2-SVP
   F. Weigend and R. Ahlrichs, Phys. Chem. Chem. Phys. 7, 3297 (2005).

----- AuxJ basis set information -----
Your calculation utilizes the auxiliary basis: def2/J
   F. Weigend, Phys. Chem. Chem. Phys. 8, 1057 (2006).

================================================================================
                                        WARNINGS
                       Please study these warnings very carefully!
================================================================================


INFO   : the flag for use of LIBINT has been found!

================================================================================
                                       INPUT FILE
================================================================================
NAME = 53_I_atom53.inp
|  1> # input to generate an atomic fitting density for I 
|  2> # this file is use internally by ORCA
|  3> #
|  4> # atomic ground state (S=2): 1s2 2s2 2p6 3s2 3p6 4s2 3d10 4p6 5s2 4d10 5p5 
|  5> #
|  6> ! RHF AllowRHF def2-SVP def2/J  NoMulliken NoLoewdin NoMayer NoPrintMOs 
|  7> 
|  8> %output print[p_atomdensfit] 2 end
|  9> 
| 10> %scf
| 11>   guess hcore
| 12>   maxiter 1000
| 13>   maxdisk 500000
| 14>   SCFMode Conventional
| 15>   lshift 1.000000
| 16>   hftyp rohf
| 17>   rohf_case sahf
| 18>   rohf_numop   2
| 19>   rohf_norb[1] 3
| 20>   rohf_nel[1]  5
| 21> end
| 22> 
| 23> %basis
| 24>   NewECP 53
| 25>     N_core 28
| 26>     lmax g
| 27>     s 3
| 28>       1      40.0333760000     49.9896490000  2
| 29>       2      17.3005760000    281.0065560000  2
| 30>       3       8.8517200000     61.4167390000  2
| 31>     p 4
| 32>       1      15.7201410000     67.4162390000  2
| 33>       2      15.2082220000    134.8076960000  2
| 34>       3       8.2941860000     14.5665480000  2
| 35>       4       7.7539490000     28.9684220000  2
| 36>     d 4
| 37>       1      13.8177510000     35.5387560000  2
| 38>       2      13.5878050000     53.3397590000  2
| 39>       3       6.9476300000      9.7164660000  2
| 40>       4       6.9600990000     14.9775000000  2
| 41>     f 4
| 42>       1      18.5229500000    -20.1766180000  2
| 43>       2      18.2510350000    -26.0880770000  2
| 44>       3       7.5579010000     -0.2204340000  2
| 45>       4       7.5974040000     -0.2216460000  2
| 46>     g 1
| 47>       1       1.0000000000      0.0000000000  2
| 48>   end
| 49>   NewGTO 53
| 50>     s 9 
| 51>      1    5546.5000000000      0.0001582783
| 52>      2     838.2140000000      0.0010004000
| 53>      3     182.1870000000      0.0028327758
| 54>      4      31.2123000000     -0.0438826597
| 55>      5      19.5314000000      0.2375534123
| 56>      6       8.2409900000     -0.7619101545
| 57>      7       2.1945500000      0.8958633149
| 58>      8       1.1091100000      0.4688091744
| 59>      9       0.0810610000      0.0011180942
| 60>     s 9 
| 61>      1    5546.5000000000     -0.0000952468
| 62>      2     838.2140000000     -0.0006628134
| 63>      3     182.1870000000     -0.0015109013
| 64>      4      31.2123000000      0.0159088252
| 65>      5      19.5314000000     -0.1146275674
| 66>      6       8.2409900000      0.4412666843
| 67>      7       2.1945500000     -0.7522540119
| 68>      8       1.1091100000     -0.5340318490
| 69>      9       0.0810610000      0.1868807465
| 70>     s 1 
| 71>      1       0.3746410000      1.0000000000
| 72>     s 1 
| 73>      1       0.1770800000      1.0000000000
| 74>     s 1 
| 75>      1       0.1001000000      1.0000000000
| 76>     s 1 
| 77>      1       0.0412000000      1.0000000000
| 78>     p 9 
| 79>      1     188.9880000000      0.0005850001
| 80>      2      21.2868000000      0.0369230042
| 81>      3      10.0396000000     -0.2353240265
| 82>      4       3.4518000000      0.3414830385
| 83>      5       1.9745600000      0.5347880603
| 84>      6       1.0242000000      0.2651410299
| 85>      7       0.4494370000      0.0257870029
| 86>      8       0.1866480000      0.0005220001
| 87>      9       0.0734810000      0.0006060001
| 88>     p 9 
| 89>      1     188.9880000000     -0.0002559999
| 90>      2      21.2868000000     -0.0116819954
| 91>      3      10.0396000000      0.0831919674
| 92>      4       3.4518000000     -0.1569699385
| 93>      5       1.9745600000     -0.2245179120
| 94>      6       1.0242000000     -0.1144509551
| 95>      7       0.4494370000      0.3753558529
| 96>      8       0.1866480000      0.5751357746
| 97>      9       0.0734810000      0.2459169036
| 98>     p 1 
| 99>      1       0.5981000000      1.0000000000
|100>     p 1 
|101>      1       0.0961800000      1.0000000000
|102>     p 1 
|103>      1       0.0359000000      1.0000000000
|104>   end
|105>   NewAuxGTO 53
|106>     S 1
|107>      1 1310.72 1.0
|108>     S 1
|109>      1  655.36 1.0
|110>     S 1
|111>      1  327.68 1.0
|112>     S 1
|113>      1  163.84 1.0
|114>     S 1
|115>      1   81.82 1.0
|116>     S 1
|117>      1   40.96 1.0
|118>     S 1
|119>      1   20.48 1.0
|120>     S 1
|121>      1   10.24 1.0
|122>     S 1
|123>      1    5.12 1.0
|124>     S 1
|125>      1    2.56 1.0
|126>     S 1
|127>      1    1.28 1.0
|128>     S 1
|129>      1    0.64 1.0
|130>     S 1
|131>      1    0.32 1.0
|132>     S 1
|133>      1    0.16 1.0
|134>     S 1
|135>      1    0.08 1.0
|136>     S 1
|137>      1    0.04 1.0
|138>     S 1
|139>      1    0.02 1.0
|140>     S 1
|141>      1    0.01 1.0
|142>   end
|143> end
|144> 
|145> * xyz 0 2
|146> 53  0.0 0.0 0.0
|147> *
|148> 
|149> 
|150>                          ****END OF INPUT****
================================================================================

                       ****************************
                       * Single Point Calculation *
                       ****************************

---------------------------------
CARTESIAN COORDINATES (ANGSTROEM)
---------------------------------
  I      0.000000    0.000000    0.000000

----------------------------
CARTESIAN COORDINATES (A.U.)
----------------------------
  NO LB      ZA    FRAG     MASS         X           Y           Z
   0 I    25.0000*   0   126.900    0.000000    0.000000    0.000000
* core charge reduced due to ECP

--------------------------------
INTERNAL COORDINATES (ANGSTROEM)
--------------------------------
 I      0   0   0     0.000000000000     0.00000000     0.00000000

---------------------------
INTERNAL COORDINATES (A.U.)
---------------------------
 I      0   0   0     0.000000000000     0.00000000     0.00000000

---------------------
BASIS SET INFORMATION
---------------------
There are 1 groups of distinct atoms

 Group   1 Type I   : 22s21p contracted to 6s5p pattern {991111/99111}

Atom   0I    basis set group =>   1
---------------------------------
AUXILIARY/J BASIS SET INFORMATION
---------------------------------
There are 1 groups of distinct atoms

 Group   1 Type I   : 18s contracted to 18s pattern {111111111111111111}

Atom   0I    basis set group =>   1
-------------------------
ECP PARAMETER INFORMATION
-------------------------

 Group 1, Type I  ECP (replacing 28 core electrons, lmax=4)

Atom   0I    ECP group =>   1

------------------------------------------------------------------------------
                           ORCA GTO INTEGRAL CALCULATION
------------------------------------------------------------------------------

                         BASIS SET STATISTICS AND STARTUP INFO

 # of primitive gaussian shells          ...   43
 # of primitive gaussian functions       ...   85
 # of contracted shells                  ...   11
 # of contracted basis functions         ...   21
 Highest angular momentum                ...    1
 Maximum contraction depth               ...    9
 Integral package used                   ... LIBINT
 Integral threshhold            Thresh   ...  1.000e-10
 Primitive cut-off              TCut     ...  1.000e-11
 Storage cut-off                TCutStore... -1.000e+00
 Buffer length                           ... 1048576 integrals/buffer
 Generate file with integrals 4 distinct ...false


------------------------------ INTEGRAL EVALUATION ----------------------------


 * One electron integrals 

   ECP integrals                         ... done
 Pre-screening matrix                    ... done
 Shell pair data                         ... done (   0.000 sec)
 Statistics run                          ... done
 Maximum amount of storage needed        ...     0 MB
 Maximum amount of storage dedicated     ... 500000 MB
 Beginning two electron integral evaluation:
 Starting repulsion integrals
  <ss|ss>  ...          231 b.         0 skpd (  0.0%)     0.001 s. (  0.003 ms/b)
  <ss|sp>  ...          630 b.         0 skpd (  0.0%)     0.003 s. (  0.005 ms/b)
  <ss|pp>  ...          315 b.         0 skpd (  0.0%)     0.009 s. (  0.028 ms/b)
  <sp|sp>  ...          465 b.         0 skpd (  0.0%)     0.009 s. (  0.020 ms/b)
  <sp|pp>  ...          450 b.         0 skpd (  0.0%)     0.018 s. (  0.039 ms/b)
  <pp|pp>  ...          120 b.         0 skpd (  0.0%)     0.016 s. (  0.134 ms/b)


                                      INTEGRAL STATISTICS

Integral type statistics:
 Number of integrals retained            ...      26796 
 One   Center Integrals retained         ...      26796 (100.0%)
 Two   Center Integrals retained         ...          0 (  0.0%)
 Three Center Integrals retained         ...          0 (  0.0%)
 Four  Center Integrals retained         ...          0 (  0.0%)

Storage statistics:
 Number of char integrals                ...          0 (  0.0%)
 Number of short int integrals           ...          0 (  0.0%)
 Number of double/float integrals        ...      26796 (100.0%)
 Amount of memory used                   ...          0 MB
 Amount of memory estimated              ...          0 MB ( 95.2%)

Prescreening statistics:
 Total number of shell quadruples        ...       2211 
 Number of skipped shell quadruples      ...          0 (  0.0%)
 # of negligible batches done            ...          0 (  0.0%)

Timings:
 Total evaluation time               ...     0.228 sec (   0.004 min)
 One electron matrix time            ...     0.013 sec (   0.000 min) =  5.7%
 Schwartz matrix evaluation time     ...     0.084 sec (   0.001 min) = 36.8%
 Statistics run                      ...     0.000 sec (   0.000 min) =  0.1%
 Repulsion integral time             ...     0.056 sec (   0.001 min) = 24.4%

-------------------------------------------------------------------------------
                                 ORCA SCF
-------------------------------------------------------------------------------

------------
SCF SETTINGS
------------
Hamiltonian:
 Ab initio Hamiltonian  Method          .... Hartree-Fock(GTOs)


General Settings:
 Integral files         IntName         .... 53_I_atom53
 Hartree-Fock type      HFTyp           .... ROHF
 Total Charge           Charge          ....    0
 Multiplicity           Mult            ....    2
 Number of Electrons    NEL             ....   25
 Basis Dimension        Dim             ....   21
 Nuclear Repulsion      ENuc            ....      0.0000000000 Eh

Convergence Acceleration:
 DIIS                   CNVDIIS         .... on
   Start iteration      DIISMaxIt       ....    12
   Startup error        DIISStart       ....  0.200000
   # of expansion vecs  DIISMaxEq       ....     5
   Bias factor          DIISBfac        ....   1.050
   Max. coefficient     DIISMaxC        ....  10.000
 Newton-Raphson         CNVNR           .... off
 SOSCF                  CNVSOSCF        .... off
 Level Shifting         CNVShift        .... on
   Level shift para.    LevelShift      ....    1.0000
   Turn off err/grad.   ShiftErr        ....    0.0010
 Zerner damping         CNVZerner       .... off
 Static damping         CNVDamp         .... on
   Fraction old density DampFac         ....    0.7000
   Max. Damping (<1)    DampMax         ....    0.9800
   Min. Damping (>=0)   DampMin         ....    0.0000
   Turn off err/grad.   DampErr         ....    0.1000
 Fernandez-Rico         CNVRico         .... off

SCF Procedure:
 Maximum # iterations   MaxIter         ....  1000
 SCF integral mode      SCFMode         .... Conventional
 Integral Threshold     Thresh          ....  1.000e-10 Eh
 Primitive CutOff       TCut            ....  1.000e-11 Eh
 Integral Buffer length BufferLength    .... 1048576
 Integral index format  IndFormat       ....     0
 Integral value format  ValFormat       ....     0
 Integral Storage       Thresh          ....  1.000e-10 Eh

Convergence Tolerance:
 Convergence Check Mode ConvCheckMode   .... Total+1el-Energy
 Convergence forced     ConvForced      .... 0
 Energy Change          TolE            ....  1.000e-06 Eh
 1-El. energy change                    ....  1.000e-03 Eh
 DIIS Error             TolErr          ....  1.000e-06


Diagonalization of the overlap matrix:
Smallest eigenvalue                        ... 2.844e-03
Time for diagonalization                   ...    0.000 sec
Threshold for overlap eigenvalues          ... 1.000e-08
Number of eigenvalues below threshold      ... 0
Time for construction of square roots      ...    0.003 sec
Total time needed                          ...    0.003 sec

--------------------
INITIAL GUESS: HCORE
--------------------
AVERAGE-CONFIGURATION (SAHF) CASE FOUND

-------------------
FINAL ROHF SETTINGS
-------------------
Number of operators             ... 2
  operator   0:  10 orbitals  20 electrons n(mue)= 2.000
  operator   1:   3 orbitals   5 electrons n(mue)= 1.667
Vector coupling coefficients a and b (Zerner convention):
   1.000    1.000           1.000    1.000 
   1.000    0.960           1.000    0.960 

                      -----------------
                      INTIAL GUESS DONE 
                      -----------------

 InCore treatment chosen:
   Memory dedicated               ...    1024 MB
   Memory needed                  ...      0 MB
   Number of tiny    integrals    ...       0
   Number of small   integrals    ...       0
   Number of regular integrals    ...   26796

--------------
SCF ITERATIONS
--------------
ITER       Energy         Delta-E        Max-DP      RMS-DP      [F,P]     Damp
  0   -250.2411095386   0.000000000000 4.86250069  0.42476613  0.8267935 0.7000
  1   -251.9564748915  -1.715365352917 8.03043684  0.58759075  0.5711013 0.7000
  2   -252.9239436528  -0.967468761359 9.80961625  0.64259616  0.3547683 0.7000
  3   -253.5134728368  -0.58952918392510.06920893  0.62344939  0.2033779 0.7000
                            ****Activating DIIS****
  4   -253.9031513331  -0.38967849637511.98593366  0.69618887  0.1195508 0.7000
  5   -254.2337515630  -0.33060022980233.53712088  1.93019171  0.0608532 0.0000
  6   -254.8548575350  -0.621105972074 7.09221996  0.39850595  0.0289433 0.0000
  7   -254.8563061372  -0.001448602198 0.28845939  0.02487227  0.0271892 0.0000
  8   -254.8609850149  -0.004678877711 1.63783923  0.10451450  0.0271620 0.0000
  9   -254.8713023212  -0.010317306220 1.92676379  0.11908833  0.0213041 0.0000
 10   -254.8782752816  -0.006972960442 1.12579447  0.07195635  0.0174931 0.0000
 11   -254.8811408127  -0.002865531110 0.39788689  0.02991188  0.0142963 0.0000
 12   -254.8823672068  -0.001226394072 0.21255798  0.01929429  0.0123109 0.0000
 13   -254.8832989225  -0.000931715709 0.29180516  0.03082061  0.0104358 0.0000
 14   -254.8845076548  -0.001208732274 0.30061229  0.03024191  0.0069711 0.0000
 15   -254.8852016890  -0.000694034249 0.05620957  0.00553581  0.0034285 0.0000
 16   -254.8853048832  -0.000103194139 0.01836517  0.00175803  0.0028320 0.0000
 17   -254.8853390979  -0.000034214725 0.02967155  0.00270470  0.0026568 0.0000
 18   -254.8853850636  -0.000045965753 0.07790291  0.00767983  0.0023409 0.0000
 19   -254.8854585251  -0.000073461421 0.05059138  0.00462634  0.0013845 0.0000
 20   -254.8854834500  -0.000024924995 0.02184361  0.00127794  0.0008271 0.0000
 21   -254.8854910100  -0.000007559959 0.02128756  0.00127745  0.0007069 0.0000
 22   -254.8854959019  -0.000004891944 0.02214247  0.00171295  0.0006073 0.0000
 23   -254.8855004829  -0.000004580967 0.01210233  0.00118029  0.0003963 0.0000
 24   -254.8855024640  -0.000001981088 0.00684957  0.00067869  0.0002462 0.0000
                 **** Energy Check signals convergence ****

               *****************************************************
               *                     SUCCESS                       *
               *           SCF CONVERGED AFTER  25 CYCLES          *
               *****************************************************


----------------
TOTAL SCF ENERGY
----------------

Total Energy       :         -254.88550308 Eh           -6935.78715 eV

Components:
Nuclear Repulsion  :            0.00000000 Eh               0.00000 eV
Electronic Energy  :         -254.88550308 Eh           -6935.78715 eV
One Electron Energy:         -393.37039603 Eh          -10704.15266 eV
Two Electron Energy:          138.48489295 Eh            3768.36552 eV

Virial components:
Potential Energy   :         -321.85430733 Eh           -8758.10096 eV
Kinetic Energy     :           66.96880425 Eh            1822.31381 eV
Virial Ratio       :            4.80603336


---------------
SCF CONVERGENCE
---------------

  Last Energy change         ...   -6.1912e-07  Tolerance :   1.0000e-06
  Last MAX-Density change    ...    5.8601e-03  Tolerance :   1.0000e-05
  Last RMS-Density change    ...    5.8042e-04  Tolerance :   1.0000e-06
  Last DIIS Error            ...    1.8296e-04  Tolerance :   1.0000e-06

             **** THE GBW FILE WAS UPDATED (53_I_atom53.gbw) ****
             **** DENSITY FILE WAS UPDATED (53_I_atom53.scfp) ****
             **** ENERGY FILE WAS UPDATED (53_I_atom53.en.tmp) ****
             **** THE GBW FILE WAS UPDATED (53_I_atom53.gbw) ****
             **** DENSITY FILE WAS UPDATED (53_I_atom53.scfp) ****
----------------
ORBITAL ENERGIES
----------------

  NO   OCC          E(Eh)            E(eV) 
   0   2.0000     -13.133706      -357.3863 
   1   2.0000     -10.631847      -289.3073 
   2   2.0000     -10.631847      -289.3073 
   3   2.0000     -10.629469      -289.2426 
   4   2.0000      -3.530083       -96.0584 
   5   2.0000      -2.582497       -70.2733 
   6   2.0000      -2.582497       -70.2733 
   7   2.0000      -2.576953       -70.1225 
   8   2.0000      -0.731570       -19.9070 
   9   2.0000      -0.412837       -11.2339 
  10   1.6667      -0.418167       -11.3789 
  11   1.6667      -0.418167       -11.3789 
  12   1.6667      -0.072241        -1.9658 
  13   0.0000       0.053273         1.4496 
  14   0.0000       0.053273         1.4496 
  15   0.0000       0.057090         1.5535 
  16   0.0000       0.413396        11.2491 
  17   0.0000       1.267044        34.4780 
  18   0.0000       1.267044        34.4780 
  19   0.0000       1.273456        34.6525 
  20   0.0000      52.046224      1416.2498 
CleanUpVectors: The p-vectors have cracked symmetry
CleanUpVectors: The p-vectors have cracked symmetry
CleanUpVectors: The p-vectors have cracked symmetry
CleanUpVectors: The p-vectors have cracked symmetry
CleanUpVectors: The p-vectors have cracked symmetry
CleanUpVectors: The p-vectors have cracked symmetry
CleanUpVectors: The p-vectors have cracked symmetry
CleanUpVectors: The p-vectors have cracked symmetry
CleanUpVectors: The p-vectors have cracked symmetry
CleanUpVectors: The p-vectors have cracked symmetry
CleanUpVectors: The p-vectors have cracked symmetry
CleanUpVectors: The p-vectors have cracked symmetry
CleanUpVectors: The p-vectors have cracked symmetry
CleanUpVectors: The p-vectors have cracked symmetry
--------------------------
ATOM BASIS FOR ELEMENT I 
--------------------------
 NewGTO I 
 S 22
    1       5546.500000000000        -0.000145547107
    2        838.214000000000        -0.000919932336
    3        182.187000000000        -0.002604920091
    4         31.212300000000         0.040352936479
    5         19.531400000000        -0.218445687256
    6          8.240990000000         0.700625538129
    7          2.194550000000        -0.823804110478
    8          1.109110000000        -0.431100278890
    9          0.081061000000        -0.001028159746
   10       5546.500000000000        -0.000020192522
   11        838.214000000000        -0.000140517833
   12        182.187000000000        -0.000320314250
   13         31.212300000000         0.003372704364
   14         19.531400000000        -0.024301285098
   15          8.240990000000         0.093549464083
   16          2.194550000000        -0.159479430856
   17          1.109110000000        -0.113215873881
   18          0.081061000000         0.039619110857
   19          0.374641000000         0.369363233843
   20          0.177080000000        -0.410074571369
   21          0.100100000000         0.207114250810
   22          0.041200000000        -0.053526941528
 P 43
    1        188.988000000000        -0.000160284232
    2         21.286800000000        -0.010116537390
    3         10.039600000000         0.064476452134
    4          3.451800000000        -0.093562969807
    5          1.974560000000        -0.146526630895
    6          1.024200000000        -0.072646015697
    7          0.449437000000        -0.007065383348
    8          0.186648000000        -0.000143022856
    9          0.073481000000        -0.000166038024
   10        188.988000000000        -0.000510201068
   11         21.286800000000        -0.032201970853
   12         10.039600000000         0.205235126625
   13          3.451800000000        -0.297820480506
   14          1.974560000000        -0.466409218412
   15          1.024200000000        -0.231239681109
   16          0.449437000000        -0.022489836181
   17          0.186648000000        -0.000455256347
   18          0.073481000000        -0.000528515975
   19        188.988000000000         0.000465234722
   20         21.286800000000         0.029363864389
   21         10.039600000000        -0.187146819477
   22          3.451800000000         0.271572204127
   23          1.974560000000         0.425302448153
   24          1.024200000000         0.210859474048
   25          0.449437000000         0.020507704412
   26          0.186648000000         0.000415132530
   27          0.073481000000         0.000481935453
   28        188.988000000000         0.000008237087
   29         21.286800000000         0.000375881466
   30         10.039600000000        -0.002676796007
   31          3.451800000000         0.005050685995
   32          1.974560000000         0.007224118737
   33          1.024200000000         0.003682589428
   34          0.449437000000        -0.012077500747
   35          0.186648000000        -0.018505646558
   36          0.073481000000        -0.007912655588
   37        188.988000000000         0.000026219490
   38         21.286800000000         0.001196469062
   39         10.039600000000        -0.008520514845
   40          3.451800000000         0.016076848919
   41          1.974560000000         0.022995107122
   42          1.024200000000         0.011722057939
   43          0.449437000000        -0.038443917323
 S 22
    1       5546.500000000000         0.000056148431
    2        838.214000000000         0.000354886871
    3        182.187000000000         0.001004912975
    4         31.212300000000        -0.015567152930
    5         19.531400000000         0.084270878829
    6          8.240990000000        -0.270283797177
    7          2.194550000000         0.317803007444
    8          1.109110000000         0.166307697909
    9          0.081061000000         0.000396638297
   10       5546.500000000000        -0.000155621112
   11        838.214000000000        -0.001082952480
   12        182.187000000000        -0.002468619840
   13         31.212300000000         0.025992989434
   14         19.531400000000        -0.187286811617
   15          8.240990000000         0.720973429428
   16          2.194550000000        -1.229087021652
   17          1.109110000000        -0.872539866018
   18          0.081061000000         0.305339282325
   19          0.374641000000         2.814338655917
   20          0.177080000000        -2.040977131656
   21          0.100100000000         0.884105126997
   22          0.041200000000        -0.275633300856
 P 43
    1        188.988000000000         0.000157277862
    2         21.286800000000         0.009926786620
    3         10.039600000000        -0.063267099965
    4          3.451800000000         0.091808056552
    5          1.974560000000         0.143778305064
    6          1.024200000000         0.071283431160
    7          0.449437000000         0.006932861529
    8          0.186648000000         0.000140340249
    9          0.073481000000         0.000162923733
   10        188.988000000000         0.000293302808
   11         21.286800000000         0.018512169166
   12         10.039600000000        -0.117984933292
   13          3.451800000000         0.171210114483
   14          1.974560000000         0.268127885445
   15          1.024200000000         0.132934350950
   16          0.449437000000         0.012928887297
   17          0.186648000000         0.000261716357
   18          0.073481000000         0.000303831625
   19        188.988000000000        -0.000308718738
   20         21.286800000000        -0.019485164648
   21         10.039600000000         0.124186195065
   22          3.451800000000        -0.180208879906
   23          1.974560000000        -0.282220627288
   24          1.024200000000        -0.139921350780
   25          0.449437000000        -0.013608426729
   26          0.186648000000        -0.000275472111
   27          0.073481000000        -0.000319800947
   28        188.988000000000         0.000022988147
   29         21.286800000000         0.001049013788
   30         10.039600000000        -0.007470429309
   31          3.451800000000         0.014095505441
   32          1.974560000000         0.020161143468
   33          1.024200000000         0.010277407737
   34          0.449437000000        -0.033706010957
   35          0.186648000000        -0.051645745152
   36          0.073481000000        -0.022082719060
   37        188.988000000000         0.000042869911
   38         21.286800000000         0.001956274617
   39         10.039600000000        -0.013931381463
   40          3.451800000000         0.026286288926
   41          1.974560000000         0.037597916903
   42          1.024200000000         0.019166032059
   43          0.449437000000        -0.062857337486
 S 22
    1       5546.500000000000        -0.000076569241
    2        838.214000000000        -0.000483956859
    3        182.187000000000        -0.001370393121
    4         31.212300000000         0.021228822614
    5         19.531400000000        -0.114919635354
    6          8.240990000000         0.368584211356
    7          2.194550000000        -0.433385841434
    8          1.109110000000        -0.226792698328
    9          0.081061000000        -0.000540893000
   10       5546.500000000000         0.000119157642
   11        838.214000000000         0.000829206672
   12        182.187000000000         0.001890199321
   13         31.212300000000        -0.019902590985
   14         19.531400000000         0.143403775005
   15          8.240990000000        -0.552042669558
   16          2.194550000000         0.941100535550
   17          1.109110000000         0.668095684628
   18          0.081061000000        -0.233795457163
   19          0.374641000000        -5.407202379140
   20          0.177080000000        12.948628434389
   21          0.100100000000       -10.867878370247
   22          0.041200000000         2.918129101152
 P 43
    1        188.988000000000        -0.000371505932
    2         21.286800000000        -0.023448055991
    3         10.039600000000         0.149443174221
    4          3.451800000000        -0.216859748556
    5          1.974560000000        -0.339618637566
    6          1.024200000000        -0.168378544740
    7          0.449437000000        -0.016376107550
    8          0.186648000000        -0.000331497608
    9          0.073481000000        -0.000384842040
   10        188.988000000000         0.000255358698
   11         21.286800000000         0.016117279793
   12         10.039600000000        -0.102721413366
   13          3.451800000000         0.149060938982
   14          1.974560000000         0.233440614722
   15          1.024200000000         0.115736849049
   16          0.449437000000         0.011256298066
   17          0.186648000000         0.000227858536
   18          0.073481000000         0.000264525419
   19        188.988000000000         0.000053342290
   20         21.286800000000         0.003366764548
   21         10.039600000000        -0.021457641566
   22          3.451800000000         0.031137579745
   23          1.974560000000         0.048763786182
   24          1.024200000000         0.024176456899
   25          0.449437000000         0.002351346242
   26          0.186648000000         0.000047597737
   27          0.073481000000         0.000055257141
   28        188.988000000000        -0.000054300286
   29         21.286800000000        -0.002477874761
   30         10.039600000000         0.017645896039
   31          3.451800000000        -0.033294983910
   32          1.974560000000        -0.047622623409
   33          1.024200000000        -0.024276257894
   34          0.449437000000         0.079616945782
   35          0.186648000000         0.121992379844
   36          0.073481000000         0.052161575821
   37        188.988000000000         0.000037323900
   38         21.286800000000         0.001703194535
   39         10.039600000000        -0.012129101183
   40          3.451800000000         0.022885674258
   41          1.974560000000         0.032733935225
   42          1.024200000000         0.016686553502
   43          0.449437000000        -0.054725585436
 P 43
    1        188.988000000000         0.000093676728
    2         21.286800000000         0.005912522471
    3         10.039600000000        -0.037682702824
    4          3.451800000000         0.054682065620
    5          1.974560000000         0.085636217643
    6          1.024200000000         0.042457333340
    7          0.449437000000         0.004129301973
    8          0.186648000000         0.000083588467
    9          0.073481000000         0.000097039482
   10        188.988000000000        -0.000245563178
   11         21.286800000000        -0.015499023421
   12         10.039600000000         0.098781035761
   13          3.451800000000        -0.143342984308
   14          1.974560000000        -0.224485868676
   15          1.024200000000        -0.111297201335
   16          0.449437000000        -0.010824508205
   17          0.186648000000        -0.000219117917
   18          0.073481000000        -0.000254378265
   19        188.988000000000         0.000115695140
   20         21.286800000000         0.007302241748
   21         10.039600000000        -0.046539900205
   22          3.451800000000         0.067534908227
   23          1.974560000000         0.105764733534
   24          1.024200000000         0.052436792176
   25          0.449437000000         0.005099881042
   26          0.186648000000         0.000103235666
   27          0.073481000000         0.000119848299
   28        188.988000000000        -0.000018195703
   29         21.286800000000        -0.000830321108
   30         10.039600000000         0.005913034907
   31          3.451800000000        -0.011156951262
   32          1.974560000000        -0.015958058120
   33          1.024200000000        -0.008134829765
   34          0.449437000000         0.026679165430
   35          0.186648000000         0.040878921580
   36          0.073481000000         0.017479034102
   37        188.988000000000         0.000047698022
   38         21.286800000000         0.002176594908
   39         10.039600000000        -0.015500366715
   40          3.451800000000         0.029246713188
   41          1.974560000000         0.041832283560
   42          1.024200000000         0.021324556089
   43          0.449437000000        -0.069936480054
 P 43
    1        188.988000000000        -0.000043435302
    2         21.286800000000        -0.002741472757
    3         10.039600000000         0.017472424625
    4          3.451800000000        -0.025354557883
    5          1.974560000000        -0.039707140036
    6          1.024200000000        -0.019686288429
    7          0.449437000000        -0.001914642849
    8          0.186648000000        -0.000038757655
    9          0.073481000000        -0.000044994518
   10        188.988000000000         0.000035794737
   11         21.286800000000         0.002259229028
   12         10.039600000000        -0.014398906135
   13          3.451800000000         0.020894518470
   14          1.974560000000         0.032722383672
   15          1.024200000000         0.016223336218
   16          0.449437000000         0.001577844132
   17          0.186648000000         0.000031939919
   18          0.073481000000         0.000037079676
   19        188.988000000000         0.000002003121
   20         21.286800000000         0.000126429468
   21         10.039600000000        -0.000805781983
   22          3.451800000000         0.001169285109
   23          1.974560000000         0.001831188214
   24          1.024200000000         0.000907879523
   25          0.449437000000         0.000088298261
   26          0.186648000000         0.000001787400
   27          0.073481000000         0.000002075028
   28        188.988000000000        -0.000030135026
   29         21.286800000000        -0.001375146002
   30         10.039600000000         0.009792941830
   31          3.451800000000        -0.018477715154
   32          1.974560000000        -0.026429124357
   33          1.024200000000        -0.013472593336
   34          0.449437000000         0.044185011459
   35          0.186648000000         0.067702103470
   36          0.073481000000         0.028948106495
   37        188.988000000000         0.000024834070
   38         21.286800000000         0.001133248455
   39         10.039600000000        -0.008070296665
   40          3.451800000000         0.015227359213
   41          1.974560000000         0.021780061382
   42          1.024200000000         0.011102672411
   43          0.449437000000        -0.036412567013
 P 43
    1        188.988000000000         0.001006112690
    2         21.286800000000         0.063502045715
    3         10.039600000000        -0.404722134953
    4          3.451800000000         0.587299760452
    5          1.974560000000         0.919755490891
    6          1.024200000000         0.456002921932
    7          0.449437000000         0.044349788770
    8          0.186648000000         0.000897762112
    9          0.073481000000         0.001042229550
   10        188.988000000000         0.001144943043
   11         21.286800000000         0.072264494989
   12         10.039600000000        -0.460568480338
   13          3.451800000000         0.668339423060
   14          1.974560000000         1.046669683069
   15          1.024200000000         0.518925343207
   16          0.449437000000         0.050469477829
   17          0.186648000000         0.001021641506
   18          0.073481000000         0.001186043556
   19        188.988000000000        -0.001453575433
   20         21.286800000000        -0.091744209622
   21         10.039600000000         0.584719940429
   22          3.451800000000        -0.848497898403
   23          1.974560000000        -1.328811373030
   24          1.024200000000        -0.658807557877
   25          0.449437000000        -0.064074098271
   26          0.186648000000        -0.001297036567
   27          0.073481000000        -0.001505755055
   28        188.988000000000        -0.000732338503
   29         21.286800000000        -0.033418665489
   30         10.039600000000         0.237987127601
   31          3.451800000000        -0.449043651098
   32          1.974560000000        -0.642278030460
   33          1.024200000000        -0.327409663537
   34          0.449437000000         1.073779885867
   35          0.186648000000         1.645289987186
   36          0.073481000000         0.703494091381
   37        188.988000000000        -0.000833391609
   38         21.286800000000        -0.038030002932
   39         10.039600000000         0.270826229239
   40          3.451800000000        -0.511005784290
   41          1.974560000000        -0.730903973112
   42          1.024200000000        -0.372587902069
   43          0.449437000000         1.221947424023
 end
  // -----------------------------------------------
  // The basis set
  // -----------------------------------------------
  BAS[ATNO] = new BFNGauss[NSH];
  // Basis function   1 L = s
  InitBFNGauss(BAS[ATNO][  0]);
  BAS[ATNO][  0].l  = 0;
  BAS[ATNO][  0].ng = 22;
  BAS[ATNO][  0].a[  0] =      5546.500000000000;     BAS[ATNO][  0].d[  0] =         0.000145547107;
  BAS[ATNO][  0].a[  1] =       838.214000000000;     BAS[ATNO][  0].d[  1] =         0.000919932336;
  BAS[ATNO][  0].a[  2] =       182.187000000000;     BAS[ATNO][  0].d[  2] =         0.002604920091;
  BAS[ATNO][  0].a[  3] =        31.212300000000;     BAS[ATNO][  0].d[  3] =        -0.040352936479;
  BAS[ATNO][  0].a[  4] =        19.531400000000;     BAS[ATNO][  0].d[  4] =         0.218445687256;
  BAS[ATNO][  0].a[  5] =         8.240990000000;     BAS[ATNO][  0].d[  5] =        -0.700625538129;
  BAS[ATNO][  0].a[  6] =         2.194550000000;     BAS[ATNO][  0].d[  6] =         0.823804110478;
  BAS[ATNO][  0].a[  7] =         1.109110000000;     BAS[ATNO][  0].d[  7] =         0.431100278890;
  BAS[ATNO][  0].a[  8] =         0.081061000000;     BAS[ATNO][  0].d[  8] =         0.001028159746;
  BAS[ATNO][  0].a[  9] =      5546.500000000000;     BAS[ATNO][  0].d[  9] =         0.000020192522;
  BAS[ATNO][  0].a[ 10] =       838.214000000000;     BAS[ATNO][  0].d[ 10] =         0.000140517833;
  BAS[ATNO][  0].a[ 11] =       182.187000000000;     BAS[ATNO][  0].d[ 11] =         0.000320314250;
  BAS[ATNO][  0].a[ 12] =        31.212300000000;     BAS[ATNO][  0].d[ 12] =        -0.003372704364;
  BAS[ATNO][  0].a[ 13] =        19.531400000000;     BAS[ATNO][  0].d[ 13] =         0.024301285098;
  BAS[ATNO][  0].a[ 14] =         8.240990000000;     BAS[ATNO][  0].d[ 14] =        -0.093549464083;
  BAS[ATNO][  0].a[ 15] =         2.194550000000;     BAS[ATNO][  0].d[ 15] =         0.159479430856;
  BAS[ATNO][  0].a[ 16] =         1.109110000000;     BAS[ATNO][  0].d[ 16] =         0.113215873881;
  BAS[ATNO][  0].a[ 17] =         0.081061000000;     BAS[ATNO][  0].d[ 17] =        -0.039619110857;
  BAS[ATNO][  0].a[ 18] =         0.374641000000;     BAS[ATNO][  0].d[ 18] =        -0.369363233843;
  BAS[ATNO][  0].a[ 19] =         0.177080000000;     BAS[ATNO][  0].d[ 19] =         0.410074571369;
  BAS[ATNO][  0].a[ 20] =         0.100100000000;     BAS[ATNO][  0].d[ 20] =        -0.207114250810;
  BAS[ATNO][  0].a[ 21] =         0.041200000000;     BAS[ATNO][  0].d[ 21] =         0.053526941528;

  // Basis function   2 L = p
  InitBFNGauss(BAS[ATNO][  1]);
  BAS[ATNO][  1].l  = 1;
  BAS[ATNO][  1].ng = 43;
  BAS[ATNO][  1].a[  0] =       188.988000000000;     BAS[ATNO][  1].d[  0] =         0.000160284232;
  BAS[ATNO][  1].a[  1] =        21.286800000000;     BAS[ATNO][  1].d[  1] =         0.010116537390;
  BAS[ATNO][  1].a[  2] =        10.039600000000;     BAS[ATNO][  1].d[  2] =        -0.064476452134;
  BAS[ATNO][  1].a[  3] =         3.451800000000;     BAS[ATNO][  1].d[  3] =         0.093562969807;
  BAS[ATNO][  1].a[  4] =         1.974560000000;     BAS[ATNO][  1].d[  4] =         0.146526630895;
  BAS[ATNO][  1].a[  5] =         1.024200000000;     BAS[ATNO][  1].d[  5] =         0.072646015697;
  BAS[ATNO][  1].a[  6] =         0.449437000000;     BAS[ATNO][  1].d[  6] =         0.007065383348;
  BAS[ATNO][  1].a[  7] =         0.186648000000;     BAS[ATNO][  1].d[  7] =         0.000143022856;
  BAS[ATNO][  1].a[  8] =         0.073481000000;     BAS[ATNO][  1].d[  8] =         0.000166038024;
  BAS[ATNO][  1].a[  9] =       188.988000000000;     BAS[ATNO][  1].d[  9] =         0.000510201068;
  BAS[ATNO][  1].a[ 10] =        21.286800000000;     BAS[ATNO][  1].d[ 10] =         0.032201970853;
  BAS[ATNO][  1].a[ 11] =        10.039600000000;     BAS[ATNO][  1].d[ 11] =        -0.205235126625;
  BAS[ATNO][  1].a[ 12] =         3.451800000000;     BAS[ATNO][  1].d[ 12] =         0.297820480506;
  BAS[ATNO][  1].a[ 13] =         1.974560000000;     BAS[ATNO][  1].d[ 13] =         0.466409218412;
  BAS[ATNO][  1].a[ 14] =         1.024200000000;     BAS[ATNO][  1].d[ 14] =         0.231239681109;
  BAS[ATNO][  1].a[ 15] =         0.449437000000;     BAS[ATNO][  1].d[ 15] =         0.022489836181;
  BAS[ATNO][  1].a[ 16] =         0.186648000000;     BAS[ATNO][  1].d[ 16] =         0.000455256347;
  BAS[ATNO][  1].a[ 17] =         0.073481000000;     BAS[ATNO][  1].d[ 17] =         0.000528515975;
  BAS[ATNO][  1].a[ 18] =       188.988000000000;     BAS[ATNO][  1].d[ 18] =        -0.000465234722;
  BAS[ATNO][  1].a[ 19] =        21.286800000000;     BAS[ATNO][  1].d[ 19] =        -0.029363864389;
  BAS[ATNO][  1].a[ 20] =        10.039600000000;     BAS[ATNO][  1].d[ 20] =         0.187146819477;
  BAS[ATNO][  1].a[ 21] =         3.451800000000;     BAS[ATNO][  1].d[ 21] =        -0.271572204127;
  BAS[ATNO][  1].a[ 22] =         1.974560000000;     BAS[ATNO][  1].d[ 22] =        -0.425302448153;
  BAS[ATNO][  1].a[ 23] =         1.024200000000;     BAS[ATNO][  1].d[ 23] =        -0.210859474048;
  BAS[ATNO][  1].a[ 24] =         0.449437000000;     BAS[ATNO][  1].d[ 24] =        -0.020507704412;
  BAS[ATNO][  1].a[ 25] =         0.186648000000;     BAS[ATNO][  1].d[ 25] =        -0.000415132530;
  BAS[ATNO][  1].a[ 26] =         0.073481000000;     BAS[ATNO][  1].d[ 26] =        -0.000481935453;
  BAS[ATNO][  1].a[ 27] =       188.988000000000;     BAS[ATNO][  1].d[ 27] =        -0.000008237087;
  BAS[ATNO][  1].a[ 28] =        21.286800000000;     BAS[ATNO][  1].d[ 28] =        -0.000375881466;
  BAS[ATNO][  1].a[ 29] =        10.039600000000;     BAS[ATNO][  1].d[ 29] =         0.002676796007;
  BAS[ATNO][  1].a[ 30] =         3.451800000000;     BAS[ATNO][  1].d[ 30] =        -0.005050685995;
  BAS[ATNO][  1].a[ 31] =         1.974560000000;     BAS[ATNO][  1].d[ 31] =        -0.007224118737;
  BAS[ATNO][  1].a[ 32] =         1.024200000000;     BAS[ATNO][  1].d[ 32] =        -0.003682589428;
  BAS[ATNO][  1].a[ 33] =         0.449437000000;     BAS[ATNO][  1].d[ 33] =         0.012077500747;
  BAS[ATNO][  1].a[ 34] =         0.186648000000;     BAS[ATNO][  1].d[ 34] =         0.018505646558;
  BAS[ATNO][  1].a[ 35] =         0.073481000000;     BAS[ATNO][  1].d[ 35] =         0.007912655588;
  BAS[ATNO][  1].a[ 36] =       188.988000000000;     BAS[ATNO][  1].d[ 36] =        -0.000026219490;
  BAS[ATNO][  1].a[ 37] =        21.286800000000;     BAS[ATNO][  1].d[ 37] =        -0.001196469062;
  BAS[ATNO][  1].a[ 38] =        10.039600000000;     BAS[ATNO][  1].d[ 38] =         0.008520514845;
  BAS[ATNO][  1].a[ 39] =         3.451800000000;     BAS[ATNO][  1].d[ 39] =        -0.016076848919;
  BAS[ATNO][  1].a[ 40] =         1.974560000000;     BAS[ATNO][  1].d[ 40] =        -0.022995107122;
  BAS[ATNO][  1].a[ 41] =         1.024200000000;     BAS[ATNO][  1].d[ 41] =        -0.011722057939;
  BAS[ATNO][  1].a[ 42] =         0.449437000000;     BAS[ATNO][  1].d[ 42] =         0.038443917323;

  // Basis function   3 L = s
  InitBFNGauss(BAS[ATNO][  2]);
  BAS[ATNO][  2].l  = 0;
  BAS[ATNO][  2].ng = 22;
  BAS[ATNO][  2].a[  0] =      5546.500000000000;     BAS[ATNO][  2].d[  0] =         0.000056148431;
  BAS[ATNO][  2].a[  1] =       838.214000000000;     BAS[ATNO][  2].d[  1] =         0.000354886871;
  BAS[ATNO][  2].a[  2] =       182.187000000000;     BAS[ATNO][  2].d[  2] =         0.001004912975;
  BAS[ATNO][  2].a[  3] =        31.212300000000;     BAS[ATNO][  2].d[  3] =        -0.015567152930;
  BAS[ATNO][  2].a[  4] =        19.531400000000;     BAS[ATNO][  2].d[  4] =         0.084270878829;
  BAS[ATNO][  2].a[  5] =         8.240990000000;     BAS[ATNO][  2].d[  5] =        -0.270283797177;
  BAS[ATNO][  2].a[  6] =         2.194550000000;     BAS[ATNO][  2].d[  6] =         0.317803007444;
  BAS[ATNO][  2].a[  7] =         1.109110000000;     BAS[ATNO][  2].d[  7] =         0.166307697909;
  BAS[ATNO][  2].a[  8] =         0.081061000000;     BAS[ATNO][  2].d[  8] =         0.000396638297;
  BAS[ATNO][  2].a[  9] =      5546.500000000000;     BAS[ATNO][  2].d[  9] =        -0.000155621112;
  BAS[ATNO][  2].a[ 10] =       838.214000000000;     BAS[ATNO][  2].d[ 10] =        -0.001082952480;
  BAS[ATNO][  2].a[ 11] =       182.187000000000;     BAS[ATNO][  2].d[ 11] =        -0.002468619840;
  BAS[ATNO][  2].a[ 12] =        31.212300000000;     BAS[ATNO][  2].d[ 12] =         0.025992989434;
  BAS[ATNO][  2].a[ 13] =        19.531400000000;     BAS[ATNO][  2].d[ 13] =        -0.187286811617;
  BAS[ATNO][  2].a[ 14] =         8.240990000000;     BAS[ATNO][  2].d[ 14] =         0.720973429428;
  BAS[ATNO][  2].a[ 15] =         2.194550000000;     BAS[ATNO][  2].d[ 15] =        -1.229087021652;
  BAS[ATNO][  2].a[ 16] =         1.109110000000;     BAS[ATNO][  2].d[ 16] =        -0.872539866018;
  BAS[ATNO][  2].a[ 17] =         0.081061000000;     BAS[ATNO][  2].d[ 17] =         0.305339282325;
  BAS[ATNO][  2].a[ 18] =         0.374641000000;     BAS[ATNO][  2].d[ 18] =         2.814338655917;
  BAS[ATNO][  2].a[ 19] =         0.177080000000;     BAS[ATNO][  2].d[ 19] =        -2.040977131656;
  BAS[ATNO][  2].a[ 20] =         0.100100000000;     BAS[ATNO][  2].d[ 20] =         0.884105126997;
  BAS[ATNO][  2].a[ 21] =         0.041200000000;     BAS[ATNO][  2].d[ 21] =        -0.275633300856;

  // Basis function   4 L = p
  InitBFNGauss(BAS[ATNO][  3]);
  BAS[ATNO][  3].l  = 1;
  BAS[ATNO][  3].ng = 43;
  BAS[ATNO][  3].a[  0] =       188.988000000000;     BAS[ATNO][  3].d[  0] =        -0.000157277862;
  BAS[ATNO][  3].a[  1] =        21.286800000000;     BAS[ATNO][  3].d[  1] =        -0.009926786620;
  BAS[ATNO][  3].a[  2] =        10.039600000000;     BAS[ATNO][  3].d[  2] =         0.063267099965;
  BAS[ATNO][  3].a[  3] =         3.451800000000;     BAS[ATNO][  3].d[  3] =        -0.091808056552;
  BAS[ATNO][  3].a[  4] =         1.974560000000;     BAS[ATNO][  3].d[  4] =        -0.143778305064;
  BAS[ATNO][  3].a[  5] =         1.024200000000;     BAS[ATNO][  3].d[  5] =        -0.071283431160;
  BAS[ATNO][  3].a[  6] =         0.449437000000;     BAS[ATNO][  3].d[  6] =        -0.006932861529;
  BAS[ATNO][  3].a[  7] =         0.186648000000;     BAS[ATNO][  3].d[  7] =        -0.000140340249;
  BAS[ATNO][  3].a[  8] =         0.073481000000;     BAS[ATNO][  3].d[  8] =        -0.000162923733;
  BAS[ATNO][  3].a[  9] =       188.988000000000;     BAS[ATNO][  3].d[  9] =        -0.000293302808;
  BAS[ATNO][  3].a[ 10] =        21.286800000000;     BAS[ATNO][  3].d[ 10] =        -0.018512169166;
  BAS[ATNO][  3].a[ 11] =        10.039600000000;     BAS[ATNO][  3].d[ 11] =         0.117984933292;
  BAS[ATNO][  3].a[ 12] =         3.451800000000;     BAS[ATNO][  3].d[ 12] =        -0.171210114483;
  BAS[ATNO][  3].a[ 13] =         1.974560000000;     BAS[ATNO][  3].d[ 13] =        -0.268127885445;
  BAS[ATNO][  3].a[ 14] =         1.024200000000;     BAS[ATNO][  3].d[ 14] =        -0.132934350950;
  BAS[ATNO][  3].a[ 15] =         0.449437000000;     BAS[ATNO][  3].d[ 15] =        -0.012928887297;
  BAS[ATNO][  3].a[ 16] =         0.186648000000;     BAS[ATNO][  3].d[ 16] =        -0.000261716357;
  BAS[ATNO][  3].a[ 17] =         0.073481000000;     BAS[ATNO][  3].d[ 17] =        -0.000303831625;
  BAS[ATNO][  3].a[ 18] =       188.988000000000;     BAS[ATNO][  3].d[ 18] =         0.000308718738;
  BAS[ATNO][  3].a[ 19] =        21.286800000000;     BAS[ATNO][  3].d[ 19] =         0.019485164648;
  BAS[ATNO][  3].a[ 20] =        10.039600000000;     BAS[ATNO][  3].d[ 20] =        -0.124186195065;
  BAS[ATNO][  3].a[ 21] =         3.451800000000;     BAS[ATNO][  3].d[ 21] =         0.180208879906;
  BAS[ATNO][  3].a[ 22] =         1.974560000000;     BAS[ATNO][  3].d[ 22] =         0.282220627288;
  BAS[ATNO][  3].a[ 23] =         1.024200000000;     BAS[ATNO][  3].d[ 23] =         0.139921350780;
  BAS[ATNO][  3].a[ 24] =         0.449437000000;     BAS[ATNO][  3].d[ 24] =         0.013608426729;
  BAS[ATNO][  3].a[ 25] =         0.186648000000;     BAS[ATNO][  3].d[ 25] =         0.000275472111;
  BAS[ATNO][  3].a[ 26] =         0.073481000000;     BAS[ATNO][  3].d[ 26] =         0.000319800947;
  BAS[ATNO][  3].a[ 27] =       188.988000000000;     BAS[ATNO][  3].d[ 27] =        -0.000022988147;
  BAS[ATNO][  3].a[ 28] =        21.286800000000;     BAS[ATNO][  3].d[ 28] =        -0.001049013788;
  BAS[ATNO][  3].a[ 29] =        10.039600000000;     BAS[ATNO][  3].d[ 29] =         0.007470429309;
  BAS[ATNO][  3].a[ 30] =         3.451800000000;     BAS[ATNO][  3].d[ 30] =        -0.014095505441;
  BAS[ATNO][  3].a[ 31] =         1.974560000000;     BAS[ATNO][  3].d[ 31] =        -0.020161143468;
  BAS[ATNO][  3].a[ 32] =         1.024200000000;     BAS[ATNO][  3].d[ 32] =        -0.010277407737;
  BAS[ATNO][  3].a[ 33] =         0.449437000000;     BAS[ATNO][  3].d[ 33] =         0.033706010957;
  BAS[ATNO][  3].a[ 34] =         0.186648000000;     BAS[ATNO][  3].d[ 34] =         0.051645745152;
  BAS[ATNO][  3].a[ 35] =         0.073481000000;     BAS[ATNO][  3].d[ 35] =         0.022082719060;
  BAS[ATNO][  3].a[ 36] =       188.988000000000;     BAS[ATNO][  3].d[ 36] =        -0.000042869911;
  BAS[ATNO][  3].a[ 37] =        21.286800000000;     BAS[ATNO][  3].d[ 37] =        -0.001956274617;
  BAS[ATNO][  3].a[ 38] =        10.039600000000;     BAS[ATNO][  3].d[ 38] =         0.013931381463;
  BAS[ATNO][  3].a[ 39] =         3.451800000000;     BAS[ATNO][  3].d[ 39] =        -0.026286288926;
  BAS[ATNO][  3].a[ 40] =         1.974560000000;     BAS[ATNO][  3].d[ 40] =        -0.037597916903;
  BAS[ATNO][  3].a[ 41] =         1.024200000000;     BAS[ATNO][  3].d[ 41] =        -0.019166032059;
  BAS[ATNO][  3].a[ 42] =         0.449437000000;     BAS[ATNO][  3].d[ 42] =         0.062857337486;

  // Basis function   5 L = s
  InitBFNGauss(BAS[ATNO][  4]);
  BAS[ATNO][  4].l  = 0;
  BAS[ATNO][  4].ng = 22;
  BAS[ATNO][  4].a[  0] =      5546.500000000000;     BAS[ATNO][  4].d[  0] =        -0.000076569241;
  BAS[ATNO][  4].a[  1] =       838.214000000000;     BAS[ATNO][  4].d[  1] =        -0.000483956859;
  BAS[ATNO][  4].a[  2] =       182.187000000000;     BAS[ATNO][  4].d[  2] =        -0.001370393121;
  BAS[ATNO][  4].a[  3] =        31.212300000000;     BAS[ATNO][  4].d[  3] =         0.021228822614;
  BAS[ATNO][  4].a[  4] =        19.531400000000;     BAS[ATNO][  4].d[  4] =        -0.114919635354;
  BAS[ATNO][  4].a[  5] =         8.240990000000;     BAS[ATNO][  4].d[  5] =         0.368584211356;
  BAS[ATNO][  4].a[  6] =         2.194550000000;     BAS[ATNO][  4].d[  6] =        -0.433385841434;
  BAS[ATNO][  4].a[  7] =         1.109110000000;     BAS[ATNO][  4].d[  7] =        -0.226792698328;
  BAS[ATNO][  4].a[  8] =         0.081061000000;     BAS[ATNO][  4].d[  8] =        -0.000540893000;
  BAS[ATNO][  4].a[  9] =      5546.500000000000;     BAS[ATNO][  4].d[  9] =         0.000119157642;
  BAS[ATNO][  4].a[ 10] =       838.214000000000;     BAS[ATNO][  4].d[ 10] =         0.000829206672;
  BAS[ATNO][  4].a[ 11] =       182.187000000000;     BAS[ATNO][  4].d[ 11] =         0.001890199321;
  BAS[ATNO][  4].a[ 12] =        31.212300000000;     BAS[ATNO][  4].d[ 12] =        -0.019902590985;
  BAS[ATNO][  4].a[ 13] =        19.531400000000;     BAS[ATNO][  4].d[ 13] =         0.143403775005;
  BAS[ATNO][  4].a[ 14] =         8.240990000000;     BAS[ATNO][  4].d[ 14] =        -0.552042669558;
  BAS[ATNO][  4].a[ 15] =         2.194550000000;     BAS[ATNO][  4].d[ 15] =         0.941100535550;
  BAS[ATNO][  4].a[ 16] =         1.109110000000;     BAS[ATNO][  4].d[ 16] =         0.668095684628;
  BAS[ATNO][  4].a[ 17] =         0.081061000000;     BAS[ATNO][  4].d[ 17] =        -0.233795457163;
  BAS[ATNO][  4].a[ 18] =         0.374641000000;     BAS[ATNO][  4].d[ 18] =        -5.407202379140;
  BAS[ATNO][  4].a[ 19] =         0.177080000000;     BAS[ATNO][  4].d[ 19] =        12.948628434389;
  BAS[ATNO][  4].a[ 20] =         0.100100000000;     BAS[ATNO][  4].d[ 20] =       -10.867878370247;
  BAS[ATNO][  4].a[ 21] =         0.041200000000;     BAS[ATNO][  4].d[ 21] =         2.918129101152;

  // Basis function   6 L = p
  InitBFNGauss(BAS[ATNO][  5]);
  BAS[ATNO][  5].l  = 1;
  BAS[ATNO][  5].ng = 43;
  BAS[ATNO][  5].a[  0] =       188.988000000000;     BAS[ATNO][  5].d[  0] =         0.000371505932;
  BAS[ATNO][  5].a[  1] =        21.286800000000;     BAS[ATNO][  5].d[  1] =         0.023448055991;
  BAS[ATNO][  5].a[  2] =        10.039600000000;     BAS[ATNO][  5].d[  2] =        -0.149443174221;
  BAS[ATNO][  5].a[  3] =         3.451800000000;     BAS[ATNO][  5].d[  3] =         0.216859748556;
  BAS[ATNO][  5].a[  4] =         1.974560000000;     BAS[ATNO][  5].d[  4] =         0.339618637566;
  BAS[ATNO][  5].a[  5] =         1.024200000000;     BAS[ATNO][  5].d[  5] =         0.168378544740;
  BAS[ATNO][  5].a[  6] =         0.449437000000;     BAS[ATNO][  5].d[  6] =         0.016376107550;
  BAS[ATNO][  5].a[  7] =         0.186648000000;     BAS[ATNO][  5].d[  7] =         0.000331497608;
  BAS[ATNO][  5].a[  8] =         0.073481000000;     BAS[ATNO][  5].d[  8] =         0.000384842040;
  BAS[ATNO][  5].a[  9] =       188.988000000000;     BAS[ATNO][  5].d[  9] =        -0.000255358698;
  BAS[ATNO][  5].a[ 10] =        21.286800000000;     BAS[ATNO][  5].d[ 10] =        -0.016117279793;
  BAS[ATNO][  5].a[ 11] =        10.039600000000;     BAS[ATNO][  5].d[ 11] =         0.102721413366;
  BAS[ATNO][  5].a[ 12] =         3.451800000000;     BAS[ATNO][  5].d[ 12] =        -0.149060938982;
  BAS[ATNO][  5].a[ 13] =         1.974560000000;     BAS[ATNO][  5].d[ 13] =        -0.233440614722;
  BAS[ATNO][  5].a[ 14] =         1.024200000000;     BAS[ATNO][  5].d[ 14] =        -0.115736849049;
  BAS[ATNO][  5].a[ 15] =         0.449437000000;     BAS[ATNO][  5].d[ 15] =        -0.011256298066;
  BAS[ATNO][  5].a[ 16] =         0.186648000000;     BAS[ATNO][  5].d[ 16] =        -0.000227858536;
  BAS[ATNO][  5].a[ 17] =         0.073481000000;     BAS[ATNO][  5].d[ 17] =        -0.000264525419;
  BAS[ATNO][  5].a[ 18] =       188.988000000000;     BAS[ATNO][  5].d[ 18] =        -0.000053342290;
  BAS[ATNO][  5].a[ 19] =        21.286800000000;     BAS[ATNO][  5].d[ 19] =        -0.003366764548;
  BAS[ATNO][  5].a[ 20] =        10.039600000000;     BAS[ATNO][  5].d[ 20] =         0.021457641566;
  BAS[ATNO][  5].a[ 21] =         3.451800000000;     BAS[ATNO][  5].d[ 21] =        -0.031137579745;
  BAS[ATNO][  5].a[ 22] =         1.974560000000;     BAS[ATNO][  5].d[ 22] =        -0.048763786182;
  BAS[ATNO][  5].a[ 23] =         1.024200000000;     BAS[ATNO][  5].d[ 23] =        -0.024176456899;
  BAS[ATNO][  5].a[ 24] =         0.449437000000;     BAS[ATNO][  5].d[ 24] =        -0.002351346242;
  BAS[ATNO][  5].a[ 25] =         0.186648000000;     BAS[ATNO][  5].d[ 25] =        -0.000047597737;
  BAS[ATNO][  5].a[ 26] =         0.073481000000;     BAS[ATNO][  5].d[ 26] =        -0.000055257141;
  BAS[ATNO][  5].a[ 27] =       188.988000000000;     BAS[ATNO][  5].d[ 27] =         0.000054300286;
  BAS[ATNO][  5].a[ 28] =        21.286800000000;     BAS[ATNO][  5].d[ 28] =         0.002477874761;
  BAS[ATNO][  5].a[ 29] =        10.039600000000;     BAS[ATNO][  5].d[ 29] =        -0.017645896039;
  BAS[ATNO][  5].a[ 30] =         3.451800000000;     BAS[ATNO][  5].d[ 30] =         0.033294983910;
  BAS[ATNO][  5].a[ 31] =         1.974560000000;     BAS[ATNO][  5].d[ 31] =         0.047622623409;
  BAS[ATNO][  5].a[ 32] =         1.024200000000;     BAS[ATNO][  5].d[ 32] =         0.024276257894;
  BAS[ATNO][  5].a[ 33] =         0.449437000000;     BAS[ATNO][  5].d[ 33] =        -0.079616945782;
  BAS[ATNO][  5].a[ 34] =         0.186648000000;     BAS[ATNO][  5].d[ 34] =        -0.121992379844;
  BAS[ATNO][  5].a[ 35] =         0.073481000000;     BAS[ATNO][  5].d[ 35] =        -0.052161575821;
  BAS[ATNO][  5].a[ 36] =       188.988000000000;     BAS[ATNO][  5].d[ 36] =        -0.000037323900;
  BAS[ATNO][  5].a[ 37] =        21.286800000000;     BAS[ATNO][  5].d[ 37] =        -0.001703194535;
  BAS[ATNO][  5].a[ 38] =        10.039600000000;     BAS[ATNO][  5].d[ 38] =         0.012129101183;
  BAS[ATNO][  5].a[ 39] =         3.451800000000;     BAS[ATNO][  5].d[ 39] =        -0.022885674258;
  BAS[ATNO][  5].a[ 40] =         1.974560000000;     BAS[ATNO][  5].d[ 40] =        -0.032733935225;
  BAS[ATNO][  5].a[ 41] =         1.024200000000;     BAS[ATNO][  5].d[ 41] =        -0.016686553502;
  BAS[ATNO][  5].a[ 42] =         0.449437000000;     BAS[ATNO][  5].d[ 42] =         0.054725585436;

  // Basis function   7 L = p
  InitBFNGauss(BAS[ATNO][  6]);
  BAS[ATNO][  6].l  = 1;
  BAS[ATNO][  6].ng = 43;
  BAS[ATNO][  6].a[  0] =       188.988000000000;     BAS[ATNO][  6].d[  0] =        -0.000093676728;
  BAS[ATNO][  6].a[  1] =        21.286800000000;     BAS[ATNO][  6].d[  1] =        -0.005912522471;
  BAS[ATNO][  6].a[  2] =        10.039600000000;     BAS[ATNO][  6].d[  2] =         0.037682702824;
  BAS[ATNO][  6].a[  3] =         3.451800000000;     BAS[ATNO][  6].d[  3] =        -0.054682065620;
  BAS[ATNO][  6].a[  4] =         1.974560000000;     BAS[ATNO][  6].d[  4] =        -0.085636217643;
  BAS[ATNO][  6].a[  5] =         1.024200000000;     BAS[ATNO][  6].d[  5] =        -0.042457333340;
  BAS[ATNO][  6].a[  6] =         0.449437000000;     BAS[ATNO][  6].d[  6] =        -0.004129301973;
  BAS[ATNO][  6].a[  7] =         0.186648000000;     BAS[ATNO][  6].d[  7] =        -0.000083588467;
  BAS[ATNO][  6].a[  8] =         0.073481000000;     BAS[ATNO][  6].d[  8] =        -0.000097039482;
  BAS[ATNO][  6].a[  9] =       188.988000000000;     BAS[ATNO][  6].d[  9] =         0.000245563178;
  BAS[ATNO][  6].a[ 10] =        21.286800000000;     BAS[ATNO][  6].d[ 10] =         0.015499023421;
  BAS[ATNO][  6].a[ 11] =        10.039600000000;     BAS[ATNO][  6].d[ 11] =        -0.098781035761;
  BAS[ATNO][  6].a[ 12] =         3.451800000000;     BAS[ATNO][  6].d[ 12] =         0.143342984308;
  BAS[ATNO][  6].a[ 13] =         1.974560000000;     BAS[ATNO][  6].d[ 13] =         0.224485868676;
  BAS[ATNO][  6].a[ 14] =         1.024200000000;     BAS[ATNO][  6].d[ 14] =         0.111297201335;
  BAS[ATNO][  6].a[ 15] =         0.449437000000;     BAS[ATNO][  6].d[ 15] =         0.010824508205;
  BAS[ATNO][  6].a[ 16] =         0.186648000000;     BAS[ATNO][  6].d[ 16] =         0.000219117917;
  BAS[ATNO][  6].a[ 17] =         0.073481000000;     BAS[ATNO][  6].d[ 17] =         0.000254378265;
  BAS[ATNO][  6].a[ 18] =       188.988000000000;     BAS[ATNO][  6].d[ 18] =        -0.000115695140;
  BAS[ATNO][  6].a[ 19] =        21.286800000000;     BAS[ATNO][  6].d[ 19] =        -0.007302241748;
  BAS[ATNO][  6].a[ 20] =        10.039600000000;     BAS[ATNO][  6].d[ 20] =         0.046539900205;
  BAS[ATNO][  6].a[ 21] =         3.451800000000;     BAS[ATNO][  6].d[ 21] =        -0.067534908227;
  BAS[ATNO][  6].a[ 22] =         1.974560000000;     BAS[ATNO][  6].d[ 22] =        -0.105764733534;
  BAS[ATNO][  6].a[ 23] =         1.024200000000;     BAS[ATNO][  6].d[ 23] =        -0.052436792176;
  BAS[ATNO][  6].a[ 24] =         0.449437000000;     BAS[ATNO][  6].d[ 24] =        -0.005099881042;
  BAS[ATNO][  6].a[ 25] =         0.186648000000;     BAS[ATNO][  6].d[ 25] =        -0.000103235666;
  BAS[ATNO][  6].a[ 26] =         0.073481000000;     BAS[ATNO][  6].d[ 26] =        -0.000119848299;
  BAS[ATNO][  6].a[ 27] =       188.988000000000;     BAS[ATNO][  6].d[ 27] =         0.000018195703;
  BAS[ATNO][  6].a[ 28] =        21.286800000000;     BAS[ATNO][  6].d[ 28] =         0.000830321108;
  BAS[ATNO][  6].a[ 29] =        10.039600000000;     BAS[ATNO][  6].d[ 29] =        -0.005913034907;
  BAS[ATNO][  6].a[ 30] =         3.451800000000;     BAS[ATNO][  6].d[ 30] =         0.011156951262;
  BAS[ATNO][  6].a[ 31] =         1.974560000000;     BAS[ATNO][  6].d[ 31] =         0.015958058120;
  BAS[ATNO][  6].a[ 32] =         1.024200000000;     BAS[ATNO][  6].d[ 32] =         0.008134829765;
  BAS[ATNO][  6].a[ 33] =         0.449437000000;     BAS[ATNO][  6].d[ 33] =        -0.026679165430;
  BAS[ATNO][  6].a[ 34] =         0.186648000000;     BAS[ATNO][  6].d[ 34] =        -0.040878921580;
  BAS[ATNO][  6].a[ 35] =         0.073481000000;     BAS[ATNO][  6].d[ 35] =        -0.017479034102;
  BAS[ATNO][  6].a[ 36] =       188.988000000000;     BAS[ATNO][  6].d[ 36] =        -0.000047698022;
  BAS[ATNO][  6].a[ 37] =        21.286800000000;     BAS[ATNO][  6].d[ 37] =        -0.002176594908;
  BAS[ATNO][  6].a[ 38] =        10.039600000000;     BAS[ATNO][  6].d[ 38] =         0.015500366715;
  BAS[ATNO][  6].a[ 39] =         3.451800000000;     BAS[ATNO][  6].d[ 39] =        -0.029246713188;
  BAS[ATNO][  6].a[ 40] =         1.974560000000;     BAS[ATNO][  6].d[ 40] =        -0.041832283560;
  BAS[ATNO][  6].a[ 41] =         1.024200000000;     BAS[ATNO][  6].d[ 41] =        -0.021324556089;
  BAS[ATNO][  6].a[ 42] =         0.449437000000;     BAS[ATNO][  6].d[ 42] =         0.069936480054;

  // Basis function   8 L = p
  InitBFNGauss(BAS[ATNO][  7]);
  BAS[ATNO][  7].l  = 1;
  BAS[ATNO][  7].ng = 43;
  BAS[ATNO][  7].a[  0] =       188.988000000000;     BAS[ATNO][  7].d[  0] =        -0.000043435302;
  BAS[ATNO][  7].a[  1] =        21.286800000000;     BAS[ATNO][  7].d[  1] =        -0.002741472757;
  BAS[ATNO][  7].a[  2] =        10.039600000000;     BAS[ATNO][  7].d[  2] =         0.017472424625;
  BAS[ATNO][  7].a[  3] =         3.451800000000;     BAS[ATNO][  7].d[  3] =        -0.025354557883;
  BAS[ATNO][  7].a[  4] =         1.974560000000;     BAS[ATNO][  7].d[  4] =        -0.039707140036;
  BAS[ATNO][  7].a[  5] =         1.024200000000;     BAS[ATNO][  7].d[  5] =        -0.019686288429;
  BAS[ATNO][  7].a[  6] =         0.449437000000;     BAS[ATNO][  7].d[  6] =        -0.001914642849;
  BAS[ATNO][  7].a[  7] =         0.186648000000;     BAS[ATNO][  7].d[  7] =        -0.000038757655;
  BAS[ATNO][  7].a[  8] =         0.073481000000;     BAS[ATNO][  7].d[  8] =        -0.000044994518;
  BAS[ATNO][  7].a[  9] =       188.988000000000;     BAS[ATNO][  7].d[  9] =         0.000035794737;
  BAS[ATNO][  7].a[ 10] =        21.286800000000;     BAS[ATNO][  7].d[ 10] =         0.002259229028;
  BAS[ATNO][  7].a[ 11] =        10.039600000000;     BAS[ATNO][  7].d[ 11] =        -0.014398906135;
  BAS[ATNO][  7].a[ 12] =         3.451800000000;     BAS[ATNO][  7].d[ 12] =         0.020894518470;
  BAS[ATNO][  7].a[ 13] =         1.974560000000;     BAS[ATNO][  7].d[ 13] =         0.032722383672;
  BAS[ATNO][  7].a[ 14] =         1.024200000000;     BAS[ATNO][  7].d[ 14] =         0.016223336218;
  BAS[ATNO][  7].a[ 15] =         0.449437000000;     BAS[ATNO][  7].d[ 15] =         0.001577844132;
  BAS[ATNO][  7].a[ 16] =         0.186648000000;     BAS[ATNO][  7].d[ 16] =         0.000031939919;
  BAS[ATNO][  7].a[ 17] =         0.073481000000;     BAS[ATNO][  7].d[ 17] =         0.000037079676;
  BAS[ATNO][  7].a[ 18] =       188.988000000000;     BAS[ATNO][  7].d[ 18] =         0.000002003121;
  BAS[ATNO][  7].a[ 19] =        21.286800000000;     BAS[ATNO][  7].d[ 19] =         0.000126429468;
  BAS[ATNO][  7].a[ 20] =        10.039600000000;     BAS[ATNO][  7].d[ 20] =        -0.000805781983;
  BAS[ATNO][  7].a[ 21] =         3.451800000000;     BAS[ATNO][  7].d[ 21] =         0.001169285109;
  BAS[ATNO][  7].a[ 22] =         1.974560000000;     BAS[ATNO][  7].d[ 22] =         0.001831188214;
  BAS[ATNO][  7].a[ 23] =         1.024200000000;     BAS[ATNO][  7].d[ 23] =         0.000907879523;
  BAS[ATNO][  7].a[ 24] =         0.449437000000;     BAS[ATNO][  7].d[ 24] =         0.000088298261;
  BAS[ATNO][  7].a[ 25] =         0.186648000000;     BAS[ATNO][  7].d[ 25] =         0.000001787400;
  BAS[ATNO][  7].a[ 26] =         0.073481000000;     BAS[ATNO][  7].d[ 26] =         0.000002075028;
  BAS[ATNO][  7].a[ 27] =       188.988000000000;     BAS[ATNO][  7].d[ 27] =        -0.000030135026;
  BAS[ATNO][  7].a[ 28] =        21.286800000000;     BAS[ATNO][  7].d[ 28] =        -0.001375146002;
  BAS[ATNO][  7].a[ 29] =        10.039600000000;     BAS[ATNO][  7].d[ 29] =         0.009792941830;
  BAS[ATNO][  7].a[ 30] =         3.451800000000;     BAS[ATNO][  7].d[ 30] =        -0.018477715154;
  BAS[ATNO][  7].a[ 31] =         1.974560000000;     BAS[ATNO][  7].d[ 31] =        -0.026429124357;
  BAS[ATNO][  7].a[ 32] =         1.024200000000;     BAS[ATNO][  7].d[ 32] =        -0.013472593336;
  BAS[ATNO][  7].a[ 33] =         0.449437000000;     BAS[ATNO][  7].d[ 33] =         0.044185011459;
  BAS[ATNO][  7].a[ 34] =         0.186648000000;     BAS[ATNO][  7].d[ 34] =         0.067702103470;
  BAS[ATNO][  7].a[ 35] =         0.073481000000;     BAS[ATNO][  7].d[ 35] =         0.028948106495;
  BAS[ATNO][  7].a[ 36] =       188.988000000000;     BAS[ATNO][  7].d[ 36] =         0.000024834070;
  BAS[ATNO][  7].a[ 37] =        21.286800000000;     BAS[ATNO][  7].d[ 37] =         0.001133248455;
  BAS[ATNO][  7].a[ 38] =        10.039600000000;     BAS[ATNO][  7].d[ 38] =        -0.008070296665;
  BAS[ATNO][  7].a[ 39] =         3.451800000000;     BAS[ATNO][  7].d[ 39] =         0.015227359213;
  BAS[ATNO][  7].a[ 40] =         1.974560000000;     BAS[ATNO][  7].d[ 40] =         0.021780061382;
  BAS[ATNO][  7].a[ 41] =         1.024200000000;     BAS[ATNO][  7].d[ 41] =         0.011102672411;
  BAS[ATNO][  7].a[ 42] =         0.449437000000;     BAS[ATNO][  7].d[ 42] =        -0.036412567013;

  // Basis function   9 L = p
  InitBFNGauss(BAS[ATNO][  8]);
  BAS[ATNO][  8].l  = 1;
  BAS[ATNO][  8].ng = 43;
  BAS[ATNO][  8].a[  0] =       188.988000000000;     BAS[ATNO][  8].d[  0] =         0.001006112690;
  BAS[ATNO][  8].a[  1] =        21.286800000000;     BAS[ATNO][  8].d[  1] =         0.063502045715;
  BAS[ATNO][  8].a[  2] =        10.039600000000;     BAS[ATNO][  8].d[  2] =        -0.404722134953;
  BAS[ATNO][  8].a[  3] =         3.451800000000;     BAS[ATNO][  8].d[  3] =         0.587299760452;
  BAS[ATNO][  8].a[  4] =         1.974560000000;     BAS[ATNO][  8].d[  4] =         0.919755490891;
  BAS[ATNO][  8].a[  5] =         1.024200000000;     BAS[ATNO][  8].d[  5] =         0.456002921932;
  BAS[ATNO][  8].a[  6] =         0.449437000000;     BAS[ATNO][  8].d[  6] =         0.044349788770;
  BAS[ATNO][  8].a[  7] =         0.186648000000;     BAS[ATNO][  8].d[  7] =         0.000897762112;
  BAS[ATNO][  8].a[  8] =         0.073481000000;     BAS[ATNO][  8].d[  8] =         0.001042229550;
  BAS[ATNO][  8].a[  9] =       188.988000000000;     BAS[ATNO][  8].d[  9] =         0.001144943043;
  BAS[ATNO][  8].a[ 10] =        21.286800000000;     BAS[ATNO][  8].d[ 10] =         0.072264494989;
  BAS[ATNO][  8].a[ 11] =        10.039600000000;     BAS[ATNO][  8].d[ 11] =        -0.460568480338;
  BAS[ATNO][  8].a[ 12] =         3.451800000000;     BAS[ATNO][  8].d[ 12] =         0.668339423060;
  BAS[ATNO][  8].a[ 13] =         1.974560000000;     BAS[ATNO][  8].d[ 13] =         1.046669683069;
  BAS[ATNO][  8].a[ 14] =         1.024200000000;     BAS[ATNO][  8].d[ 14] =         0.518925343207;
  BAS[ATNO][  8].a[ 15] =         0.449437000000;     BAS[ATNO][  8].d[ 15] =         0.050469477829;
  BAS[ATNO][  8].a[ 16] =         0.186648000000;     BAS[ATNO][  8].d[ 16] =         0.001021641506;
  BAS[ATNO][  8].a[ 17] =         0.073481000000;     BAS[ATNO][  8].d[ 17] =         0.001186043556;
  BAS[ATNO][  8].a[ 18] =       188.988000000000;     BAS[ATNO][  8].d[ 18] =        -0.001453575433;
  BAS[ATNO][  8].a[ 19] =        21.286800000000;     BAS[ATNO][  8].d[ 19] =        -0.091744209622;
  BAS[ATNO][  8].a[ 20] =        10.039600000000;     BAS[ATNO][  8].d[ 20] =         0.584719940429;
  BAS[ATNO][  8].a[ 21] =         3.451800000000;     BAS[ATNO][  8].d[ 21] =        -0.848497898403;
  BAS[ATNO][  8].a[ 22] =         1.974560000000;     BAS[ATNO][  8].d[ 22] =        -1.328811373030;
  BAS[ATNO][  8].a[ 23] =         1.024200000000;     BAS[ATNO][  8].d[ 23] =        -0.658807557877;
  BAS[ATNO][  8].a[ 24] =         0.449437000000;     BAS[ATNO][  8].d[ 24] =        -0.064074098271;
  BAS[ATNO][  8].a[ 25] =         0.186648000000;     BAS[ATNO][  8].d[ 25] =        -0.001297036567;
  BAS[ATNO][  8].a[ 26] =         0.073481000000;     BAS[ATNO][  8].d[ 26] =        -0.001505755055;
  BAS[ATNO][  8].a[ 27] =       188.988000000000;     BAS[ATNO][  8].d[ 27] =        -0.000732338503;
  BAS[ATNO][  8].a[ 28] =        21.286800000000;     BAS[ATNO][  8].d[ 28] =        -0.033418665489;
  BAS[ATNO][  8].a[ 29] =        10.039600000000;     BAS[ATNO][  8].d[ 29] =         0.237987127601;
  BAS[ATNO][  8].a[ 30] =         3.451800000000;     BAS[ATNO][  8].d[ 30] =        -0.449043651098;
  BAS[ATNO][  8].a[ 31] =         1.974560000000;     BAS[ATNO][  8].d[ 31] =        -0.642278030460;
  BAS[ATNO][  8].a[ 32] =         1.024200000000;     BAS[ATNO][  8].d[ 32] =        -0.327409663537;
  BAS[ATNO][  8].a[ 33] =         0.449437000000;     BAS[ATNO][  8].d[ 33] =         1.073779885867;
  BAS[ATNO][  8].a[ 34] =         0.186648000000;     BAS[ATNO][  8].d[ 34] =         1.645289987186;
  BAS[ATNO][  8].a[ 35] =         0.073481000000;     BAS[ATNO][  8].d[ 35] =         0.703494091381;
  BAS[ATNO][  8].a[ 36] =       188.988000000000;     BAS[ATNO][  8].d[ 36] =        -0.000833391609;
  BAS[ATNO][  8].a[ 37] =        21.286800000000;     BAS[ATNO][  8].d[ 37] =        -0.038030002932;
  BAS[ATNO][  8].a[ 38] =        10.039600000000;     BAS[ATNO][  8].d[ 38] =         0.270826229239;
  BAS[ATNO][  8].a[ 39] =         3.451800000000;     BAS[ATNO][  8].d[ 39] =        -0.511005784290;
  BAS[ATNO][  8].a[ 40] =         1.974560000000;     BAS[ATNO][  8].d[ 40] =        -0.730903973112;
  BAS[ATNO][  8].a[ 41] =         1.024200000000;     BAS[ATNO][  8].d[ 41] =        -0.372587902069;
  BAS[ATNO][  8].a[ 42] =         0.449437000000;     BAS[ATNO][  8].d[ 42] =         1.221947424023;

-------------------------------------------
RADIAL EXPECTATION VALUES <R**-3> TO <R**3>
-------------------------------------------
   0 :     0.000000     2.467338     1.489665     0.730442     0.582441     0.539578
   1 :     3.891910     2.224641     1.422659     0.766270     0.637644     0.581900
   2 :     3.891910     2.224641     1.422659     0.766270     0.637644     0.581900
   3 :     3.892176     2.224772     1.422710     0.766234     0.637581     0.581829
   4 :     0.000000     0.734386     0.751559     1.532121     2.631068     5.450201
   5 :     0.666721     0.586892     0.691637     1.634770     2.895829     5.479673
   6 :     0.000000     0.192176     0.371585     3.089741    10.487140    39.206448
   7 :     0.000000     0.060532     0.201181     5.751290    35.729716   234.377195
   8 :     0.000000     0.133493     0.274160     4.882924    28.615649   190.347921
   9 :     0.666721     0.586892     0.691637     1.634770     2.895829     5.479673
  10 :     0.667737     0.587667     0.692169     1.633255     2.889898     5.460687
  11 :     0.097035     0.132711     0.316645     3.602264    14.081416    58.762748
  12 :     0.097749     0.133207     0.316975     3.600646    14.069211    58.676542
  13 :     0.097749     0.133207     0.316975     3.600646    14.069211    58.676542
  14 :     0.019629     0.038196     0.165718     6.851948    50.259111   386.995071
  15 :     0.019629     0.038196     0.165718     6.851948    50.259111   386.995071
  16 :     0.019651     0.038242     0.165803     6.850661    50.248833   386.935472
  17 :     0.739003     0.339179     0.414270     3.657386    17.977992   109.998974
  18 :     0.739003     0.339179     0.414270     3.657386    17.977992   109.998974
  19 :     0.738415     0.338723     0.413934     3.658604    17.982059   109.991423
  20 :     0.000000    22.647695     3.961728     0.348614     0.225728     0.452317
Making the total density                ... o.k.
o.k.
Initializing the integrals              ... done
Making exponents                        ... done
Making rho(0)                           ... done (         0.368261894)
Integral calculation                    ... Two index integrals                     ... done
Solving the equation system             ... done
atomic density will be written to file 53_I_atom53.adf

-------
TIMINGS
-------

Total SCF time: 0 days 0 hours 0 min 0 sec 

Total time                  ....       0.660 sec
Sum of individual times     ....       0.248 sec  ( 37.6%)

Fock matrix formation       ....       0.171 sec  ( 25.9%)
Diagonalization             ....       0.034 sec  (  5.2%)
Density matrix formation    ....       0.000 sec  (  0.0%)
Population analysis         ....       0.000 sec  (  0.0%)
Initial guess               ....       0.000 sec  (  0.1%)
Orbital Transformation      ....       0.000 sec  (  0.0%)
Orbital Orthonormalization  ....       0.000 sec  (  0.0%)
DIIS solution               ....       0.043 sec  (  6.5%)

-------------------------   --------------------
FINAL SINGLE POINT ENERGY      -254.885503083125
-------------------------   --------------------


                            ***************************************
                            *     ORCA property calculations      *
                            ***************************************

                                    ---------------------
                                    Active property flags
                                    ---------------------
   (+) Dipole Moment


------------------------------------------------------------------------------
                       ORCA ELECTRIC PROPERTIES CALCULATION
------------------------------------------------------------------------------

Dipole Moment Calculation                       ... on
Quadrupole Moment Calculation                   ... off
Polarizability Calculation                      ... off
GBWName                                         ... 53_I_atom53.gbw
Electron density file                           ... 53_I_atom53.scfp
The origin for moment calculation is the CENTER OF MASS  = ( 0.000000,  0.000000  0.000000)

-------------
DIPOLE MOMENT
-------------
                                X             Y             Z
Electronic contribution:     -0.00000      -0.00000       0.00000
Nuclear contribution   :      0.00000       0.00000       0.00000
                        -----------------------------------------
Total Dipole Moment    :     -0.00000      -0.00000       0.00000
                        -----------------------------------------
Magnitude (a.u.)       :      0.00000
Magnitude (Debye)      :      0.00000



--------------------
Rotational spectrum 
--------------------
 
Rotational constants in cm-1:     0.000000     0.000000     0.000000 
Rotational constants in MHz :     0.000000     0.000000     0.000000 

 Dipole components along the rotational axes: 
x,y,z [a.u.] :    -0.000000    -0.000000     0.000000 
x,y,z [Debye]:    -0.000000    -0.000000     0.000000 

 

Timings for individual modules:

Sum of individual times         ...        0.977 sec (=   0.016 min)
GTO integral calculation        ...        0.294 sec (=   0.005 min)  30.1 %
SCF iterations                  ...        0.682 sec (=   0.011 min)  69.9 %
                             ****ORCA TERMINATED NORMALLY****
TOTAL RUN TIME: 0 days 0 hours 0 minutes 1 seconds 184 msec
