
                                 *****************
                                 * O   R   C   A *
                                 *****************

           --- An Ab Initio, DFT and Semiempirical electronic structure package ---

                  #######################################################
                  #                        -***-                        #
                  #          Department of theory and spectroscopy      #
                  #               Directorship: Frank Neese             #
                  #        Max Planck Institute fuer Kohlenforschung    #
                  #                Kaiser Wilhelm Platz 1               #
                  #                 D-45470 Muelheim/Ruhr               #
                  #                      Germany                        #
                  #                                                     #
                  #                  All rights reserved                #
                  #                        -***-                        #
                  #######################################################


                         Program Version 4.2.0 -  RELEASE  -


 With contributions from (in alphabetic order):
   Daniel Aravena         : Magnetic Suceptibility
   Michael Atanasov       : Ab Initio Ligand Field Theory (pilot matlab implementation)
   Alexander A. Auer      : GIAO ZORA, VPT2
   Ute Becker             : Parallelization
   Giovanni Bistoni       : ED, misc. LED, open-shell LED, HFLED
   Martin Brehm           : Molecular dynamics
   Dmytro Bykov           : SCF Hessian
   Vijay G. Chilkuri      : MRCI spin determinant printing, contributions to CSF-ICE
   Dipayan Datta          : RHF DLPNO-CCSD density
   Achintya Kumar Dutta   : EOM-CC, STEOM-CC
   Dmitry Ganyushin       : Spin-Orbit,Spin-Spin,Magnetic field MRCI
   Miquel Garcia          : C-PCM Hessian, Gaussian charge scheme
   Yang Guo               : DLPNO-NEVPT2, CIM, IAO-localization
   Andreas Hansen         : Spin unrestricted coupled pair/coupled cluster methods
   Benjamin Helmich-Paris : CASSCF linear response (MC-RPA)
   Lee Huntington         : MR-EOM, pCC
   Robert Izsak           : Overlap fitted RIJCOSX, COSX-SCS-MP3, EOM
   Christian Kollmar      : KDIIS, OOCD, Brueckner-CCSD(T), CCSD density
   Simone Kossmann        : Meta GGA functionals, TD-DFT gradient, OOMP2, MP2 Hessian
   Martin Krupicka        : AUTO-CI
   Lucas Lang             : DCDCAS
   Dagmar Lenk            : GEPOL surface, SMD
   Dimitrios Liakos       : Extrapolation schemes; Compound Job, initial MDCI parallelization
   Dimitrios Manganas     : Further ROCIS development; embedding schemes
   Dimitrios Pantazis     : SARC Basis sets
   Taras Petrenko         : DFT Hessian,TD-DFT gradient, ASA, ECA, R-Raman, ABS, FL, XAS/XES, NRVS
   Peter Pinski           : DLPNO-MP2, DLPNO-MP2 Gradient
   Christoph Reimann      : Effective Core Potentials
   Marius Retegan         : Local ZFS, SOC
   Christoph Riplinger    : Optimizer, TS searches, QM/MM, DLPNO-CCSD(T), (RO)-DLPNO pert. Triples
   Tobias Risthaus        : Range-separated hybrids, TD-DFT gradient, RPA, STAB
   Michael Roemelt        : Original ROCIS implementation
   Masaaki Saitow         : Open-shell DLPNO-CCSD energy and density
   Barbara Sandhoefer     : DKH picture change effects
   Avijit Sen             : IP-ROCIS
   Kantharuban Sivalingam : CASSCF convergence, NEVPT2, FIC-MRCI
   Bernardo de Souza      : ESD, SOC TD-DFT
   Georgi Stoychev        : AutoAux, RI-MP2 NMR
   Willem Van den Heuvel  : Paramagnetic NMR
   Boris Wezisla          : Elementary symmetry handling
   Frank Wennmohs         : Technical directorship


 We gratefully acknowledge several colleagues who have allowed us to
 interface, adapt or use parts of their codes:
   Stefan Grimme, W. Hujo, H. Kruse,             : VdW corrections, initial TS optimization,
                  C. Bannwarth                     DFT functionals, gCP, sTDA/sTD-DF
   Ed Valeev, F. Pavosevic, A. Kumar             : LibInt (2-el integral package), F12 methods
   Garnet Chan, S. Sharma, J. Yang, R. Olivares  : DMRG
   Ulf Ekstrom                                   : XCFun DFT Library
   Mihaly Kallay                                 : mrcc  (arbitrary order and MRCC methods)
   Andreas Klamt, Michael Diedenhofen            : otool_cosmo (COSMO solvation model)
   Jiri Pittner, Ondrej Demel                    : Mk-CCSD
   Frank Weinhold                                : gennbo (NPA and NBO analysis)
   Christopher J. Cramer and Donald G. Truhlar   : smd solvation model
   Lars Goerigk                                  : TD-DFT with DH, B97 family of functionals
   V. Asgeirsson, H. Jonsson                     : NEB implementation
   FAccTs GmbH                                   : IRC, NEB, NEB-TS, Multilevel, MM, QM/MM, CI optimization
   S Lehtola, MJT Oliveira, MAL Marques          : LibXC Library


 Your calculation uses the libint2 library for the computation of 2-el integrals
 For citations please refer to: http://libint.valeyev.net

 Your ORCA version has been built with support for libXC version: 4.2.3
 For citations please refer to: https://tddft.org/programs/libxc/

 This ORCA versions uses:
   CBLAS   interface :  Fast vector & matrix operations
   LAPACKE interface :  Fast linear algebra routines
   SCALAPACK package :  Parallel linear algebra routines


----- Orbital basis set information -----
Your calculation utilizes the basis: def2-SVP
   F. Weigend and R. Ahlrichs, Phys. Chem. Chem. Phys. 7, 3297 (2005).

----- AuxJ basis set information -----
Your calculation utilizes the auxiliary basis: def2/J
   F. Weigend, Phys. Chem. Chem. Phys. 8, 1057 (2006).

================================================================================
                                        WARNINGS
                       Please study these warnings very carefully!
================================================================================


INFO   : the flag for use of LIBINT has been found!

================================================================================
                                       INPUT FILE
================================================================================
NAME = 54_Xe_atom54.inp
|  1> # input to generate an atomic fitting density for Xe
|  2> # this file is use internally by ORCA
|  3> #
|  4> # atomic ground state (S=1): 1s2 2s2 2p6 3s2 3p6 4s2 3d10 4p6 5s2 4d10 5p6 
|  5> #
|  6> ! RHF AllowRHF def2-SVP def2/J  NoMulliken NoLoewdin NoMayer NoPrintMOs 
|  7> 
|  8> %output print[p_atomdensfit] 2 end
|  9> 
| 10> %scf
| 11>   guess hcore
| 12>   maxiter 1000
| 13>   maxdisk 500000
| 14>   SCFMode Conventional
| 15>   lshift 1.000000
| 16>   hftyp rohf
| 17>   rohf_case sahf
| 18>   rohf_numop   2
| 19>   rohf_norb[1] 3
| 20>   rohf_nel[1]  6
| 21> end
| 22> 
| 23> %basis
| 24>   NewECP 54
| 25>     N_core 28
| 26>     lmax g
| 27>     s 3
| 28>       1      40.0051840000     49.9979620000  2
| 29>       2      17.8122140000    281.0133030000  2
| 30>       3       9.3041500000     61.5382550000  2
| 31>     p 4
| 32>       1      15.7017720000     67.4391420000  2
| 33>       2      15.2586080000    134.8747110000  2
| 34>       3       9.2921840000     14.6633000000  2
| 35>       4       8.5590030000     29.3547300000  2
| 36>     d 6
| 37>       1      15.1856000000     35.4369080000  2
| 38>       2      14.2845000000     53.1957720000  2
| 39>       3       7.1218890000      9.0462320000  2
| 40>       4       6.9919630000     13.2236810000  2
| 41>       5       0.6239460000      0.0848530000  2
| 42>       6       0.6472840000      0.0441550000  2
| 43>     f 4
| 44>       1      20.8815570000    -23.0892950000  2
| 45>       2      20.7834430000    -30.0744750000  2
| 46>       3       5.2533890000     -0.2882270000  2
| 47>       4       5.3611880000     -0.3869240000  2
| 48>     g 1
| 49>       1       1.0000000000      0.0000000000  2
| 50>   end
| 51>   NewGTO 54
| 52>     s 9 
| 53>      1    6456.4000000000      0.0002537351
| 54>      2     974.0610000000      0.0016543532
| 55>      3     214.4290000000      0.0048037138
| 56>      4      31.3308000000     -0.0342024831
| 57>      5      19.6130000000      0.2475754745
| 58>      6       8.8860900000     -0.7760773714
| 59>      7       2.3250800000      0.9142523990
| 60>      8       1.1842200000      0.4481094673
| 61>      9       0.0921780000      0.0008637144
| 62>     s 9 
| 63>      1    6456.4000000000     -0.0001620048
| 64>      2     974.0610000000     -0.0011028786
| 65>      3     214.4290000000     -0.0029385171
| 66>      4      31.3308000000      0.0090859747
| 67>      5      19.6130000000     -0.1154458382
| 68>      6       8.8860900000      0.4408959544
| 69>      7       2.3250800000     -0.7674414721
| 70>      8       1.1842200000     -0.5147514322
| 71>      9       0.0921780000      0.1773790118
| 72>     s 1 
| 73>      1       0.4268540000      1.0000000000
| 74>     s 1 
| 75>      1       0.2016450000      1.0000000000
| 76>     s 1 
| 77>      1       0.1143000000      1.0000000000
| 78>     s 1 
| 79>      1       0.0476000000      1.0000000000
| 80>     p 9 
| 81>      1     191.1700000000      0.0007649999
| 82>      2      22.5178000000      0.0369519962
| 83>      3      10.0604000000     -0.2806879708
| 84>      4       5.5576200000      0.1427169852
| 85>      5       2.6962500000      0.6356539339
| 86>      6       1.3076400000      0.3932569591
| 87>      7       0.5306750000      0.0410559957
| 88>      8       0.2224610000     -0.0022509998
| 89>      9       0.0868810000      0.0007739999
| 90>     p 9 
| 91>      1     191.1700000000     -0.0003289999
| 92>      2      22.5178000000     -0.0127809966
| 93>      3      10.0604000000      0.1082739709
| 94>      4       5.5576200000     -0.0720509806
| 95>      5       2.6962500000     -0.2845799234
| 96>      6       1.3076400000     -0.1852049502
| 97>      7       0.5306750000      0.3583359036
| 98>      8       0.2224610000      0.5883938417
| 99>      9       0.0868810000      0.2572449308
|100>     p 1 
|101>      1       0.6953000000      1.0000000000
|102>     p 1 
|103>      1       0.1135000000      1.0000000000
|104>     p 1 
|105>      1       0.0420000000      1.0000000000
|106>   end
|107>   NewAuxGTO 54
|108>     S 1
|109>      1 1310.72 1.0
|110>     S 1
|111>      1  655.36 1.0
|112>     S 1
|113>      1  327.68 1.0
|114>     S 1
|115>      1  163.84 1.0
|116>     S 1
|117>      1   81.82 1.0
|118>     S 1
|119>      1   40.96 1.0
|120>     S 1
|121>      1   20.48 1.0
|122>     S 1
|123>      1   10.24 1.0
|124>     S 1
|125>      1    5.12 1.0
|126>     S 1
|127>      1    2.56 1.0
|128>     S 1
|129>      1    1.28 1.0
|130>     S 1
|131>      1    0.64 1.0
|132>     S 1
|133>      1    0.32 1.0
|134>     S 1
|135>      1    0.16 1.0
|136>     S 1
|137>      1    0.08 1.0
|138>     S 1
|139>      1    0.04 1.0
|140>     S 1
|141>      1    0.02 1.0
|142>     S 1
|143>      1    0.01 1.0
|144>   end
|145> end
|146> 
|147> * xyz 0 1
|148> 54  0.0 0.0 0.0
|149> *
|150> 
|151> 
|152>                          ****END OF INPUT****
================================================================================

                       ****************************
                       * Single Point Calculation *
                       ****************************

---------------------------------
CARTESIAN COORDINATES (ANGSTROEM)
---------------------------------
  Xe     0.000000    0.000000    0.000000

----------------------------
CARTESIAN COORDINATES (A.U.)
----------------------------
  NO LB      ZA    FRAG     MASS         X           Y           Z
   0 Xe   26.0000*   0   131.300    0.000000    0.000000    0.000000
* core charge reduced due to ECP

--------------------------------
INTERNAL COORDINATES (ANGSTROEM)
--------------------------------
 Xe     0   0   0     0.000000000000     0.00000000     0.00000000

---------------------------
INTERNAL COORDINATES (A.U.)
---------------------------
 Xe     0   0   0     0.000000000000     0.00000000     0.00000000

---------------------
BASIS SET INFORMATION
---------------------
There are 1 groups of distinct atoms

 Group   1 Type Xe  : 22s21p contracted to 6s5p pattern {991111/99111}

Atom   0Xe   basis set group =>   1
---------------------------------
AUXILIARY/J BASIS SET INFORMATION
---------------------------------
There are 1 groups of distinct atoms

 Group   1 Type Xe  : 18s contracted to 18s pattern {111111111111111111}

Atom   0Xe   basis set group =>   1
-------------------------
ECP PARAMETER INFORMATION
-------------------------

 Group 1, Type Xe ECP (replacing 28 core electrons, lmax=4)

Atom   0Xe   ECP group =>   1

------------------------------------------------------------------------------
                           ORCA GTO INTEGRAL CALCULATION
------------------------------------------------------------------------------

                         BASIS SET STATISTICS AND STARTUP INFO

 # of primitive gaussian shells          ...   43
 # of primitive gaussian functions       ...   85
 # of contracted shells                  ...   11
 # of contracted basis functions         ...   21
 Highest angular momentum                ...    1
 Maximum contraction depth               ...    9
 Integral package used                   ... LIBINT
 Integral threshhold            Thresh   ...  1.000e-10
 Primitive cut-off              TCut     ...  1.000e-11
 Storage cut-off                TCutStore... -1.000e+00
 Buffer length                           ... 1048576 integrals/buffer
 Generate file with integrals 4 distinct ...false


------------------------------ INTEGRAL EVALUATION ----------------------------


 * One electron integrals 

   ECP integrals                         ... done
 Pre-screening matrix                    ... done
 Shell pair data                         ... done (   0.000 sec)
 Statistics run                          ... done
 Maximum amount of storage needed        ...     0 MB
 Maximum amount of storage dedicated     ... 500000 MB
 Beginning two electron integral evaluation:
 Starting repulsion integrals
  <ss|ss>  ...          231 b.         0 skpd (  0.0%)     0.001 s. (  0.003 ms/b)
  <ss|sp>  ...          630 b.         0 skpd (  0.0%)     0.003 s. (  0.005 ms/b)
  <ss|pp>  ...          315 b.         0 skpd (  0.0%)     0.008 s. (  0.027 ms/b)
  <sp|sp>  ...          465 b.         0 skpd (  0.0%)     0.009 s. (  0.019 ms/b)
  <sp|pp>  ...          450 b.         0 skpd (  0.0%)     0.018 s. (  0.039 ms/b)
  <pp|pp>  ...          120 b.         0 skpd (  0.0%)     0.016 s. (  0.132 ms/b)


                                      INTEGRAL STATISTICS

Integral type statistics:
 Number of integrals retained            ...      26796 
 One   Center Integrals retained         ...      26796 (100.0%)
 Two   Center Integrals retained         ...          0 (  0.0%)
 Three Center Integrals retained         ...          0 (  0.0%)
 Four  Center Integrals retained         ...          0 (  0.0%)

Storage statistics:
 Number of char integrals                ...          0 (  0.0%)
 Number of short int integrals           ...          0 (  0.0%)
 Number of double/float integrals        ...      26796 (100.0%)
 Amount of memory used                   ...          0 MB
 Amount of memory estimated              ...          0 MB ( 95.2%)

Prescreening statistics:
 Total number of shell quadruples        ...       2211 
 Number of skipped shell quadruples      ...          0 (  0.0%)
 # of negligible batches done            ...          0 (  0.0%)

Timings:
 Total evaluation time               ...     0.226 sec (   0.004 min)
 One electron matrix time            ...     0.014 sec (   0.000 min) =  6.1%
 Schwartz matrix evaluation time     ...     0.083 sec (   0.001 min) = 36.6%
 Statistics run                      ...     0.000 sec (   0.000 min) =  0.1%
 Repulsion integral time             ...     0.055 sec (   0.001 min) = 24.1%

-------------------------------------------------------------------------------
                                 ORCA SCF
-------------------------------------------------------------------------------

------------
SCF SETTINGS
------------
Hamiltonian:
 Ab initio Hamiltonian  Method          .... Hartree-Fock(GTOs)


General Settings:
 Integral files         IntName         .... 54_Xe_atom54
 Hartree-Fock type      HFTyp           .... ROHF
 Total Charge           Charge          ....    0
 Multiplicity           Mult            ....    1
 Number of Electrons    NEL             ....   26
 Basis Dimension        Dim             ....   21
 Nuclear Repulsion      ENuc            ....      0.0000000000 Eh

Convergence Acceleration:
 DIIS                   CNVDIIS         .... on
   Start iteration      DIISMaxIt       ....    12
   Startup error        DIISStart       ....  0.200000
   # of expansion vecs  DIISMaxEq       ....     5
   Bias factor          DIISBfac        ....   1.050
   Max. coefficient     DIISMaxC        ....  10.000
 Newton-Raphson         CNVNR           .... off
 SOSCF                  CNVSOSCF        .... off
 Level Shifting         CNVShift        .... on
   Level shift para.    LevelShift      ....    1.0000
   Turn off err/grad.   ShiftErr        ....    0.0010
 Zerner damping         CNVZerner       .... off
 Static damping         CNVDamp         .... on
   Fraction old density DampFac         ....    0.7000
   Max. Damping (<1)    DampMax         ....    0.9800
   Min. Damping (>=0)   DampMin         ....    0.0000
   Turn off err/grad.   DampErr         ....    0.1000
 Fernandez-Rico         CNVRico         .... off

SCF Procedure:
 Maximum # iterations   MaxIter         ....  1000
 SCF integral mode      SCFMode         .... Conventional
 Integral Threshold     Thresh          ....  1.000e-10 Eh
 Primitive CutOff       TCut            ....  1.000e-11 Eh
 Integral Buffer length BufferLength    .... 1048576
 Integral index format  IndFormat       ....     0
 Integral value format  ValFormat       ....     0
 Integral Storage       Thresh          ....  1.000e-10 Eh

Convergence Tolerance:
 Convergence Check Mode ConvCheckMode   .... Total+1el-Energy
 Convergence forced     ConvForced      .... 0
 Energy Change          TolE            ....  1.000e-06 Eh
 1-El. energy change                    ....  1.000e-03 Eh
 DIIS Error             TolErr          ....  1.000e-06


Diagonalization of the overlap matrix:
Smallest eigenvalue                        ... 2.699e-03
Time for diagonalization                   ...    0.000 sec
Threshold for overlap eigenvalues          ... 1.000e-08
Number of eigenvalues below threshold      ... 0
Time for construction of square roots      ...    0.002 sec
Total time needed                          ...    0.002 sec

--------------------
INITIAL GUESS: HCORE
--------------------
AVERAGE-CONFIGURATION (SAHF) CASE FOUND

-------------------
FINAL ROHF SETTINGS
-------------------
Number of operators             ... 2
  operator   0:  10 orbitals  20 electrons n(mue)= 2.000
  operator   1:   3 orbitals   6 electrons n(mue)= 2.000
Vector coupling coefficients a and b (Zerner convention):
   1.000    1.000           1.000    1.000 
   1.000    1.000           1.000    1.000 

                      -----------------
                      INTIAL GUESS DONE 
                      -----------------

 InCore treatment chosen:
   Memory dedicated               ...    1024 MB
   Memory needed                  ...      0 MB
   Number of tiny    integrals    ...       0
   Number of small   integrals    ...       0
   Number of regular integrals    ...   26796

--------------
SCF ITERATIONS
--------------
ITER       Energy         Delta-E        Max-DP      RMS-DP      [F,P]     Damp
  0   -275.3099233400   0.000000000000 8.50446386  0.61232906  0.9802070 0.7000
  1   -278.0550448156  -2.74512147553012.54672381  0.77059174  0.6526084 0.7000
  2   -279.2847782744  -1.22973345885613.04885220  0.75788725  0.3458908 0.7000
                            ****Activating DIIS****
  3   -279.9836477187  -0.69886944427313.58407951  0.78571338  0.1691242 0.7000
  4   -280.5004323175  -0.51678459885210.25709977  0.63447988  0.1156314 0.7000
  5   -280.8168859666  -0.31645364909526.18121618  1.70412907  0.0670453 0.0000
  6   -281.5211890351  -0.704303068487 1.44361108  0.09148840  0.0379438 0.0000
  7   -281.5269302350  -0.005741199866 0.38502370  0.02694322  0.0085305 0.0000
  8   -281.5275319248  -0.000601689829 0.26183020  0.01867613  0.0046289 0.0000
  9   -281.5278005059  -0.000268581116 0.17351025  0.01314723  0.0032980 0.0000
 10   -281.5279345439  -0.000134037962 0.11722067  0.00617244  0.0023351 0.0000
 11   -281.5279575642  -0.000023020253 0.02839837  0.00227480  0.0009202 0.0000
 12   -281.5279605700  -0.000003005828 0.01734532  0.00107286  0.0003787 0.0000
                 **** Energy Check signals convergence ****

               *****************************************************
               *                     SUCCESS                       *
               *           SCF CONVERGED AFTER  13 CYCLES          *
               *****************************************************


----------------
TOTAL SCF ENERGY
----------------

Total Energy       :         -281.52796109 Eh           -7660.76529 eV

Components:
Nuclear Repulsion  :            0.00000000 Eh               0.00000 eV
Electronic Energy  :         -281.52796109 Eh           -7660.76529 eV
One Electron Energy:         -434.28536701 Eh          -11817.50563 eV
Two Electron Energy:          152.75740592 Eh            4156.74034 eV

Virial components:
Potential Energy   :         -356.21574028 Eh           -9693.12308 eV
Kinetic Energy     :           74.68777919 Eh            2032.35779 eV
Virial Ratio       :            4.76939794


---------------
SCF CONVERGENCE
---------------

  Last Energy change         ...   -5.1712e-07  Tolerance :   1.0000e-06
  Last MAX-Density change    ...    5.1239e-03  Tolerance :   1.0000e-05
  Last RMS-Density change    ...    3.5781e-04  Tolerance :   1.0000e-06
  Last DIIS Error            ...    1.1845e-04  Tolerance :   1.0000e-06

             **** THE GBW FILE WAS UPDATED (54_Xe_atom54.gbw) ****
             **** DENSITY FILE WAS UPDATED (54_Xe_atom54.scfp) ****
             **** ENERGY FILE WAS UPDATED (54_Xe_atom54.en.tmp) ****
             **** THE GBW FILE WAS UPDATED (54_Xe_atom54.gbw) ****
             **** DENSITY FILE WAS UPDATED (54_Xe_atom54.scfp) ****
----------------
ORBITAL ENERGIES
----------------

  NO   OCC          E(Eh)            E(eV) 
   0   2.0000     -14.298721      -389.0880 
   1   2.0000     -11.685234      -317.9714 
   2   2.0000     -11.683940      -317.9362 
   3   2.0000     -11.683940      -317.9362 
   4   2.0000      -3.940192      -107.2181 
   5   2.0000      -2.909276       -79.1654 
   6   2.0000      -2.681333       -72.9628 
   7   2.0000      -2.681333       -72.9628 
   8   2.0000      -0.590063       -16.0564 
   9   2.0000      -0.481714       -13.1081 
  10   2.0000      -0.710951       -19.3460 
  11   2.0000      -0.710951       -19.3460 
  12   2.0000      -0.327859        -8.9215 
  13   0.0000       0.091853         2.4994 
  14   0.0000       0.091853         2.4994 
  15   0.0000       0.091853         2.4994 
  16   0.0000       0.507880        13.8201 
  17   0.0000       1.675806        45.6010 
  18   0.0000       1.675809        45.6011 
  19   0.0000       1.675809        45.6011 
  20   0.0000      50.775954      1381.6839 
CleanUpVectors: The p-vectors have cracked symmetry
CleanUpVectors: The p-vectors have cracked symmetry
CleanUpVectors: The p-vectors have cracked symmetry
CleanUpVectors: The p-vectors have cracked symmetry
CleanUpVectors: The p-vectors have cracked symmetry
CleanUpVectors: The p-vectors have cracked symmetry
CleanUpVectors: The p-vectors have cracked symmetry
CleanUpVectors: The p-vectors have cracked symmetry
CleanUpVectors: The p-vectors have cracked symmetry
--------------------------
ATOM BASIS FOR ELEMENT Xe
--------------------------
 NewGTO Xe
 S 22
    1       6456.400000000000        -0.000231066868
    2        974.061000000000        -0.001506556296
    3        214.429000000000        -0.004374558753
    4         31.330800000000         0.031146895513
    5         19.613000000000        -0.225457532229
    6          8.886090000000         0.706744031604
    7          2.325080000000        -0.832574753735
    8          1.184220000000        -0.408076183111
    9          0.092178000000        -0.000786551728
   10       6456.400000000000        -0.000037643453
   11        974.061000000000        -0.000256264994
   12        214.429000000000        -0.000682794160
   13         31.330800000000         0.002111218091
   14         19.613000000000        -0.026825007791
   15          8.886090000000         0.102446632951
   16          2.325080000000        -0.178322785726
   17          1.184220000000        -0.119607699979
   18          0.092178000000         0.041215806890
   19          0.426854000000         0.386834338559
   20          0.201645000000        -0.419274931171
   21          0.114300000000         0.208707340018
   22          0.047600000000        -0.052004096971
 P 43
    1        191.170000000000        -0.000018951091
    2         22.517800000000        -0.000915399672
    3         10.060400000000         0.006953390963
    4          5.557620000000        -0.003535481027
    5          2.696250000000        -0.015746846248
    6          1.307640000000        -0.009742025559
    7          0.530675000000        -0.001017066705
    8          0.222461000000         0.000055763279
    9          0.086881000000        -0.000019174045
   10        191.170000000000        -0.000028998208
   11         22.517800000000        -0.001400708235
   12         10.060400000000         0.010639802787
   13          5.557620000000        -0.005409852700
   14          2.696250000000        -0.024095198942
   15          1.307640000000        -0.014906860730
   16          0.530675000000        -0.001556275092
   17          0.222461000000         0.000085326756
   18          0.086881000000        -0.000029339363
   19        191.170000000000        -0.000931408385
   20         22.517800000000        -0.044990070091
   21         10.060400000000         0.341745312262
   22          5.557620000000        -0.173761848551
   23          2.696250000000        -0.773926119855
   24          1.307640000000        -0.478801146710
   25          0.530675000000        -0.049986802180
   26          0.222461000000         0.002740654070
   27          0.086881000000        -0.000942366133
   28        191.170000000000         0.000000848307
   29         22.517800000000         0.000032955047
   30         10.060400000000        -0.000279178056
   31          5.557620000000         0.000185779210
   32          2.696250000000         0.000733772570
   33          1.307640000000         0.000477540055
   34          0.530675000000        -0.000923948021
   35          0.222461000000        -0.001517138863
   36          0.086881000000        -0.000663290902
   37        191.170000000000         0.000001298045
   38         22.517800000000         0.000050426504
   39         10.060400000000        -0.000427187178
   40          5.557620000000         0.000284271971
   41          2.696250000000         0.001122789654
   42          1.307640000000         0.000730712833
   43          0.530675000000        -0.001413788578
 S 22
    1       6456.400000000000         0.000097006249
    2        974.061000000000         0.000632480875
    3        214.429000000000         0.001836522641
    4         31.330800000000        -0.013076056817
    5         19.613000000000         0.094651343344
    6          8.886090000000        -0.296704533799
    7          2.325080000000         0.349530654824
    8          1.184220000000         0.171318112711
    9          0.092178000000         0.000330209317
   10       6456.400000000000        -0.000280061872
   11        974.061000000000        -0.001906574652
   12        214.429000000000        -0.005079890224
   13         31.330800000000         0.015707158571
   14         19.613000000000        -0.199574195045
   15          8.886090000000         0.762188196386
   16          2.325080000000        -1.326695846525
   17          1.184220000000        -0.889864063801
   18          0.092178000000         0.306639668002
   19          0.426854000000         2.854038905707
   20          0.201645000000        -2.001003730147
   21          0.114300000000         0.856687345004
   22          0.047600000000        -0.261600304298
 P 43
    1        191.170000000000        -0.000011694502
    2         22.517800000000        -0.000564882660
    3         10.060400000000         0.004290857971
    4          5.557620000000        -0.002181704873
    5          2.696250000000        -0.009717198573
    6          1.307640000000        -0.006011692460
    7          0.530675000000        -0.000627620222
    8          0.222461000000         0.000034410881
    9          0.086881000000        -0.000011832084
   10        191.170000000000        -0.000017894462
   11         22.517800000000        -0.000864361019
   12         10.060400000000         0.006565700511
   13          5.557620000000        -0.003338358178
   14          2.696250000000        -0.014868871462
   15          1.307640000000        -0.009198853125
   16          0.530675000000        -0.000960359545
   17          0.222461000000         0.000052654164
   18          0.086881000000        -0.000018104985
   19        191.170000000000        -0.000574761453
   20         22.517800000000        -0.027762857272
   21         10.060400000000         0.210887120388
   22          5.557620000000        -0.107226447765
   23          2.696250000000        -0.477580949769
   24          1.307640000000        -0.295462707008
   25          0.530675000000        -0.030846283448
   26          0.222461000000         0.001691226255
   27          0.086881000000        -0.000581523354
   28        191.170000000000        -0.000002701458
   29         22.517800000000        -0.000104946292
   30         10.060400000000         0.000889050527
   31          5.557620000000        -0.000591619221
   32          2.696250000000        -0.002336719794
   33          1.307640000000        -0.001520740001
   34          0.530675000000         0.002942338970
   35          0.222461000000         0.004831372220
   36          0.086881000000         0.002112268899
   37        191.170000000000        -0.000004133663
   38         22.517800000000        -0.000160584649
   39         10.060400000000         0.001360389819
   40          5.557620000000        -0.000905272243
   41          2.696250000000        -0.003575555855
   42          1.307640000000        -0.002326975973
   43          0.530675000000         0.004502250274
 S 22
    1       6456.400000000000        -0.000136605408
    2        974.061000000000        -0.000890667447
    3        214.429000000000        -0.002586214061
    4         31.330800000000         0.018413866103
    5         19.613000000000        -0.133289200804
    6          8.886090000000         0.417823020655
    7          2.325080000000        -0.492213422358
    8          1.184220000000        -0.241252300494
    9          0.092178000000        -0.000465004873
   10       6456.400000000000         0.000223680039
   11        974.061000000000         0.001522744560
   12        214.429000000000         0.004057210764
   13         31.330800000000        -0.012545005900
   14         19.613000000000         0.159396076833
   15          8.886090000000        -0.608745074908
   16          2.325080000000         1.059606493910
   17          1.184220000000         0.710717338243
   18          0.092178000000        -0.244907213930
   19          0.426854000000        -5.618949581885
   20          0.201645000000        13.274346912794
   21          0.114300000000       -11.134283011841
   22          0.047600000000         3.002256646624
 S 22
    1       6456.400000000000        -0.001576118083
    2        974.061000000000        -0.010276292065
    3        214.429000000000        -0.029839073062
    4         31.330800000000         0.212454453908
    5         19.613000000000        -1.537856537552
    6          8.886090000000         4.820734613007
    7          2.325080000000        -5.679031946175
    8          1.184220000000        -2.783507030404
    9          0.092178000000        -0.005365106698
   10       6456.400000000000         0.000928742407
   11        974.061000000000         0.006322591217
   12        214.429000000000         0.016845954220
   13         31.330800000000        -0.052088148081
   14         19.613000000000         0.661828820139
   15          8.886090000000        -2.527571836754
   16          2.325080000000         4.399594579807
   17          1.184220000000         2.950971107748
   18          0.092178000000        -1.016879810719
   19          0.426854000000         1.027669427901
   20          0.201645000000        -1.742581923282
   21          0.114300000000         2.078066258150
   22          0.047600000000        -0.056453551717
 P 43
    1        191.170000000000        -0.000643931143
    2         22.517800000000        -0.031103979416
    3         10.060400000000         0.236266339138
    4          5.557620000000        -0.120130618814
    5          2.696250000000        -0.535055447845
    6          1.307640000000        -0.331020178037
    7          0.530675000000        -0.034558480636
    8          0.222461000000         0.001894756945
    9          0.086881000000        -0.000651506804
   10        191.170000000000         0.000130912546
   11         22.517800000000         0.006323503991
   12         10.060400000000        -0.048033440304
   13          5.557620000000         0.024422805756
   14          2.696250000000         0.108777890270
   15          1.307640000000         0.067297093692
   16          0.530675000000         0.007025811306
   17          0.222461000000        -0.000385208045
   18          0.086881000000         0.000132452694
   19        191.170000000000         0.000009026082
   20         22.517800000000         0.000435989284
   21         10.060400000000        -0.003311781771
   22          5.557620000000         0.001683889440
   23          2.696250000000         0.007499954861
   24          1.307640000000         0.004639960968
   25          0.530675000000         0.000484411561
   26          0.222461000000        -0.000026559101
   27          0.086881000000         0.000009132272
   28        191.170000000000        -0.000116504180
   29         22.517800000000        -0.004525957376
   30         10.060400000000         0.038341562290
   31          5.557620000000        -0.025514416233
   32          2.696250000000        -0.100774348338
   33          1.307640000000        -0.065584064899
   34          0.530675000000         0.126892532474
   35          0.222461000000         0.208359765000
   36          0.086881000000         0.091094585854
   37        191.170000000000         0.000023685543
   38         22.517800000000         0.000920136589
   39         10.060400000000        -0.007794919708
   40          5.557620000000         0.005187134119
   41          2.696250000000         0.020487635533
   42          1.307640000000         0.013333377398
   43          0.530675000000        -0.025797516929
 P 43
    1        191.170000000000        -0.000053510746
    2         22.517800000000        -0.002584743974
    3         10.060400000000         0.019633757734
    4          5.557620000000        -0.009982867110
    5          2.696250000000        -0.044463164222
    6          1.307640000000        -0.027507811753
    7          0.530675000000        -0.002871813391
    8          0.222461000000         0.000157454502
    9          0.086881000000        -0.000054140284
   10        191.170000000000        -0.000142009938
   11         22.517800000000        -0.006859544267
   12         10.060400000000         0.052105211055
   13          5.557620000000        -0.026493114806
   14          2.696250000000        -0.117998937715
   15          1.307640000000        -0.073001834722
   16          0.530675000000        -0.007621385822
   17          0.222461000000         0.000417861939
   18          0.086881000000        -0.000143680643
   19        191.170000000000         0.000005510065
   20         22.517800000000         0.000266154151
   21         10.060400000000        -0.002021711312
   22          5.557620000000         0.001027947662
   23          2.696250000000         0.004578424735
   24          1.307640000000         0.002832511989
   25          0.530675000000         0.000295714030
   26          0.222461000000        -0.000016213277
   27          0.086881000000         0.000005574889
   28        191.170000000000         0.000022445098
   29         22.517800000000         0.000871947743
   30         10.060400000000        -0.007386688809
   31          5.557620000000         0.004915476616
   32          2.696250000000         0.019414669270
   33          1.307640000000         0.012635089687
   34          0.530675000000        -0.024446464715
   35          0.222461000000        -0.040141524042
   36          0.086881000000        -0.017549815859
   37        191.170000000000         0.000059566110
   38         22.517800000000         0.002314025761
   39         10.060400000000        -0.019603225456
   40          5.557620000000         0.013044978450
   41          2.696250000000         0.051523781315
   42          1.307640000000         0.033531737722
   43          0.530675000000        -0.064877453454
 P 21
    1        191.170000000000        -0.000069378203
    2         22.517800000000        -0.003351194032
    3         10.060400000000         0.025455724979
    4          5.557620000000        -0.012943070965
    5          2.696250000000        -0.057647756251
    6          1.307640000000        -0.035664659830
    7          0.530675000000        -0.003723387690
    8          0.222461000000         0.000204144238
    9          0.086881000000        -0.000070194417
   10        191.170000000000        -0.000066395471
   11         22.517800000000        -0.002579332957
   12         10.060400000000         0.021850770345
   13          5.557620000000        -0.014540608580
   14          2.696250000000        -0.057431075072
   15          1.307640000000        -0.037376211476
   16          0.530675000000         0.072315769626
   17          0.222461000000         0.118743762705
   18          0.086881000000         0.051914600146
   19          0.695300000000         0.334501430077
   20          0.113500000000        -1.444012382700
   21          0.042000000000         1.581917098287
 P 21
    1        191.170000000000        -0.003017328886
    2         22.517800000000        -0.145746849795
    3         10.060400000000         1.107095467809
    4          5.557620000000        -0.562907370216
    5          2.696250000000        -2.507159773573
    6          1.307640000000        -1.551092467066
    7          0.530675000000        -0.161933931961
    8          0.222461000000         0.008878441315
    9          0.086881000000        -0.003052826877
   10        191.170000000000         0.002003753944
   11         22.517800000000         0.077841884909
   12         10.060400000000        -0.659436055354
   13          5.557620000000         0.438822129052
   14          2.696250000000         1.733216770012
   15          1.307640000000         1.127979520624
   16          0.530675000000        -2.182423095757
   17          0.222461000000        -3.583577019848
   18          0.086881000000        -1.566734654843
   19          0.695300000000         4.211888408683
   20          0.113500000000         4.887078555858
   21          0.042000000000        -0.721983362653
 end
  // -----------------------------------------------
  // The basis set
  // -----------------------------------------------
  BAS[ATNO] = new BFNGauss[NSH];
  // Basis function   1 L = s
  InitBFNGauss(BAS[ATNO][  0]);
  BAS[ATNO][  0].l  = 0;
  BAS[ATNO][  0].ng = 22;
  BAS[ATNO][  0].a[  0] =      6456.400000000000;     BAS[ATNO][  0].d[  0] =         0.000231066868;
  BAS[ATNO][  0].a[  1] =       974.061000000000;     BAS[ATNO][  0].d[  1] =         0.001506556296;
  BAS[ATNO][  0].a[  2] =       214.429000000000;     BAS[ATNO][  0].d[  2] =         0.004374558753;
  BAS[ATNO][  0].a[  3] =        31.330800000000;     BAS[ATNO][  0].d[  3] =        -0.031146895513;
  BAS[ATNO][  0].a[  4] =        19.613000000000;     BAS[ATNO][  0].d[  4] =         0.225457532229;
  BAS[ATNO][  0].a[  5] =         8.886090000000;     BAS[ATNO][  0].d[  5] =        -0.706744031604;
  BAS[ATNO][  0].a[  6] =         2.325080000000;     BAS[ATNO][  0].d[  6] =         0.832574753735;
  BAS[ATNO][  0].a[  7] =         1.184220000000;     BAS[ATNO][  0].d[  7] =         0.408076183111;
  BAS[ATNO][  0].a[  8] =         0.092178000000;     BAS[ATNO][  0].d[  8] =         0.000786551728;
  BAS[ATNO][  0].a[  9] =      6456.400000000000;     BAS[ATNO][  0].d[  9] =         0.000037643453;
  BAS[ATNO][  0].a[ 10] =       974.061000000000;     BAS[ATNO][  0].d[ 10] =         0.000256264994;
  BAS[ATNO][  0].a[ 11] =       214.429000000000;     BAS[ATNO][  0].d[ 11] =         0.000682794160;
  BAS[ATNO][  0].a[ 12] =        31.330800000000;     BAS[ATNO][  0].d[ 12] =        -0.002111218091;
  BAS[ATNO][  0].a[ 13] =        19.613000000000;     BAS[ATNO][  0].d[ 13] =         0.026825007791;
  BAS[ATNO][  0].a[ 14] =         8.886090000000;     BAS[ATNO][  0].d[ 14] =        -0.102446632951;
  BAS[ATNO][  0].a[ 15] =         2.325080000000;     BAS[ATNO][  0].d[ 15] =         0.178322785726;
  BAS[ATNO][  0].a[ 16] =         1.184220000000;     BAS[ATNO][  0].d[ 16] =         0.119607699979;
  BAS[ATNO][  0].a[ 17] =         0.092178000000;     BAS[ATNO][  0].d[ 17] =        -0.041215806890;
  BAS[ATNO][  0].a[ 18] =         0.426854000000;     BAS[ATNO][  0].d[ 18] =        -0.386834338559;
  BAS[ATNO][  0].a[ 19] =         0.201645000000;     BAS[ATNO][  0].d[ 19] =         0.419274931171;
  BAS[ATNO][  0].a[ 20] =         0.114300000000;     BAS[ATNO][  0].d[ 20] =        -0.208707340018;
  BAS[ATNO][  0].a[ 21] =         0.047600000000;     BAS[ATNO][  0].d[ 21] =         0.052004096971;

  // Basis function   2 L = p
  InitBFNGauss(BAS[ATNO][  1]);
  BAS[ATNO][  1].l  = 1;
  BAS[ATNO][  1].ng = 43;
  BAS[ATNO][  1].a[  0] =       191.170000000000;     BAS[ATNO][  1].d[  0] =         0.000018951091;
  BAS[ATNO][  1].a[  1] =        22.517800000000;     BAS[ATNO][  1].d[  1] =         0.000915399672;
  BAS[ATNO][  1].a[  2] =        10.060400000000;     BAS[ATNO][  1].d[  2] =        -0.006953390963;
  BAS[ATNO][  1].a[  3] =         5.557620000000;     BAS[ATNO][  1].d[  3] =         0.003535481027;
  BAS[ATNO][  1].a[  4] =         2.696250000000;     BAS[ATNO][  1].d[  4] =         0.015746846248;
  BAS[ATNO][  1].a[  5] =         1.307640000000;     BAS[ATNO][  1].d[  5] =         0.009742025559;
  BAS[ATNO][  1].a[  6] =         0.530675000000;     BAS[ATNO][  1].d[  6] =         0.001017066705;
  BAS[ATNO][  1].a[  7] =         0.222461000000;     BAS[ATNO][  1].d[  7] =        -0.000055763279;
  BAS[ATNO][  1].a[  8] =         0.086881000000;     BAS[ATNO][  1].d[  8] =         0.000019174045;
  BAS[ATNO][  1].a[  9] =       191.170000000000;     BAS[ATNO][  1].d[  9] =         0.000028998208;
  BAS[ATNO][  1].a[ 10] =        22.517800000000;     BAS[ATNO][  1].d[ 10] =         0.001400708235;
  BAS[ATNO][  1].a[ 11] =        10.060400000000;     BAS[ATNO][  1].d[ 11] =        -0.010639802787;
  BAS[ATNO][  1].a[ 12] =         5.557620000000;     BAS[ATNO][  1].d[ 12] =         0.005409852700;
  BAS[ATNO][  1].a[ 13] =         2.696250000000;     BAS[ATNO][  1].d[ 13] =         0.024095198942;
  BAS[ATNO][  1].a[ 14] =         1.307640000000;     BAS[ATNO][  1].d[ 14] =         0.014906860730;
  BAS[ATNO][  1].a[ 15] =         0.530675000000;     BAS[ATNO][  1].d[ 15] =         0.001556275092;
  BAS[ATNO][  1].a[ 16] =         0.222461000000;     BAS[ATNO][  1].d[ 16] =        -0.000085326756;
  BAS[ATNO][  1].a[ 17] =         0.086881000000;     BAS[ATNO][  1].d[ 17] =         0.000029339363;
  BAS[ATNO][  1].a[ 18] =       191.170000000000;     BAS[ATNO][  1].d[ 18] =         0.000931408385;
  BAS[ATNO][  1].a[ 19] =        22.517800000000;     BAS[ATNO][  1].d[ 19] =         0.044990070091;
  BAS[ATNO][  1].a[ 20] =        10.060400000000;     BAS[ATNO][  1].d[ 20] =        -0.341745312262;
  BAS[ATNO][  1].a[ 21] =         5.557620000000;     BAS[ATNO][  1].d[ 21] =         0.173761848551;
  BAS[ATNO][  1].a[ 22] =         2.696250000000;     BAS[ATNO][  1].d[ 22] =         0.773926119855;
  BAS[ATNO][  1].a[ 23] =         1.307640000000;     BAS[ATNO][  1].d[ 23] =         0.478801146710;
  BAS[ATNO][  1].a[ 24] =         0.530675000000;     BAS[ATNO][  1].d[ 24] =         0.049986802180;
  BAS[ATNO][  1].a[ 25] =         0.222461000000;     BAS[ATNO][  1].d[ 25] =        -0.002740654070;
  BAS[ATNO][  1].a[ 26] =         0.086881000000;     BAS[ATNO][  1].d[ 26] =         0.000942366133;
  BAS[ATNO][  1].a[ 27] =       191.170000000000;     BAS[ATNO][  1].d[ 27] =        -0.000000848307;
  BAS[ATNO][  1].a[ 28] =        22.517800000000;     BAS[ATNO][  1].d[ 28] =        -0.000032955047;
  BAS[ATNO][  1].a[ 29] =        10.060400000000;     BAS[ATNO][  1].d[ 29] =         0.000279178056;
  BAS[ATNO][  1].a[ 30] =         5.557620000000;     BAS[ATNO][  1].d[ 30] =        -0.000185779210;
  BAS[ATNO][  1].a[ 31] =         2.696250000000;     BAS[ATNO][  1].d[ 31] =        -0.000733772570;
  BAS[ATNO][  1].a[ 32] =         1.307640000000;     BAS[ATNO][  1].d[ 32] =        -0.000477540055;
  BAS[ATNO][  1].a[ 33] =         0.530675000000;     BAS[ATNO][  1].d[ 33] =         0.000923948021;
  BAS[ATNO][  1].a[ 34] =         0.222461000000;     BAS[ATNO][  1].d[ 34] =         0.001517138863;
  BAS[ATNO][  1].a[ 35] =         0.086881000000;     BAS[ATNO][  1].d[ 35] =         0.000663290902;
  BAS[ATNO][  1].a[ 36] =       191.170000000000;     BAS[ATNO][  1].d[ 36] =        -0.000001298045;
  BAS[ATNO][  1].a[ 37] =        22.517800000000;     BAS[ATNO][  1].d[ 37] =        -0.000050426504;
  BAS[ATNO][  1].a[ 38] =        10.060400000000;     BAS[ATNO][  1].d[ 38] =         0.000427187178;
  BAS[ATNO][  1].a[ 39] =         5.557620000000;     BAS[ATNO][  1].d[ 39] =        -0.000284271971;
  BAS[ATNO][  1].a[ 40] =         2.696250000000;     BAS[ATNO][  1].d[ 40] =        -0.001122789654;
  BAS[ATNO][  1].a[ 41] =         1.307640000000;     BAS[ATNO][  1].d[ 41] =        -0.000730712833;
  BAS[ATNO][  1].a[ 42] =         0.530675000000;     BAS[ATNO][  1].d[ 42] =         0.001413788578;

  // Basis function   3 L = s
  InitBFNGauss(BAS[ATNO][  2]);
  BAS[ATNO][  2].l  = 0;
  BAS[ATNO][  2].ng = 22;
  BAS[ATNO][  2].a[  0] =      6456.400000000000;     BAS[ATNO][  2].d[  0] =         0.000097006249;
  BAS[ATNO][  2].a[  1] =       974.061000000000;     BAS[ATNO][  2].d[  1] =         0.000632480875;
  BAS[ATNO][  2].a[  2] =       214.429000000000;     BAS[ATNO][  2].d[  2] =         0.001836522641;
  BAS[ATNO][  2].a[  3] =        31.330800000000;     BAS[ATNO][  2].d[  3] =        -0.013076056817;
  BAS[ATNO][  2].a[  4] =        19.613000000000;     BAS[ATNO][  2].d[  4] =         0.094651343344;
  BAS[ATNO][  2].a[  5] =         8.886090000000;     BAS[ATNO][  2].d[  5] =        -0.296704533799;
  BAS[ATNO][  2].a[  6] =         2.325080000000;     BAS[ATNO][  2].d[  6] =         0.349530654824;
  BAS[ATNO][  2].a[  7] =         1.184220000000;     BAS[ATNO][  2].d[  7] =         0.171318112711;
  BAS[ATNO][  2].a[  8] =         0.092178000000;     BAS[ATNO][  2].d[  8] =         0.000330209317;
  BAS[ATNO][  2].a[  9] =      6456.400000000000;     BAS[ATNO][  2].d[  9] =        -0.000280061872;
  BAS[ATNO][  2].a[ 10] =       974.061000000000;     BAS[ATNO][  2].d[ 10] =        -0.001906574652;
  BAS[ATNO][  2].a[ 11] =       214.429000000000;     BAS[ATNO][  2].d[ 11] =        -0.005079890224;
  BAS[ATNO][  2].a[ 12] =        31.330800000000;     BAS[ATNO][  2].d[ 12] =         0.015707158571;
  BAS[ATNO][  2].a[ 13] =        19.613000000000;     BAS[ATNO][  2].d[ 13] =        -0.199574195045;
  BAS[ATNO][  2].a[ 14] =         8.886090000000;     BAS[ATNO][  2].d[ 14] =         0.762188196386;
  BAS[ATNO][  2].a[ 15] =         2.325080000000;     BAS[ATNO][  2].d[ 15] =        -1.326695846525;
  BAS[ATNO][  2].a[ 16] =         1.184220000000;     BAS[ATNO][  2].d[ 16] =        -0.889864063801;
  BAS[ATNO][  2].a[ 17] =         0.092178000000;     BAS[ATNO][  2].d[ 17] =         0.306639668002;
  BAS[ATNO][  2].a[ 18] =         0.426854000000;     BAS[ATNO][  2].d[ 18] =         2.854038905707;
  BAS[ATNO][  2].a[ 19] =         0.201645000000;     BAS[ATNO][  2].d[ 19] =        -2.001003730147;
  BAS[ATNO][  2].a[ 20] =         0.114300000000;     BAS[ATNO][  2].d[ 20] =         0.856687345004;
  BAS[ATNO][  2].a[ 21] =         0.047600000000;     BAS[ATNO][  2].d[ 21] =        -0.261600304298;

  // Basis function   4 L = p
  InitBFNGauss(BAS[ATNO][  3]);
  BAS[ATNO][  3].l  = 1;
  BAS[ATNO][  3].ng = 43;
  BAS[ATNO][  3].a[  0] =       191.170000000000;     BAS[ATNO][  3].d[  0] =         0.000011694502;
  BAS[ATNO][  3].a[  1] =        22.517800000000;     BAS[ATNO][  3].d[  1] =         0.000564882660;
  BAS[ATNO][  3].a[  2] =        10.060400000000;     BAS[ATNO][  3].d[  2] =        -0.004290857971;
  BAS[ATNO][  3].a[  3] =         5.557620000000;     BAS[ATNO][  3].d[  3] =         0.002181704873;
  BAS[ATNO][  3].a[  4] =         2.696250000000;     BAS[ATNO][  3].d[  4] =         0.009717198573;
  BAS[ATNO][  3].a[  5] =         1.307640000000;     BAS[ATNO][  3].d[  5] =         0.006011692460;
  BAS[ATNO][  3].a[  6] =         0.530675000000;     BAS[ATNO][  3].d[  6] =         0.000627620222;
  BAS[ATNO][  3].a[  7] =         0.222461000000;     BAS[ATNO][  3].d[  7] =        -0.000034410881;
  BAS[ATNO][  3].a[  8] =         0.086881000000;     BAS[ATNO][  3].d[  8] =         0.000011832084;
  BAS[ATNO][  3].a[  9] =       191.170000000000;     BAS[ATNO][  3].d[  9] =         0.000017894462;
  BAS[ATNO][  3].a[ 10] =        22.517800000000;     BAS[ATNO][  3].d[ 10] =         0.000864361019;
  BAS[ATNO][  3].a[ 11] =        10.060400000000;     BAS[ATNO][  3].d[ 11] =        -0.006565700511;
  BAS[ATNO][  3].a[ 12] =         5.557620000000;     BAS[ATNO][  3].d[ 12] =         0.003338358178;
  BAS[ATNO][  3].a[ 13] =         2.696250000000;     BAS[ATNO][  3].d[ 13] =         0.014868871462;
  BAS[ATNO][  3].a[ 14] =         1.307640000000;     BAS[ATNO][  3].d[ 14] =         0.009198853125;
  BAS[ATNO][  3].a[ 15] =         0.530675000000;     BAS[ATNO][  3].d[ 15] =         0.000960359545;
  BAS[ATNO][  3].a[ 16] =         0.222461000000;     BAS[ATNO][  3].d[ 16] =        -0.000052654164;
  BAS[ATNO][  3].a[ 17] =         0.086881000000;     BAS[ATNO][  3].d[ 17] =         0.000018104985;
  BAS[ATNO][  3].a[ 18] =       191.170000000000;     BAS[ATNO][  3].d[ 18] =         0.000574761453;
  BAS[ATNO][  3].a[ 19] =        22.517800000000;     BAS[ATNO][  3].d[ 19] =         0.027762857272;
  BAS[ATNO][  3].a[ 20] =        10.060400000000;     BAS[ATNO][  3].d[ 20] =        -0.210887120388;
  BAS[ATNO][  3].a[ 21] =         5.557620000000;     BAS[ATNO][  3].d[ 21] =         0.107226447765;
  BAS[ATNO][  3].a[ 22] =         2.696250000000;     BAS[ATNO][  3].d[ 22] =         0.477580949769;
  BAS[ATNO][  3].a[ 23] =         1.307640000000;     BAS[ATNO][  3].d[ 23] =         0.295462707008;
  BAS[ATNO][  3].a[ 24] =         0.530675000000;     BAS[ATNO][  3].d[ 24] =         0.030846283448;
  BAS[ATNO][  3].a[ 25] =         0.222461000000;     BAS[ATNO][  3].d[ 25] =        -0.001691226255;
  BAS[ATNO][  3].a[ 26] =         0.086881000000;     BAS[ATNO][  3].d[ 26] =         0.000581523354;
  BAS[ATNO][  3].a[ 27] =       191.170000000000;     BAS[ATNO][  3].d[ 27] =         0.000002701458;
  BAS[ATNO][  3].a[ 28] =        22.517800000000;     BAS[ATNO][  3].d[ 28] =         0.000104946292;
  BAS[ATNO][  3].a[ 29] =        10.060400000000;     BAS[ATNO][  3].d[ 29] =        -0.000889050527;
  BAS[ATNO][  3].a[ 30] =         5.557620000000;     BAS[ATNO][  3].d[ 30] =         0.000591619221;
  BAS[ATNO][  3].a[ 31] =         2.696250000000;     BAS[ATNO][  3].d[ 31] =         0.002336719794;
  BAS[ATNO][  3].a[ 32] =         1.307640000000;     BAS[ATNO][  3].d[ 32] =         0.001520740001;
  BAS[ATNO][  3].a[ 33] =         0.530675000000;     BAS[ATNO][  3].d[ 33] =        -0.002942338970;
  BAS[ATNO][  3].a[ 34] =         0.222461000000;     BAS[ATNO][  3].d[ 34] =        -0.004831372220;
  BAS[ATNO][  3].a[ 35] =         0.086881000000;     BAS[ATNO][  3].d[ 35] =        -0.002112268899;
  BAS[ATNO][  3].a[ 36] =       191.170000000000;     BAS[ATNO][  3].d[ 36] =         0.000004133663;
  BAS[ATNO][  3].a[ 37] =        22.517800000000;     BAS[ATNO][  3].d[ 37] =         0.000160584649;
  BAS[ATNO][  3].a[ 38] =        10.060400000000;     BAS[ATNO][  3].d[ 38] =        -0.001360389819;
  BAS[ATNO][  3].a[ 39] =         5.557620000000;     BAS[ATNO][  3].d[ 39] =         0.000905272243;
  BAS[ATNO][  3].a[ 40] =         2.696250000000;     BAS[ATNO][  3].d[ 40] =         0.003575555855;
  BAS[ATNO][  3].a[ 41] =         1.307640000000;     BAS[ATNO][  3].d[ 41] =         0.002326975973;
  BAS[ATNO][  3].a[ 42] =         0.530675000000;     BAS[ATNO][  3].d[ 42] =        -0.004502250274;

  // Basis function   5 L = s
  InitBFNGauss(BAS[ATNO][  4]);
  BAS[ATNO][  4].l  = 0;
  BAS[ATNO][  4].ng = 22;
  BAS[ATNO][  4].a[  0] =      6456.400000000000;     BAS[ATNO][  4].d[  0] =        -0.000136605408;
  BAS[ATNO][  4].a[  1] =       974.061000000000;     BAS[ATNO][  4].d[  1] =        -0.000890667447;
  BAS[ATNO][  4].a[  2] =       214.429000000000;     BAS[ATNO][  4].d[  2] =        -0.002586214061;
  BAS[ATNO][  4].a[  3] =        31.330800000000;     BAS[ATNO][  4].d[  3] =         0.018413866103;
  BAS[ATNO][  4].a[  4] =        19.613000000000;     BAS[ATNO][  4].d[  4] =        -0.133289200804;
  BAS[ATNO][  4].a[  5] =         8.886090000000;     BAS[ATNO][  4].d[  5] =         0.417823020655;
  BAS[ATNO][  4].a[  6] =         2.325080000000;     BAS[ATNO][  4].d[  6] =        -0.492213422358;
  BAS[ATNO][  4].a[  7] =         1.184220000000;     BAS[ATNO][  4].d[  7] =        -0.241252300494;
  BAS[ATNO][  4].a[  8] =         0.092178000000;     BAS[ATNO][  4].d[  8] =        -0.000465004873;
  BAS[ATNO][  4].a[  9] =      6456.400000000000;     BAS[ATNO][  4].d[  9] =         0.000223680039;
  BAS[ATNO][  4].a[ 10] =       974.061000000000;     BAS[ATNO][  4].d[ 10] =         0.001522744560;
  BAS[ATNO][  4].a[ 11] =       214.429000000000;     BAS[ATNO][  4].d[ 11] =         0.004057210764;
  BAS[ATNO][  4].a[ 12] =        31.330800000000;     BAS[ATNO][  4].d[ 12] =        -0.012545005900;
  BAS[ATNO][  4].a[ 13] =        19.613000000000;     BAS[ATNO][  4].d[ 13] =         0.159396076833;
  BAS[ATNO][  4].a[ 14] =         8.886090000000;     BAS[ATNO][  4].d[ 14] =        -0.608745074908;
  BAS[ATNO][  4].a[ 15] =         2.325080000000;     BAS[ATNO][  4].d[ 15] =         1.059606493910;
  BAS[ATNO][  4].a[ 16] =         1.184220000000;     BAS[ATNO][  4].d[ 16] =         0.710717338243;
  BAS[ATNO][  4].a[ 17] =         0.092178000000;     BAS[ATNO][  4].d[ 17] =        -0.244907213930;
  BAS[ATNO][  4].a[ 18] =         0.426854000000;     BAS[ATNO][  4].d[ 18] =        -5.618949581885;
  BAS[ATNO][  4].a[ 19] =         0.201645000000;     BAS[ATNO][  4].d[ 19] =        13.274346912794;
  BAS[ATNO][  4].a[ 20] =         0.114300000000;     BAS[ATNO][  4].d[ 20] =       -11.134283011841;
  BAS[ATNO][  4].a[ 21] =         0.047600000000;     BAS[ATNO][  4].d[ 21] =         3.002256646624;

  // Basis function   6 L = s
  InitBFNGauss(BAS[ATNO][  5]);
  BAS[ATNO][  5].l  = 0;
  BAS[ATNO][  5].ng = 22;
  BAS[ATNO][  5].a[  0] =      6456.400000000000;     BAS[ATNO][  5].d[  0] =         0.001576118083;
  BAS[ATNO][  5].a[  1] =       974.061000000000;     BAS[ATNO][  5].d[  1] =         0.010276292065;
  BAS[ATNO][  5].a[  2] =       214.429000000000;     BAS[ATNO][  5].d[  2] =         0.029839073062;
  BAS[ATNO][  5].a[  3] =        31.330800000000;     BAS[ATNO][  5].d[  3] =        -0.212454453908;
  BAS[ATNO][  5].a[  4] =        19.613000000000;     BAS[ATNO][  5].d[  4] =         1.537856537552;
  BAS[ATNO][  5].a[  5] =         8.886090000000;     BAS[ATNO][  5].d[  5] =        -4.820734613007;
  BAS[ATNO][  5].a[  6] =         2.325080000000;     BAS[ATNO][  5].d[  6] =         5.679031946175;
  BAS[ATNO][  5].a[  7] =         1.184220000000;     BAS[ATNO][  5].d[  7] =         2.783507030404;
  BAS[ATNO][  5].a[  8] =         0.092178000000;     BAS[ATNO][  5].d[  8] =         0.005365106698;
  BAS[ATNO][  5].a[  9] =      6456.400000000000;     BAS[ATNO][  5].d[  9] =        -0.000928742407;
  BAS[ATNO][  5].a[ 10] =       974.061000000000;     BAS[ATNO][  5].d[ 10] =        -0.006322591217;
  BAS[ATNO][  5].a[ 11] =       214.429000000000;     BAS[ATNO][  5].d[ 11] =        -0.016845954220;
  BAS[ATNO][  5].a[ 12] =        31.330800000000;     BAS[ATNO][  5].d[ 12] =         0.052088148081;
  BAS[ATNO][  5].a[ 13] =        19.613000000000;     BAS[ATNO][  5].d[ 13] =        -0.661828820139;
  BAS[ATNO][  5].a[ 14] =         8.886090000000;     BAS[ATNO][  5].d[ 14] =         2.527571836754;
  BAS[ATNO][  5].a[ 15] =         2.325080000000;     BAS[ATNO][  5].d[ 15] =        -4.399594579807;
  BAS[ATNO][  5].a[ 16] =         1.184220000000;     BAS[ATNO][  5].d[ 16] =        -2.950971107748;
  BAS[ATNO][  5].a[ 17] =         0.092178000000;     BAS[ATNO][  5].d[ 17] =         1.016879810719;
  BAS[ATNO][  5].a[ 18] =         0.426854000000;     BAS[ATNO][  5].d[ 18] =        -1.027669427901;
  BAS[ATNO][  5].a[ 19] =         0.201645000000;     BAS[ATNO][  5].d[ 19] =         1.742581923282;
  BAS[ATNO][  5].a[ 20] =         0.114300000000;     BAS[ATNO][  5].d[ 20] =        -2.078066258150;
  BAS[ATNO][  5].a[ 21] =         0.047600000000;     BAS[ATNO][  5].d[ 21] =         0.056453551717;

  // Basis function   7 L = p
  InitBFNGauss(BAS[ATNO][  6]);
  BAS[ATNO][  6].l  = 1;
  BAS[ATNO][  6].ng = 43;
  BAS[ATNO][  6].a[  0] =       191.170000000000;     BAS[ATNO][  6].d[  0] =         0.000643931143;
  BAS[ATNO][  6].a[  1] =        22.517800000000;     BAS[ATNO][  6].d[  1] =         0.031103979416;
  BAS[ATNO][  6].a[  2] =        10.060400000000;     BAS[ATNO][  6].d[  2] =        -0.236266339138;
  BAS[ATNO][  6].a[  3] =         5.557620000000;     BAS[ATNO][  6].d[  3] =         0.120130618814;
  BAS[ATNO][  6].a[  4] =         2.696250000000;     BAS[ATNO][  6].d[  4] =         0.535055447845;
  BAS[ATNO][  6].a[  5] =         1.307640000000;     BAS[ATNO][  6].d[  5] =         0.331020178037;
  BAS[ATNO][  6].a[  6] =         0.530675000000;     BAS[ATNO][  6].d[  6] =         0.034558480636;
  BAS[ATNO][  6].a[  7] =         0.222461000000;     BAS[ATNO][  6].d[  7] =        -0.001894756945;
  BAS[ATNO][  6].a[  8] =         0.086881000000;     BAS[ATNO][  6].d[  8] =         0.000651506804;
  BAS[ATNO][  6].a[  9] =       191.170000000000;     BAS[ATNO][  6].d[  9] =        -0.000130912546;
  BAS[ATNO][  6].a[ 10] =        22.517800000000;     BAS[ATNO][  6].d[ 10] =        -0.006323503991;
  BAS[ATNO][  6].a[ 11] =        10.060400000000;     BAS[ATNO][  6].d[ 11] =         0.048033440304;
  BAS[ATNO][  6].a[ 12] =         5.557620000000;     BAS[ATNO][  6].d[ 12] =        -0.024422805756;
  BAS[ATNO][  6].a[ 13] =         2.696250000000;     BAS[ATNO][  6].d[ 13] =        -0.108777890270;
  BAS[ATNO][  6].a[ 14] =         1.307640000000;     BAS[ATNO][  6].d[ 14] =        -0.067297093692;
  BAS[ATNO][  6].a[ 15] =         0.530675000000;     BAS[ATNO][  6].d[ 15] =        -0.007025811306;
  BAS[ATNO][  6].a[ 16] =         0.222461000000;     BAS[ATNO][  6].d[ 16] =         0.000385208045;
  BAS[ATNO][  6].a[ 17] =         0.086881000000;     BAS[ATNO][  6].d[ 17] =        -0.000132452694;
  BAS[ATNO][  6].a[ 18] =       191.170000000000;     BAS[ATNO][  6].d[ 18] =        -0.000009026082;
  BAS[ATNO][  6].a[ 19] =        22.517800000000;     BAS[ATNO][  6].d[ 19] =        -0.000435989284;
  BAS[ATNO][  6].a[ 20] =        10.060400000000;     BAS[ATNO][  6].d[ 20] =         0.003311781771;
  BAS[ATNO][  6].a[ 21] =         5.557620000000;     BAS[ATNO][  6].d[ 21] =        -0.001683889440;
  BAS[ATNO][  6].a[ 22] =         2.696250000000;     BAS[ATNO][  6].d[ 22] =        -0.007499954861;
  BAS[ATNO][  6].a[ 23] =         1.307640000000;     BAS[ATNO][  6].d[ 23] =        -0.004639960968;
  BAS[ATNO][  6].a[ 24] =         0.530675000000;     BAS[ATNO][  6].d[ 24] =        -0.000484411561;
  BAS[ATNO][  6].a[ 25] =         0.222461000000;     BAS[ATNO][  6].d[ 25] =         0.000026559101;
  BAS[ATNO][  6].a[ 26] =         0.086881000000;     BAS[ATNO][  6].d[ 26] =        -0.000009132272;
  BAS[ATNO][  6].a[ 27] =       191.170000000000;     BAS[ATNO][  6].d[ 27] =         0.000116504180;
  BAS[ATNO][  6].a[ 28] =        22.517800000000;     BAS[ATNO][  6].d[ 28] =         0.004525957376;
  BAS[ATNO][  6].a[ 29] =        10.060400000000;     BAS[ATNO][  6].d[ 29] =        -0.038341562290;
  BAS[ATNO][  6].a[ 30] =         5.557620000000;     BAS[ATNO][  6].d[ 30] =         0.025514416233;
  BAS[ATNO][  6].a[ 31] =         2.696250000000;     BAS[ATNO][  6].d[ 31] =         0.100774348338;
  BAS[ATNO][  6].a[ 32] =         1.307640000000;     BAS[ATNO][  6].d[ 32] =         0.065584064899;
  BAS[ATNO][  6].a[ 33] =         0.530675000000;     BAS[ATNO][  6].d[ 33] =        -0.126892532474;
  BAS[ATNO][  6].a[ 34] =         0.222461000000;     BAS[ATNO][  6].d[ 34] =        -0.208359765000;
  BAS[ATNO][  6].a[ 35] =         0.086881000000;     BAS[ATNO][  6].d[ 35] =        -0.091094585854;
  BAS[ATNO][  6].a[ 36] =       191.170000000000;     BAS[ATNO][  6].d[ 36] =        -0.000023685543;
  BAS[ATNO][  6].a[ 37] =        22.517800000000;     BAS[ATNO][  6].d[ 37] =        -0.000920136589;
  BAS[ATNO][  6].a[ 38] =        10.060400000000;     BAS[ATNO][  6].d[ 38] =         0.007794919708;
  BAS[ATNO][  6].a[ 39] =         5.557620000000;     BAS[ATNO][  6].d[ 39] =        -0.005187134119;
  BAS[ATNO][  6].a[ 40] =         2.696250000000;     BAS[ATNO][  6].d[ 40] =        -0.020487635533;
  BAS[ATNO][  6].a[ 41] =         1.307640000000;     BAS[ATNO][  6].d[ 41] =        -0.013333377398;
  BAS[ATNO][  6].a[ 42] =         0.530675000000;     BAS[ATNO][  6].d[ 42] =         0.025797516929;

  // Basis function   8 L = p
  InitBFNGauss(BAS[ATNO][  7]);
  BAS[ATNO][  7].l  = 1;
  BAS[ATNO][  7].ng = 43;
  BAS[ATNO][  7].a[  0] =       191.170000000000;     BAS[ATNO][  7].d[  0] =         0.000053510746;
  BAS[ATNO][  7].a[  1] =        22.517800000000;     BAS[ATNO][  7].d[  1] =         0.002584743974;
  BAS[ATNO][  7].a[  2] =        10.060400000000;     BAS[ATNO][  7].d[  2] =        -0.019633757734;
  BAS[ATNO][  7].a[  3] =         5.557620000000;     BAS[ATNO][  7].d[  3] =         0.009982867110;
  BAS[ATNO][  7].a[  4] =         2.696250000000;     BAS[ATNO][  7].d[  4] =         0.044463164222;
  BAS[ATNO][  7].a[  5] =         1.307640000000;     BAS[ATNO][  7].d[  5] =         0.027507811753;
  BAS[ATNO][  7].a[  6] =         0.530675000000;     BAS[ATNO][  7].d[  6] =         0.002871813391;
  BAS[ATNO][  7].a[  7] =         0.222461000000;     BAS[ATNO][  7].d[  7] =        -0.000157454502;
  BAS[ATNO][  7].a[  8] =         0.086881000000;     BAS[ATNO][  7].d[  8] =         0.000054140284;
  BAS[ATNO][  7].a[  9] =       191.170000000000;     BAS[ATNO][  7].d[  9] =         0.000142009938;
  BAS[ATNO][  7].a[ 10] =        22.517800000000;     BAS[ATNO][  7].d[ 10] =         0.006859544267;
  BAS[ATNO][  7].a[ 11] =        10.060400000000;     BAS[ATNO][  7].d[ 11] =        -0.052105211055;
  BAS[ATNO][  7].a[ 12] =         5.557620000000;     BAS[ATNO][  7].d[ 12] =         0.026493114806;
  BAS[ATNO][  7].a[ 13] =         2.696250000000;     BAS[ATNO][  7].d[ 13] =         0.117998937715;
  BAS[ATNO][  7].a[ 14] =         1.307640000000;     BAS[ATNO][  7].d[ 14] =         0.073001834722;
  BAS[ATNO][  7].a[ 15] =         0.530675000000;     BAS[ATNO][  7].d[ 15] =         0.007621385822;
  BAS[ATNO][  7].a[ 16] =         0.222461000000;     BAS[ATNO][  7].d[ 16] =        -0.000417861939;
  BAS[ATNO][  7].a[ 17] =         0.086881000000;     BAS[ATNO][  7].d[ 17] =         0.000143680643;
  BAS[ATNO][  7].a[ 18] =       191.170000000000;     BAS[ATNO][  7].d[ 18] =        -0.000005510065;
  BAS[ATNO][  7].a[ 19] =        22.517800000000;     BAS[ATNO][  7].d[ 19] =        -0.000266154151;
  BAS[ATNO][  7].a[ 20] =        10.060400000000;     BAS[ATNO][  7].d[ 20] =         0.002021711312;
  BAS[ATNO][  7].a[ 21] =         5.557620000000;     BAS[ATNO][  7].d[ 21] =        -0.001027947662;
  BAS[ATNO][  7].a[ 22] =         2.696250000000;     BAS[ATNO][  7].d[ 22] =        -0.004578424735;
  BAS[ATNO][  7].a[ 23] =         1.307640000000;     BAS[ATNO][  7].d[ 23] =        -0.002832511989;
  BAS[ATNO][  7].a[ 24] =         0.530675000000;     BAS[ATNO][  7].d[ 24] =        -0.000295714030;
  BAS[ATNO][  7].a[ 25] =         0.222461000000;     BAS[ATNO][  7].d[ 25] =         0.000016213277;
  BAS[ATNO][  7].a[ 26] =         0.086881000000;     BAS[ATNO][  7].d[ 26] =        -0.000005574889;
  BAS[ATNO][  7].a[ 27] =       191.170000000000;     BAS[ATNO][  7].d[ 27] =        -0.000022445098;
  BAS[ATNO][  7].a[ 28] =        22.517800000000;     BAS[ATNO][  7].d[ 28] =        -0.000871947743;
  BAS[ATNO][  7].a[ 29] =        10.060400000000;     BAS[ATNO][  7].d[ 29] =         0.007386688809;
  BAS[ATNO][  7].a[ 30] =         5.557620000000;     BAS[ATNO][  7].d[ 30] =        -0.004915476616;
  BAS[ATNO][  7].a[ 31] =         2.696250000000;     BAS[ATNO][  7].d[ 31] =        -0.019414669270;
  BAS[ATNO][  7].a[ 32] =         1.307640000000;     BAS[ATNO][  7].d[ 32] =        -0.012635089687;
  BAS[ATNO][  7].a[ 33] =         0.530675000000;     BAS[ATNO][  7].d[ 33] =         0.024446464715;
  BAS[ATNO][  7].a[ 34] =         0.222461000000;     BAS[ATNO][  7].d[ 34] =         0.040141524042;
  BAS[ATNO][  7].a[ 35] =         0.086881000000;     BAS[ATNO][  7].d[ 35] =         0.017549815859;
  BAS[ATNO][  7].a[ 36] =       191.170000000000;     BAS[ATNO][  7].d[ 36] =        -0.000059566110;
  BAS[ATNO][  7].a[ 37] =        22.517800000000;     BAS[ATNO][  7].d[ 37] =        -0.002314025761;
  BAS[ATNO][  7].a[ 38] =        10.060400000000;     BAS[ATNO][  7].d[ 38] =         0.019603225456;
  BAS[ATNO][  7].a[ 39] =         5.557620000000;     BAS[ATNO][  7].d[ 39] =        -0.013044978450;
  BAS[ATNO][  7].a[ 40] =         2.696250000000;     BAS[ATNO][  7].d[ 40] =        -0.051523781315;
  BAS[ATNO][  7].a[ 41] =         1.307640000000;     BAS[ATNO][  7].d[ 41] =        -0.033531737722;
  BAS[ATNO][  7].a[ 42] =         0.530675000000;     BAS[ATNO][  7].d[ 42] =         0.064877453454;

  // Basis function   9 L = p
  InitBFNGauss(BAS[ATNO][  8]);
  BAS[ATNO][  8].l  = 1;
  BAS[ATNO][  8].ng = 21;
  BAS[ATNO][  8].a[  0] =       191.170000000000;     BAS[ATNO][  8].d[  0] =        -0.000069378203;
  BAS[ATNO][  8].a[  1] =        22.517800000000;     BAS[ATNO][  8].d[  1] =        -0.003351194032;
  BAS[ATNO][  8].a[  2] =        10.060400000000;     BAS[ATNO][  8].d[  2] =         0.025455724979;
  BAS[ATNO][  8].a[  3] =         5.557620000000;     BAS[ATNO][  8].d[  3] =        -0.012943070965;
  BAS[ATNO][  8].a[  4] =         2.696250000000;     BAS[ATNO][  8].d[  4] =        -0.057647756251;
  BAS[ATNO][  8].a[  5] =         1.307640000000;     BAS[ATNO][  8].d[  5] =        -0.035664659830;
  BAS[ATNO][  8].a[  6] =         0.530675000000;     BAS[ATNO][  8].d[  6] =        -0.003723387690;
  BAS[ATNO][  8].a[  7] =         0.222461000000;     BAS[ATNO][  8].d[  7] =         0.000204144238;
  BAS[ATNO][  8].a[  8] =         0.086881000000;     BAS[ATNO][  8].d[  8] =        -0.000070194417;
  BAS[ATNO][  8].a[  9] =       191.170000000000;     BAS[ATNO][  8].d[  9] =        -0.000066395471;
  BAS[ATNO][  8].a[ 10] =        22.517800000000;     BAS[ATNO][  8].d[ 10] =        -0.002579332957;
  BAS[ATNO][  8].a[ 11] =        10.060400000000;     BAS[ATNO][  8].d[ 11] =         0.021850770345;
  BAS[ATNO][  8].a[ 12] =         5.557620000000;     BAS[ATNO][  8].d[ 12] =        -0.014540608580;
  BAS[ATNO][  8].a[ 13] =         2.696250000000;     BAS[ATNO][  8].d[ 13] =        -0.057431075072;
  BAS[ATNO][  8].a[ 14] =         1.307640000000;     BAS[ATNO][  8].d[ 14] =        -0.037376211476;
  BAS[ATNO][  8].a[ 15] =         0.530675000000;     BAS[ATNO][  8].d[ 15] =         0.072315769626;
  BAS[ATNO][  8].a[ 16] =         0.222461000000;     BAS[ATNO][  8].d[ 16] =         0.118743762705;
  BAS[ATNO][  8].a[ 17] =         0.086881000000;     BAS[ATNO][  8].d[ 17] =         0.051914600146;
  BAS[ATNO][  8].a[ 18] =         0.695300000000;     BAS[ATNO][  8].d[ 18] =         0.334501430077;
  BAS[ATNO][  8].a[ 19] =         0.113500000000;     BAS[ATNO][  8].d[ 19] =        -1.444012382700;
  BAS[ATNO][  8].a[ 20] =         0.042000000000;     BAS[ATNO][  8].d[ 20] =         1.581917098287;

  // Basis function  10 L = p
  InitBFNGauss(BAS[ATNO][  9]);
  BAS[ATNO][  9].l  = 1;
  BAS[ATNO][  9].ng = 21;
  BAS[ATNO][  9].a[  0] =       191.170000000000;     BAS[ATNO][  9].d[  0] =        -0.003017328886;
  BAS[ATNO][  9].a[  1] =        22.517800000000;     BAS[ATNO][  9].d[  1] =        -0.145746849795;
  BAS[ATNO][  9].a[  2] =        10.060400000000;     BAS[ATNO][  9].d[  2] =         1.107095467809;
  BAS[ATNO][  9].a[  3] =         5.557620000000;     BAS[ATNO][  9].d[  3] =        -0.562907370216;
  BAS[ATNO][  9].a[  4] =         2.696250000000;     BAS[ATNO][  9].d[  4] =        -2.507159773573;
  BAS[ATNO][  9].a[  5] =         1.307640000000;     BAS[ATNO][  9].d[  5] =        -1.551092467066;
  BAS[ATNO][  9].a[  6] =         0.530675000000;     BAS[ATNO][  9].d[  6] =        -0.161933931961;
  BAS[ATNO][  9].a[  7] =         0.222461000000;     BAS[ATNO][  9].d[  7] =         0.008878441315;
  BAS[ATNO][  9].a[  8] =         0.086881000000;     BAS[ATNO][  9].d[  8] =        -0.003052826877;
  BAS[ATNO][  9].a[  9] =       191.170000000000;     BAS[ATNO][  9].d[  9] =         0.002003753944;
  BAS[ATNO][  9].a[ 10] =        22.517800000000;     BAS[ATNO][  9].d[ 10] =         0.077841884909;
  BAS[ATNO][  9].a[ 11] =        10.060400000000;     BAS[ATNO][  9].d[ 11] =        -0.659436055354;
  BAS[ATNO][  9].a[ 12] =         5.557620000000;     BAS[ATNO][  9].d[ 12] =         0.438822129052;
  BAS[ATNO][  9].a[ 13] =         2.696250000000;     BAS[ATNO][  9].d[ 13] =         1.733216770012;
  BAS[ATNO][  9].a[ 14] =         1.307640000000;     BAS[ATNO][  9].d[ 14] =         1.127979520624;
  BAS[ATNO][  9].a[ 15] =         0.530675000000;     BAS[ATNO][  9].d[ 15] =        -2.182423095757;
  BAS[ATNO][  9].a[ 16] =         0.222461000000;     BAS[ATNO][  9].d[ 16] =        -3.583577019848;
  BAS[ATNO][  9].a[ 17] =         0.086881000000;     BAS[ATNO][  9].d[ 17] =        -1.566734654843;
  BAS[ATNO][  9].a[ 18] =         0.695300000000;     BAS[ATNO][  9].d[ 18] =         4.211888408683;
  BAS[ATNO][  9].a[ 19] =         0.113500000000;     BAS[ATNO][  9].d[ 19] =         4.887078555858;
  BAS[ATNO][  9].a[ 20] =         0.042000000000;     BAS[ATNO][  9].d[ 20] =        -0.721983362653;

-------------------------------------------
RADIAL EXPECTATION VALUES <R**-3> TO <R**3>
-------------------------------------------
   0 :     0.000000     2.758612     1.550071     0.703012     0.538848     0.474000
   1 :     4.385311     2.404496     1.479277     0.736119     0.587166     0.509093
   2 :     4.382228     2.403213     1.478749     0.736815     0.589294     0.514832
   3 :     4.382228     2.403213     1.478749     0.736815     0.589294     0.514832
   4 :     0.000000     0.868929     0.793894     1.454116     2.358636     4.513169
   5 :     0.780465     0.652924     0.729531     1.551864     2.614448     4.726399
   6 :     0.000000     0.252886     0.402636     3.082288    11.538952    52.685370
   7 :     0.000000     0.052772     0.210151     5.195973    28.928482   171.049848
   8 :     0.000000     0.164591     0.293411     4.574093    25.091178   156.069281
   9 :     0.000000    23.011485     4.046681     0.344771     0.231171     0.485925
  10 :     0.854007     0.693349     0.746137     1.589013     3.021970     7.225384
  11 :     0.854007     0.693349     0.746137     1.589013     3.021970     7.225384
  12 :     0.117509     0.152297     0.339035     3.365503    12.273368    47.673631
  13 :     0.047047     0.113153     0.322955     3.327662    11.863711    45.168729
  14 :     0.047047     0.113153     0.322955     3.327662    11.863711    45.168729
  15 :     0.025178     0.045091     0.179550     6.334222    42.961933   305.883679
  16 :     0.025176     0.045089     0.179549     6.334233    42.962023   305.884254
  17 :     0.025176     0.045089     0.179549     6.334233    42.962023   305.884254
  18 :     1.008427     0.428238     0.463795     3.308614    14.823685    83.023702
  19 :     1.008432     0.428242     0.463798     3.308599    14.823604    83.023305
  20 :     1.008432     0.428242     0.463798     3.308599    14.823604    83.023306
Making the total density                ... o.k.
o.k.
Initializing the integrals              ... done
Making exponents                        ... done
Making rho(0)                           ... done (         1.378940745)
Integral calculation                    ... Two index integrals                     ... done
Solving the equation system             ... done
atomic density will be written to file 54_Xe_atom54.adf

-------
TIMINGS
-------

Total SCF time: 0 days 0 hours 0 min 0 sec 

Total time                  ....       0.501 sec
Sum of individual times     ....       0.129 sec  ( 25.8%)

Fock matrix formation       ....       0.089 sec  ( 17.8%)
Diagonalization             ....       0.017 sec  (  3.4%)
Density matrix formation    ....       0.000 sec  (  0.0%)
Population analysis         ....       0.000 sec  (  0.0%)
Initial guess               ....       0.000 sec  (  0.1%)
Orbital Transformation      ....       0.000 sec  (  0.0%)
Orbital Orthonormalization  ....       0.000 sec  (  0.0%)
DIIS solution               ....       0.022 sec  (  4.5%)

-------------------------   --------------------
FINAL SINGLE POINT ENERGY      -281.527961087103
-------------------------   --------------------


                            ***************************************
                            *     ORCA property calculations      *
                            ***************************************

                                    ---------------------
                                    Active property flags
                                    ---------------------
   (+) Dipole Moment


------------------------------------------------------------------------------
                       ORCA ELECTRIC PROPERTIES CALCULATION
------------------------------------------------------------------------------

Dipole Moment Calculation                       ... on
Quadrupole Moment Calculation                   ... off
Polarizability Calculation                      ... off
GBWName                                         ... 54_Xe_atom54.gbw
Electron density file                           ... 54_Xe_atom54.scfp
The origin for moment calculation is the CENTER OF MASS  = ( 0.000000,  0.000000  0.000000)

-------------
DIPOLE MOMENT
-------------
                                X             Y             Z
Electronic contribution:     -0.00000       0.00000       0.00000
Nuclear contribution   :      0.00000       0.00000       0.00000
                        -----------------------------------------
Total Dipole Moment    :     -0.00000       0.00000       0.00000
                        -----------------------------------------
Magnitude (a.u.)       :      0.00000
Magnitude (Debye)      :      0.00000



--------------------
Rotational spectrum 
--------------------
 
Rotational constants in cm-1:     0.000000     0.000000     0.000000 
Rotational constants in MHz :     0.000000     0.000000     0.000000 

 Dipole components along the rotational axes: 
x,y,z [a.u.] :    -0.000000     0.000000     0.000000 
x,y,z [Debye]:    -0.000000     0.000000     0.000000 

 

Timings for individual modules:

Sum of individual times         ...        0.815 sec (=   0.014 min)
GTO integral calculation        ...        0.291 sec (=   0.005 min)  35.8 %
SCF iterations                  ...        0.523 sec (=   0.009 min)  64.2 %
                             ****ORCA TERMINATED NORMALLY****
TOTAL RUN TIME: 0 days 0 hours 0 minutes 1 seconds 44 msec
