
                                 *****************
                                 * O   R   C   A *
                                 *****************

           --- An Ab Initio, DFT and Semiempirical electronic structure package ---

                  #######################################################
                  #                        -***-                        #
                  #          Department of theory and spectroscopy      #
                  #               Directorship: Frank Neese             #
                  #        Max Planck Institute fuer Kohlenforschung    #
                  #                Kaiser Wilhelm Platz 1               #
                  #                 D-45470 Muelheim/Ruhr               #
                  #                      Germany                        #
                  #                                                     #
                  #                  All rights reserved                #
                  #                        -***-                        #
                  #######################################################


                         Program Version 4.2.0 -  RELEASE  -


 With contributions from (in alphabetic order):
   Daniel Aravena         : Magnetic Suceptibility
   Michael Atanasov       : Ab Initio Ligand Field Theory (pilot matlab implementation)
   Alexander A. Auer      : GIAO ZORA, VPT2
   Ute Becker             : Parallelization
   Giovanni Bistoni       : ED, misc. LED, open-shell LED, HFLED
   Martin Brehm           : Molecular dynamics
   Dmytro Bykov           : SCF Hessian
   Vijay G. Chilkuri      : MRCI spin determinant printing, contributions to CSF-ICE
   Dipayan Datta          : RHF DLPNO-CCSD density
   Achintya Kumar Dutta   : EOM-CC, STEOM-CC
   Dmitry Ganyushin       : Spin-Orbit,Spin-Spin,Magnetic field MRCI
   Miquel Garcia          : C-PCM Hessian, Gaussian charge scheme
   Yang Guo               : DLPNO-NEVPT2, CIM, IAO-localization
   Andreas Hansen         : Spin unrestricted coupled pair/coupled cluster methods
   Benjamin Helmich-Paris : CASSCF linear response (MC-RPA)
   Lee Huntington         : MR-EOM, pCC
   Robert Izsak           : Overlap fitted RIJCOSX, COSX-SCS-MP3, EOM
   Christian Kollmar      : KDIIS, OOCD, Brueckner-CCSD(T), CCSD density
   Simone Kossmann        : Meta GGA functionals, TD-DFT gradient, OOMP2, MP2 Hessian
   Martin Krupicka        : AUTO-CI
   Lucas Lang             : DCDCAS
   Dagmar Lenk            : GEPOL surface, SMD
   Dimitrios Liakos       : Extrapolation schemes; Compound Job, initial MDCI parallelization
   Dimitrios Manganas     : Further ROCIS development; embedding schemes
   Dimitrios Pantazis     : SARC Basis sets
   Taras Petrenko         : DFT Hessian,TD-DFT gradient, ASA, ECA, R-Raman, ABS, FL, XAS/XES, NRVS
   Peter Pinski           : DLPNO-MP2, DLPNO-MP2 Gradient
   Christoph Reimann      : Effective Core Potentials
   Marius Retegan         : Local ZFS, SOC
   Christoph Riplinger    : Optimizer, TS searches, QM/MM, DLPNO-CCSD(T), (RO)-DLPNO pert. Triples
   Tobias Risthaus        : Range-separated hybrids, TD-DFT gradient, RPA, STAB
   Michael Roemelt        : Original ROCIS implementation
   Masaaki Saitow         : Open-shell DLPNO-CCSD energy and density
   Barbara Sandhoefer     : DKH picture change effects
   Avijit Sen             : IP-ROCIS
   Kantharuban Sivalingam : CASSCF convergence, NEVPT2, FIC-MRCI
   Bernardo de Souza      : ESD, SOC TD-DFT
   Georgi Stoychev        : AutoAux, RI-MP2 NMR
   Willem Van den Heuvel  : Paramagnetic NMR
   Boris Wezisla          : Elementary symmetry handling
   Frank Wennmohs         : Technical directorship


 We gratefully acknowledge several colleagues who have allowed us to
 interface, adapt or use parts of their codes:
   Stefan Grimme, W. Hujo, H. Kruse,             : VdW corrections, initial TS optimization,
                  C. Bannwarth                     DFT functionals, gCP, sTDA/sTD-DF
   Ed Valeev, F. Pavosevic, A. Kumar             : LibInt (2-el integral package), F12 methods
   Garnet Chan, S. Sharma, J. Yang, R. Olivares  : DMRG
   Ulf Ekstrom                                   : XCFun DFT Library
   Mihaly Kallay                                 : mrcc  (arbitrary order and MRCC methods)
   Andreas Klamt, Michael Diedenhofen            : otool_cosmo (COSMO solvation model)
   Jiri Pittner, Ondrej Demel                    : Mk-CCSD
   Frank Weinhold                                : gennbo (NPA and NBO analysis)
   Christopher J. Cramer and Donald G. Truhlar   : smd solvation model
   Lars Goerigk                                  : TD-DFT with DH, B97 family of functionals
   V. Asgeirsson, H. Jonsson                     : NEB implementation
   FAccTs GmbH                                   : IRC, NEB, NEB-TS, Multilevel, MM, QM/MM, CI optimization
   S Lehtola, MJT Oliveira, MAL Marques          : LibXC Library


 Your calculation uses the libint2 library for the computation of 2-el integrals
 For citations please refer to: http://libint.valeyev.net

 Your ORCA version has been built with support for libXC version: 4.2.3
 For citations please refer to: https://tddft.org/programs/libxc/

 This ORCA versions uses:
   CBLAS   interface :  Fast vector & matrix operations
   LAPACKE interface :  Fast linear algebra routines
   SCALAPACK package :  Parallel linear algebra routines


----- Orbital basis set information -----
Your calculation utilizes the basis: aug-cc-pVTZ-PP 
       Ca, Sr, Ba, Ra : Obtained from the Peterson Research Group Website (tyr0.chem.wsu.edu/~kipeters) Feb. 2017
                        H. Li, H. Feng, W. Sun, Y. Zhang, Q. Fan, K. A. Peterson, Y. Xie, H. F. Schaefer III, Mol. Phys. 111, 2292 (2013)
  Cu-Zn, Ag-Cd, Au-Hg : Obtained from the ccRepo (grant-hill.group.shef.ac.uk/ccrepo) Feb. 2017
                        K. A. Peterson, C. Puzzarini, Theor. Chem. Acc. 114, 283 (2005)
  Ga-Kr, In-Xe, Tl-Rn : Obtained from the ccRepo (grant-hill.group.shef.ac.uk/ccrepo) Feb. 2017
                        K. A. Peterson, J. Chem. Phys. 119, 11099 (2003)
                        K. A. Peterson, D. Figgen, E. Goll, H. Stoll, M. Dolg, J. Chem. Phys. 119, 11113 (2003)
                 Y-Pd : Obtained from the ccRepo (grant-hill.group.shef.ac.uk/ccrepo) Feb. 2017
                        K. A. Peterson, D. Figgen, M. Dolg, H. Stoll, J. Chem. Phys. 126, 124101 (2007)
                Hf-Pt : Obtained from the ccRepo (grant-hill.group.shef.ac.uk/ccrepo) Feb. 2017
                        D. Figgen, K. A. Peterson, M. Dolg, H. Stoll, J. Chem. Phys. 130, 164108 (2009)

cite the ECPs for Xe [SK MCDHF RSC] as follows:
O: B. Metz and H. Stoll, private communication (KAP)
Tl: B. Metz, M. Schweizer, H. Stoll, M. Dolg, W. Liu, Theor. Chem. Acc. 104, 22 (2000)
Ga-As, In-Sb, Pb-Bi: B. Metz, H. Stoll, M. Dolg, J. Chem. Phys. 113, 2563 (2000)
Se-Kr, Te-Xe, Po-Rn: K.A. Peterson, D. Figgen, E. Goll, H. Stoll, and M. Dolg, J. Chem. Phys., in press (2003)
Cu-Zn, Ag-Cd, Au-Hg: D. Figgen, G. Rauhut, M. Dolg, and H. Stoll, Chem. Phys. 311, 227 (2005)
Y-Pd: K.A. Peterson, D. Figgen, M. Dolg, H. Stoll, J. Chem. Phys. 126, 124101 (2007)
I: K. A. Peterson, B. C. Shepler, D. Figgen, H. Stoll, J. Phys. Chem. A 110, 13877 (2006)
Hf-Pt: D. Figgen, K.A. Peterson, M. Dolg, H. Stoll, J. Chem. Phys. 130, 164108 (2009)
Ca, Sr, Ba, Ra: I.S. Lim, H. Stoll, P. Schwerdtfeger, J. Chem. Phys. 124, 034107 (2006)

ECP parameters for Xe [SK MCDHF RSC] have been obtained from:
cc-pVDZ-PP  EMSL  Basis Set Exchange Library   4/7/16 5:27 AM
Ca, Sr, Ba, Ra: http://www.tc.uni-koeln.de/PP/index.en.html 3/16/17 1:54 PM

================================================================================
                                        WARNINGS
                       Please study these warnings very carefully!
================================================================================


WARNING: MDCI localization with Augmented Hessian Foster-Boys
  ===> : Switching off randomization!

WARNING: Post HF methods need fully converged wavefunctions
  ===> : Setting SCFConvForced true
         You can overwrite this default with %scf ConvForced false 


INFO   : the flag for use of LIBINT has been found!

================================================================================
                                       INPUT FILE
================================================================================
NAME = 54_Xe.in
|  1> #
|  2> # 54_Xe CCSD(T)/aug-cc-pVTZ-PP
|  3> #
|  4> ! CCSD(T) aug-cc-pVTZ-PP tightscf
|  5> 
|  6> *xyz 0 1
|  7>  Xe 0.0 0.0 0.0
|  8> *
|  9> 
| 10> %maxcore 5000 
| 11> 
| 12> %pal
| 13> nprocs 24
| 14> end
| 15> 
| 16> 
| 17>                          ****END OF INPUT****
================================================================================

                       ****************************
                       * Single Point Calculation *
                       ****************************

---------------------------------
CARTESIAN COORDINATES (ANGSTROEM)
---------------------------------
  Xe     0.000000    0.000000    0.000000

----------------------------
CARTESIAN COORDINATES (A.U.)
----------------------------
  NO LB      ZA    FRAG     MASS         X           Y           Z
   0 Xe   26.0000*   0   131.300    0.000000    0.000000    0.000000
* core charge reduced due to ECP

--------------------------------
INTERNAL COORDINATES (ANGSTROEM)
--------------------------------
 Xe     0   0   0     0.000000000000     0.00000000     0.00000000

---------------------------
INTERNAL COORDINATES (A.U.)
---------------------------
 Xe     0   0   0     0.000000000000     0.00000000     0.00000000

---------------------
BASIS SET INFORMATION
---------------------
There are 1 groups of distinct atoms

 Group   1 Type Xe  : 22s21p10d2f contracted to 6s5p4d2f pattern {991111/99111/7111/11}

Atom   0Xe   basis set group =>   1
-------------------------
ECP PARAMETER INFORMATION
-------------------------

 Group 1, Type Xe ECP SK MCDHF RSC (replacing 28 core electrons, lmax=4)

Atom   0Xe   ECP group =>   1



           ************************************************************
           *        Program running with 24 parallel MPI-processes    *
           *              working on a common directory               *
           ************************************************************
------------------------------------------------------------------------------
                           ORCA GTO INTEGRAL CALCULATION
------------------------------------------------------------------------------

                         BASIS SET STATISTICS AND STARTUP INFO

 # of primitive gaussian shells          ...   55
 # of primitive gaussian functions       ...  149
 # of contracted shells                  ...   17
 # of contracted basis functions         ...   55
 Highest angular momentum                ...    3
 Maximum contraction depth               ...    9
 Integral package used                   ... LIBINT
 Integral threshhold            Thresh   ...  2.500e-11
 Primitive cut-off              TCut     ...  2.500e-12


------------------------------ INTEGRAL EVALUATION ----------------------------


 * One electron integrals 

   ECP integrals                         ... done
 Pre-screening matrix                    ... done
 Shell pair data                         ... done (   0.000 sec)



           ************************************************************
           *        Program running with 24 parallel MPI-processes    *
           *              working on a common directory               *
           ************************************************************
-------------------------------------------------------------------------------
                                 ORCA SCF
-------------------------------------------------------------------------------

------------
SCF SETTINGS
------------
Hamiltonian:
 Ab initio Hamiltonian  Method          .... Hartree-Fock(GTOs)


General Settings:
 Integral files         IntName         .... 54_Xe
 Hartree-Fock type      HFTyp           .... RHF
 Total Charge           Charge          ....    0
 Multiplicity           Mult            ....    1
 Number of Electrons    NEL             ....   26
 Basis Dimension        Dim             ....   55
 Nuclear Repulsion      ENuc            ....      0.0000000000 Eh

Convergence Acceleration:
 DIIS                   CNVDIIS         .... on
   Start iteration      DIISMaxIt       ....    12
   Startup error        DIISStart       ....  0.200000
   # of expansion vecs  DIISMaxEq       ....     5
   Bias factor          DIISBfac        ....   1.050
   Max. coefficient     DIISMaxC        ....  10.000
 Newton-Raphson         CNVNR           .... off
 SOSCF                  CNVSOSCF        .... on
   Start iteration      SOSCFMaxIt      ....   150
   Startup grad/error   SOSCFStart      ....  0.003300
 Level Shifting         CNVShift        .... on
   Level shift para.    LevelShift      ....    0.2500
   Turn off err/grad.   ShiftErr        ....    0.0010
 Zerner damping         CNVZerner       .... off
 Static damping         CNVDamp         .... on
   Fraction old density DampFac         ....    0.7000
   Max. Damping (<1)    DampMax         ....    0.9800
   Min. Damping (>=0)   DampMin         ....    0.0000
   Turn off err/grad.   DampErr         ....    0.1000
 Fernandez-Rico         CNVRico         .... off

SCF Procedure:
 Maximum # iterations   MaxIter         ....   125
 SCF integral mode      SCFMode         .... Direct
   Integral package                     .... LIBINT
 Reset frequency        DirectResetFreq ....    20
 Integral Threshold     Thresh          ....  2.500e-11 Eh
 Primitive CutOff       TCut            ....  2.500e-12 Eh

Convergence Tolerance:
 Convergence Check Mode ConvCheckMode   .... Total+1el-Energy
 Convergence forced     ConvForced      .... 1
 Energy Change          TolE            ....  1.000e-08 Eh
 1-El. energy change                    ....  1.000e-05 Eh
 Orbital Gradient       TolG            ....  1.000e-05
 Orbital Rotation angle TolX            ....  1.000e-05
 DIIS Error             TolErr          ....  5.000e-07


Diagonalization of the overlap matrix:
Smallest eigenvalue                        ... 2.699e-03
Time for diagonalization                   ...    0.002 sec
Threshold for overlap eigenvalues          ... 1.000e-08
Number of eigenvalues below threshold      ... 0
Time for construction of square roots      ...    0.012 sec
Total time needed                          ...    0.014 sec

-------------------
DFT GRID GENERATION
-------------------

General Integration Accuracy     IntAcc      ...  4.340
Radial Grid Type                 RadialGrid  ... Gauss-Chebyshev
Angular Grid (max. acc.)         AngularGrid ... Lebedev-110
Angular grid pruning method      GridPruning ... 3 (G Style)
Weight generation scheme         WeightScheme... Becke
Basis function cutoff            BFCut       ...    1.0000e-11
Integration weight cutoff        WCut        ...    1.0000e-14
Grids for H and He will be reduced by one unit

# of grid points (after initial pruning)     ...   3222 (   0.0 sec)
# of grid points (after weights+screening)   ...   3222 (   0.0 sec)
Grid point division into batches done        ...    0.0 sec
Reduced shell lists constructed in    0.0 sec

Total number of grid points                  ...     3222
Total number of batches                      ...       51
Average number of points per batch           ...       63
Average number of grid points per atom       ...     3222
Average number of shells per batch           ...    11.25 (66.18%)
Average number of basis functions per batch  ...    35.25 (64.09%)
Average number of large shells per batch     ...     8.25 (73.33%)
Average number of large basis fcns per batch ...    24.75 (70.21%)
Maximum spatial batch extension              ...  19.53, 28.74, 28.74 au
Average spatial batch extension              ...   1.08,  1.51,  1.69 au

Time for grid setup =    0.069 sec

------------------------------
INITIAL GUESS: MODEL POTENTIAL
------------------------------
Loading Hartree-Fock densities                     ... done
  calling /sw/apps/orca/orca_4_2_0_linux_x86-64_openmpi314/orca 54_Xe_atom54.inp > 54_Xe_atom54.out in order to generate an atomic fitting density for atom 0 (Xe with ECP) on-the-fly... 
    atom 0 (Xe), assumed electronic state with S=1: 1s2 2s2 2p6 3s2 3p6 4s2 3d10 4p6 5s2 4d10 5p6           ... done
Calculating cut-offs                               ... done
Setting up the integral package                    ... done
Initializing the effective Hamiltonian             ... done
Starting the Coulomb interaction                   ... done (   0.0 sec)
Reading the grid                                   ... done
Mapping shells                                     ... done
Starting the XC term evaluation                    ... done (   0.0 sec)
Transforming the Hamiltonian                       ... done (   0.0 sec)
Diagonalizing the Hamiltonian                      ... done (   0.0 sec)
Back transforming the eigenvectors                 ... done (   0.0 sec)
Now organizing SCF variables                       ... done
                      ------------------
                      INITIAL GUESS DONE (   1.2 sec)
                      ------------------
--------------
SCF ITERATIONS
--------------
ITER       Energy         Delta-E        Max-DP      RMS-DP      [F,P]     Damp
               ***  Starting incremental Fock matrix formation  ***
  0   -320.0996670501   0.000000000000 5.26010723  0.16896880  1.4457662 0.7000
  1   -322.8953244857  -2.795657435554 3.68689299  0.11821251  0.9102392 0.7000
  2   -324.5454405737  -1.650116088067 2.52001456  0.08215694  0.5171080 0.7000
  3   -325.6491710377  -1.103730464021 1.73014643  0.05728432  0.2876132 0.7000
                               ***Turning on DIIS***
  4   -326.4253828334  -0.776211795690 1.20090766  0.04011390  0.1592574 0.7000
  5   -327.7007626706  -1.275379837134 2.81162589  0.09408964  0.0874020 0.0000
  6   -328.1963479278  -0.495585257200 0.07004104  0.00299899  0.0263775 0.0000
  7   -328.2531000733  -0.056752145511 0.03930420  0.00170578  0.0114115 0.0000
  8   -328.2782408513  -0.025140778045 0.01326567  0.00066502  0.0047146 0.0000
                      *** Initiating the SOSCF procedure ***
                           *** Shutting down DIIS ***
                      *** Re-Reading the Fockian *** 
                      *** Removing any level shift *** 
ITER      Energy       Delta-E        Grad      Rot      Max-DP    RMS-DP
  9   -328.29138214  -0.0131412934  0.001247  0.001247  0.004675  0.000227
               *** Restarting incremental Fock matrix formation ***
 10   -328.29866776  -0.0072856170  0.000302  0.000526  0.001586  0.000065
 11   -328.29866897  -0.0000012122  0.000060  0.000143  0.000537  0.000028
 12   -328.29866905  -0.0000000721  0.000018  0.000005  0.000103  0.000003
 13   -328.29866905  -0.0000000013  0.000004  0.000002  0.000014  0.000001
                 **** Energy Check signals convergence ****
              ***Rediagonalizing the Fockian in SOSCF/NRSCF***

               *****************************************************
               *                     SUCCESS                       *
               *           SCF CONVERGED AFTER  14 CYCLES          *
               *****************************************************


----------------
TOTAL SCF ENERGY
----------------

Total Energy       :         -328.29866905 Eh           -8933.46095 eV

Components:
Nuclear Repulsion  :            0.00000000 Eh               0.00000 eV
Electronic Energy  :         -328.29866905 Eh           -8933.46095 eV
One Electron Energy:         -571.59415357 Eh          -15553.86766 eV
Two Electron Energy:          243.29548452 Eh            6620.40671 eV

Virial components:
Potential Energy   :         -453.87744282 Eh          -12350.63311 eV
Kinetic Energy     :          125.57877378 Eh            3417.17216 eV
Virial Ratio       :            3.61428472


---------------
SCF CONVERGENCE
---------------

  Last Energy change         ...   -6.7189e-11  Tolerance :   1.0000e-08
  Last MAX-Density change    ...    1.7525e-06  Tolerance :   1.0000e-07
  Last RMS-Density change    ...    7.4491e-08  Tolerance :   5.0000e-09
  Last Orbital Gradient      ...    3.7647e-07  Tolerance :   1.0000e-05
  Last Orbital Rotation      ...    2.6047e-07  Tolerance :   1.0000e-05

             **** THE GBW FILE WAS UPDATED (54_Xe.gbw) ****
             **** DENSITY FILE WAS UPDATED (54_Xe.scfp) ****
             **** ENERGY FILE WAS UPDATED (54_Xe.en.tmp) ****
             **** THE GBW FILE WAS UPDATED (54_Xe.gbw) ****
             **** DENSITY FILE WAS UPDATED (54_Xe.scfp) ****
----------------
ORBITAL ENERGIES
----------------

  NO   OCC          E(Eh)            E(eV) 
   0   2.0000      -8.400162      -228.5800 
   1   2.0000      -6.133865      -166.9110 
   2   2.0000      -6.133865      -166.9110 
   3   2.0000      -6.133865      -166.9110 
   4   2.0000      -2.664217       -72.4970 
   5   2.0000      -2.664217       -72.4970 
   6   2.0000      -2.664217       -72.4970 
   7   2.0000      -2.664217       -72.4970 
   8   2.0000      -2.664217       -72.4970 
   9   2.0000      -1.009739       -27.4764 
  10   2.0000      -0.456336       -12.4175 
  11   2.0000      -0.456336       -12.4175 
  12   2.0000      -0.456336       -12.4175 
  13   0.0000       0.084634         2.3030 
  14   0.0000       0.118020         3.2115 
  15   0.0000       0.118020         3.2115 
  16   0.0000       0.118020         3.2115 
  17   0.0000       0.218325         5.9409 
  18   0.0000       0.218325         5.9409 
  19   0.0000       0.218325         5.9409 
  20   0.0000       0.218325         5.9409 
  21   0.0000       0.218325         5.9409 
  22   0.0000       0.471447        12.8287 
  23   0.0000       0.633171        17.2295 
  24   0.0000       0.633171        17.2295 
  25   0.0000       0.633171        17.2295 
  26   0.0000       0.633171        17.2295 
  27   0.0000       0.633171        17.2295 
  28   0.0000       0.655643        17.8410 
  29   0.0000       0.655643        17.8410 
  30   0.0000       0.655643        17.8410 
  31   0.0000       0.782068        21.2811 
  32   0.0000       0.782068        21.2811 
  33   0.0000       0.782068        21.2811 
  34   0.0000       0.782068        21.2811 
  35   0.0000       0.782068        21.2811 
  36   0.0000       0.782068        21.2811 
  37   0.0000       0.782068        21.2811 
  38   0.0000       1.693317        46.0775 
  39   0.0000       1.709820        46.5266 
  40   0.0000       1.709820        46.5266 
  41   0.0000       1.709820        46.5266 
  42   0.0000       1.709820        46.5266 
  43   0.0000       1.709820        46.5266 
  44   0.0000       1.709820        46.5266 
  45   0.0000       1.709820        46.5266 
  46   0.0000       1.969583        53.5951 
  47   0.0000       1.969583        53.5951 
  48   0.0000       1.969583        53.5951 
  49   0.0000       1.969583        53.5951 
  50   0.0000       1.969583        53.5951 
  51   0.0000       3.572648        97.2167 
  52   0.0000       3.572648        97.2167 
  53   0.0000       3.572648        97.2167 
  54   0.0000      58.284887      1586.0124 

                    ********************************
                    * MULLIKEN POPULATION ANALYSIS *
                    ********************************

-----------------------
MULLIKEN ATOMIC CHARGES
-----------------------
   0 Xe:   -0.000000
Sum of atomic charges:   -0.0000000

--------------------------------
MULLIKEN REDUCED ORBITAL CHARGES
--------------------------------
  0 Xes       :     4.000000  s :     4.000000
      pz      :     4.000000  p :    12.000000
      px      :     4.000000
      py      :     4.000000
      dz2     :     2.000000  d :    10.000000
      dxz     :     2.000000
      dyz     :     2.000000
      dx2y2   :     2.000000
      dxy     :     2.000000
      f0      :     0.000000  f :     0.000000
      f+1     :     0.000000
      f-1     :     0.000000
      f+2     :     0.000000
      f-2     :     0.000000
      f+3     :     0.000000
      f-3     :     0.000000


                     *******************************
                     * LOEWDIN POPULATION ANALYSIS *
                     *******************************

----------------------
LOEWDIN ATOMIC CHARGES
----------------------
   0 Xe:   -0.000000

-------------------------------
LOEWDIN REDUCED ORBITAL CHARGES
-------------------------------
  0 Xes       :     4.000000  s :     4.000000
      pz      :     4.000000  p :    12.000000
      px      :     4.000000
      py      :     4.000000
      dz2     :     2.000000  d :    10.000000
      dxz     :     2.000000
      dyz     :     2.000000
      dx2y2   :     2.000000
      dxy     :     2.000000
      f0      :     0.000000  f :     0.000000
      f+1     :     0.000000
      f-1     :     0.000000
      f+2     :     0.000000
      f-2     :     0.000000
      f+3     :     0.000000
      f-3     :     0.000000


                      *****************************
                      * MAYER POPULATION ANALYSIS *
                      *****************************

  NA   - Mulliken gross atomic population
  ZA   - Total nuclear charge
  QA   - Mulliken gross atomic charge
  VA   - Mayer's total valence
  BVA  - Mayer's bonded valence
  FA   - Mayer's free valence

  ATOM       NA         ZA         QA         VA         BVA        FA
  0 Xe    26.0000    26.0000    -0.0000    -0.0000     0.0000    -0.0000

  Mayer bond orders larger than 0.100000


--------------------------
ATOM BASIS FOR ELEMENT Xe
--------------------------
 NewGTO Xe
 S 22
    1       6456.400000000000        -0.000250007200
    2        974.061000000000        -0.001630046944
    3        214.429000000000        -0.004733136311
    4         31.330800000000         0.033699970535
    5         19.613000000000        -0.243938025238
    6          8.886090000000         0.764675022085
    7          2.325080000000        -0.900819942960
    8          1.184220000000        -0.441525715620
    9          0.092178000000        -0.000851024509
   10       6456.400000000000         0.000000013923
   11        974.061000000000         0.000000094785
   12        214.429000000000         0.000000252547
   13         31.330800000000        -0.000000780882
   14         19.613000000000         0.000009921841
   15          8.886090000000        -0.000037892226
   16          2.325080000000         0.000065956753
   17          1.184220000000         0.000044239638
   18          0.092178000000        -0.000015244607
   19          0.426854000000        -0.021785135236
   20          0.201645000000         0.004036517534
   21          0.114300000000        -0.000912086757
   22          0.047600000000         0.000323389565
 S 21
    1       6456.400000000000         0.000000003041
    2        974.061000000000         0.000000019826
    3        214.429000000000         0.000000057569
    4         31.330800000000        -0.000000409889
    5         19.613000000000         0.000002966994
    6          8.886090000000        -0.000009300667
    7          2.325080000000         0.000010956585
    8          1.184220000000         0.000005370234
    9       6456.400000000000        -0.000130009123
   10        974.061000000000        -0.000885062107
   11        214.429000000000        -0.002358165478
   12         31.330800000000         0.007291511662
   13         19.613000000000        -0.092645501141
   14          8.886090000000         0.353819828324
   15          2.325080000000        -0.615873217193
   16          1.184220000000        -0.413088987373
   17          0.092178000000         0.142346988805
   18          0.426854000000         0.579371866219
   19          0.201645000000         0.625767175729
   20          0.114300000000        -0.000518637707
   21          0.047600000000         0.000228917610
 S 22
    1       6456.400000000000         0.000011214960
    2        974.061000000000         0.000073121537
    3        214.429000000000         0.000212321616
    4         31.330800000000        -0.001511731700
    5         19.613000000000         0.010942705285
    6          8.886090000000        -0.034302210152
    7          2.325080000000         0.040409473436
    8          1.184220000000         0.019806201912
    9          0.092178000000         0.000038175723
   10       6456.400000000000        -0.000050161664
   11        974.061000000000        -0.000341485172
   12        214.429000000000        -0.000909855409
   13         31.330800000000         0.002813297618
   14         19.613000000000        -0.035745587445
   15          8.886090000000         0.136514967888
   16          2.325080000000        -0.237623518349
   17          1.184220000000        -0.159382898672
   18          0.092178000000         0.054922005637
   19          0.426854000000         0.586560381712
   20          0.201645000000        -1.372309946602
   21          0.114300000000         2.725366608239
   22          0.047600000000        -2.349095063411
 S 22
    1       6456.400000000000        -0.000006101921
    2        974.061000000000        -0.000039784527
    3        214.429000000000        -0.000115521573
    4         31.330800000000         0.000822514579
    5         19.613000000000        -0.005953791029
    6          8.886090000000         0.018663409618
    7          2.325080000000        -0.021986296272
    8          1.184220000000        -0.010776310262
    9          0.092178000000        -0.000020770940
   10       6456.400000000000        -0.000055342846
   11        974.061000000000        -0.000376757070
   12        214.429000000000        -0.001003834091
   13         31.330800000000         0.003103882254
   14         19.613000000000        -0.039437738055
   15          8.886090000000         0.150615556465
   16          2.325080000000        -0.262167577658
   17          1.184220000000        -0.175845508708
   18          0.092178000000         0.060594882518
   19          0.426854000000        -0.994327680597
   20          0.201645000000         6.890946436443
   21          0.114300000000        -8.125241133476
   22          0.047600000000         2.495910198582
 S 22
    1       6456.400000000000         0.000169832270
    2        974.061000000000         0.001107306402
    3        214.429000000000         0.003215264539
    4         31.330800000000        -0.022892710693
    5         19.613000000000         0.165709422004
    6          8.886090000000        -0.519451019607
    7          2.325080000000         0.611935559993
    8          1.184220000000         0.299932620443
    9          0.092178000000         0.000578109048
   10       6456.400000000000        -0.000377677339
   11        974.061000000000        -0.002571111117
   12        214.429000000000        -0.006850485890
   13         31.330800000000         0.021181888307
   14         19.613000000000        -0.269135777102
   15          8.886090000000         1.027848878549
   16          2.325080000000        -1.789115659851
   17          1.184220000000        -1.200026167056
   18          0.092178000000         0.413518918656
   19          0.426854000000         7.049827318865
   20          0.201645000000       -11.855568677002
   21          0.114300000000         7.549586590305
   22          0.047600000000        -1.642170221115
 S 22
    1       6456.400000000000        -0.001577002846
    2        974.061000000000        -0.010282058554
    3        214.429000000000        -0.029855817874
    4         31.330800000000         0.212573675583
    5         19.613000000000        -1.538719524574
    6          8.886090000000         4.823439827756
    7          2.325080000000        -5.682218805398
    8          1.184220000000        -2.785069029576
    9          0.092178000000        -0.005368117687
   10       6456.400000000000         0.000933606898
   11        974.061000000000         0.006355708501
   12        214.429000000000         0.016934192819
   13         31.330800000000        -0.052360983819
   14         19.613000000000         0.665295457420
   15          8.886090000000        -2.540811174104
   16          2.325080000000         4.422639509740
   17          1.184220000000         2.966428195919
   18          0.092178000000        -1.022206193102
   19          0.426854000000         0.950171636295
   20          0.201645000000        -1.627425787956
   21          0.114300000000         2.007085323342
   22          0.047600000000        -0.039751160709
 P 21
    1        191.170000000000        -0.000764580868
    2         22.517800000000        -0.036931754540
    3         10.060400000000         0.280534215150
    4          5.557620000000        -0.142638807443
    5          2.696250000000        -0.635305734470
    6          1.307640000000        -0.393041540241
    7          0.530675000000        -0.041033506018
    8          0.222461000000         0.002249766710
    9          0.086881000000        -0.000773575937
   10        191.170000000000        -0.000000304788
   11         22.517800000000        -0.000011840423
   12         10.060400000000         0.000100305918
   13          5.557620000000        -0.000066748635
   14          2.696250000000        -0.000263637236
   15          1.307640000000        -0.000171575424
   16          0.530675000000         0.000331965396
   17          0.222461000000         0.000545093006
   18          0.086881000000         0.000238313868
   19          0.695300000000        -0.000533278035
   20          0.113500000000        -0.000974296417
   21          0.042000000000         0.000358150971
 P 20
    1        191.170000000000         0.000000382262
    2         22.517800000000         0.000018464522
    3         10.060400000000        -0.000140256813
    4          5.557620000000         0.000071314169
    5          2.696250000000         0.000317629553
    6          1.307640000000         0.000196506347
    7          0.530675000000         0.000020515247
    8          0.222461000000        -0.000001124801
    9        191.170000000000        -0.000329324188
   10         22.517800000000        -0.012793594081
   11         10.060400000000         0.108380690517
   12          5.557620000000        -0.072121997270
   13          2.696250000000        -0.284860418081
   14          1.307640000000        -0.185387496418
   15          0.530675000000         0.358689095415
   16          0.222461000000         0.588973788868
   17          0.086881000000         0.257498482849
   18          0.695300000000        -0.000323443211
   19          0.113500000000        -0.002181700879
   20          0.042000000000         0.002026365388
 P 21
    1        191.170000000000        -0.000094692110
    2         22.517800000000        -0.004573938387
    3         10.060400000000         0.034743711247
    4          5.557620000000        -0.017665586837
    5          2.696250000000        -0.078681593189
    6          1.307640000000        -0.048677562468
    7          0.530675000000        -0.005081933709
    8          0.222461000000         0.000278629988
    9          0.086881000000        -0.000095806135
   10        191.170000000000        -0.000010620824
   11         22.517800000000        -0.000412598048
   12         10.060400000000         0.003495316563
   13          5.557620000000        -0.002325960560
   14          2.696250000000        -0.009186851761
   15          1.307640000000        -0.005978813973
   16          0.530675000000         0.011567853373
   17          0.222461000000         0.018994618228
   18          0.086881000000         0.008304419430
   19          0.695300000000         0.093409101868
   20          0.113500000000         0.784214779847
   21          0.042000000000        -1.426689912729
 P 21
    1        191.170000000000         0.000657406114
    2         22.517800000000         0.031754863715
    3         10.060400000000        -0.241210467268
    4          5.557620000000         0.122644481620
    5          2.696250000000         0.546252060511
    6          1.307640000000         0.337947132497
    7          0.530675000000         0.035281654165
    8          0.222461000000        -0.001934406750
    9          0.086881000000         0.000665140304
   10        191.170000000000        -0.000896541908
   11         22.517800000000        -0.034828881849
   12         10.060400000000         0.295052214486
   13          5.557620000000        -0.196342677891
   14          2.696250000000        -0.775495125317
   15          1.307640000000        -0.504693143173
   16          0.530675000000         0.976484015832
   17          0.222461000000         1.603403889120
   18          0.086881000000         0.701005845499
   19          0.695300000000        -0.447574203629
   20          0.113500000000        -3.403765700664
   21          0.042000000000         0.895444246109
 P 21
    1        191.170000000000        -0.003067432405
    2         22.517800000000        -0.148167009455
    3         10.060400000000         1.125479041724
    4          5.557620000000        -0.572254575891
    5          2.696250000000        -2.548791735977
    6          1.307640000000        -1.576848712846
    7          0.530675000000        -0.164622882122
    8          0.222461000000         0.009025869731
    9          0.086881000000        -0.003103519845
   10        191.170000000000         0.001768356819
   11         22.517800000000         0.068697168702
   12         10.060400000000        -0.581966766606
   13          5.557620000000         0.387270143347
   14          2.696250000000         1.529601773656
   15          1.307640000000         0.995466640276
   16          0.530675000000        -1.926036197781
   17          0.222461000000        -3.162585234410
   18          0.086881000000        -1.382677659231
   19          0.695300000000         4.462730725838
   20          0.113500000000         3.874724722779
   21          0.042000000000        -0.433017990829
 D 10
    1        142.971000000000         0.000736003388
    2         41.305700000000         0.005372024732
    3         10.922200000000        -0.028827132716
    4          6.824080000000         0.119910552052
    5          3.666960000000         0.332465530626
    6          1.982890000000         0.389210791873
    7          1.053990000000         0.248360143416
    8          0.529903000000         0.077588024772
    9          0.219200000000         0.007416955992
   10          0.091700000000        -0.000055203546
 D 10
    1        142.971000000000         0.000107640611
    2         41.305700000000         0.000785659456
    3         10.922200000000        -0.004215972663
    4          6.824080000000         0.017536936969
    5          3.666960000000         0.048623135788
    6          1.982890000000         0.056922139110
    7          1.053990000000         0.036322709771
    8          0.529903000000        -0.151549770552
    9          0.219200000000         0.128261326660
   10          0.091700000000        -1.048352368325
 D 10
    1        142.971000000000         0.000197479089
    2         41.305700000000         0.001441382699
    3         10.922200000000        -0.007734687093
    4          6.824080000000         0.032173529305
    5          3.666960000000         0.089204738944
    6          1.982890000000         0.104430215722
    7          1.053990000000         0.066638191682
    8          0.529903000000         0.057771389406
    9          0.219200000000        -1.538706002548
   10          0.091700000000         1.095476482772
 D 10
    1        142.971000000000         0.000547292071
    2         41.305700000000         0.003994637236
    3         10.922200000000        -0.021435853981
    4          6.824080000000         0.089165478576
    5          3.666960000000         0.247221346587
    6          1.982890000000         0.289417119098
    7          1.053990000000         0.184680586220
    8          0.529903000000        -1.928031770538
    9          0.219200000000         1.780291604009
   10          0.091700000000        -0.667963792642
 F 2
    1          0.477900000000        -0.107642766418
    2          0.228700000000         1.077225389681
 F 2
    1          0.477900000000         1.486944525914
    2          0.228700000000        -1.030619448747
 end
  // -----------------------------------------------
  // The basis set
  // -----------------------------------------------
  BAS[ATNO] = new BFNGauss[NSH];
  // Basis function   1 L = s
  InitBFNGauss(BAS[ATNO][  0]);
  BAS[ATNO][  0].l  = 0;
  BAS[ATNO][  0].ng = 22;
  BAS[ATNO][  0].a[  0] =      6456.400000000000;     BAS[ATNO][  0].d[  0] =         0.000250007200;
  BAS[ATNO][  0].a[  1] =       974.061000000000;     BAS[ATNO][  0].d[  1] =         0.001630046944;
  BAS[ATNO][  0].a[  2] =       214.429000000000;     BAS[ATNO][  0].d[  2] =         0.004733136311;
  BAS[ATNO][  0].a[  3] =        31.330800000000;     BAS[ATNO][  0].d[  3] =        -0.033699970535;
  BAS[ATNO][  0].a[  4] =        19.613000000000;     BAS[ATNO][  0].d[  4] =         0.243938025238;
  BAS[ATNO][  0].a[  5] =         8.886090000000;     BAS[ATNO][  0].d[  5] =        -0.764675022085;
  BAS[ATNO][  0].a[  6] =         2.325080000000;     BAS[ATNO][  0].d[  6] =         0.900819942960;
  BAS[ATNO][  0].a[  7] =         1.184220000000;     BAS[ATNO][  0].d[  7] =         0.441525715620;
  BAS[ATNO][  0].a[  8] =         0.092178000000;     BAS[ATNO][  0].d[  8] =         0.000851024509;
  BAS[ATNO][  0].a[  9] =      6456.400000000000;     BAS[ATNO][  0].d[  9] =        -0.000000013923;
  BAS[ATNO][  0].a[ 10] =       974.061000000000;     BAS[ATNO][  0].d[ 10] =        -0.000000094785;
  BAS[ATNO][  0].a[ 11] =       214.429000000000;     BAS[ATNO][  0].d[ 11] =        -0.000000252547;
  BAS[ATNO][  0].a[ 12] =        31.330800000000;     BAS[ATNO][  0].d[ 12] =         0.000000780882;
  BAS[ATNO][  0].a[ 13] =        19.613000000000;     BAS[ATNO][  0].d[ 13] =        -0.000009921841;
  BAS[ATNO][  0].a[ 14] =         8.886090000000;     BAS[ATNO][  0].d[ 14] =         0.000037892226;
  BAS[ATNO][  0].a[ 15] =         2.325080000000;     BAS[ATNO][  0].d[ 15] =        -0.000065956753;
  BAS[ATNO][  0].a[ 16] =         1.184220000000;     BAS[ATNO][  0].d[ 16] =        -0.000044239638;
  BAS[ATNO][  0].a[ 17] =         0.092178000000;     BAS[ATNO][  0].d[ 17] =         0.000015244607;
  BAS[ATNO][  0].a[ 18] =         0.426854000000;     BAS[ATNO][  0].d[ 18] =         0.021785135236;
  BAS[ATNO][  0].a[ 19] =         0.201645000000;     BAS[ATNO][  0].d[ 19] =        -0.004036517534;
  BAS[ATNO][  0].a[ 20] =         0.114300000000;     BAS[ATNO][  0].d[ 20] =         0.000912086757;
  BAS[ATNO][  0].a[ 21] =         0.047600000000;     BAS[ATNO][  0].d[ 21] =        -0.000323389565;

  // Basis function   2 L = s
  InitBFNGauss(BAS[ATNO][  1]);
  BAS[ATNO][  1].l  = 0;
  BAS[ATNO][  1].ng = 21;
  BAS[ATNO][  1].a[  0] =      6456.400000000000;     BAS[ATNO][  1].d[  0] =         0.000000003041;
  BAS[ATNO][  1].a[  1] =       974.061000000000;     BAS[ATNO][  1].d[  1] =         0.000000019826;
  BAS[ATNO][  1].a[  2] =       214.429000000000;     BAS[ATNO][  1].d[  2] =         0.000000057569;
  BAS[ATNO][  1].a[  3] =        31.330800000000;     BAS[ATNO][  1].d[  3] =        -0.000000409889;
  BAS[ATNO][  1].a[  4] =        19.613000000000;     BAS[ATNO][  1].d[  4] =         0.000002966994;
  BAS[ATNO][  1].a[  5] =         8.886090000000;     BAS[ATNO][  1].d[  5] =        -0.000009300667;
  BAS[ATNO][  1].a[  6] =         2.325080000000;     BAS[ATNO][  1].d[  6] =         0.000010956585;
  BAS[ATNO][  1].a[  7] =         1.184220000000;     BAS[ATNO][  1].d[  7] =         0.000005370234;
  BAS[ATNO][  1].a[  8] =      6456.400000000000;     BAS[ATNO][  1].d[  8] =        -0.000130009123;
  BAS[ATNO][  1].a[  9] =       974.061000000000;     BAS[ATNO][  1].d[  9] =        -0.000885062107;
  BAS[ATNO][  1].a[ 10] =       214.429000000000;     BAS[ATNO][  1].d[ 10] =        -0.002358165478;
  BAS[ATNO][  1].a[ 11] =        31.330800000000;     BAS[ATNO][  1].d[ 11] =         0.007291511662;
  BAS[ATNO][  1].a[ 12] =        19.613000000000;     BAS[ATNO][  1].d[ 12] =        -0.092645501141;
  BAS[ATNO][  1].a[ 13] =         8.886090000000;     BAS[ATNO][  1].d[ 13] =         0.353819828324;
  BAS[ATNO][  1].a[ 14] =         2.325080000000;     BAS[ATNO][  1].d[ 14] =        -0.615873217193;
  BAS[ATNO][  1].a[ 15] =         1.184220000000;     BAS[ATNO][  1].d[ 15] =        -0.413088987373;
  BAS[ATNO][  1].a[ 16] =         0.092178000000;     BAS[ATNO][  1].d[ 16] =         0.142346988805;
  BAS[ATNO][  1].a[ 17] =         0.426854000000;     BAS[ATNO][  1].d[ 17] =         0.579371866219;
  BAS[ATNO][  1].a[ 18] =         0.201645000000;     BAS[ATNO][  1].d[ 18] =         0.625767175729;
  BAS[ATNO][  1].a[ 19] =         0.114300000000;     BAS[ATNO][  1].d[ 19] =        -0.000518637707;
  BAS[ATNO][  1].a[ 20] =         0.047600000000;     BAS[ATNO][  1].d[ 20] =         0.000228917610;

  // Basis function   3 L = s
  InitBFNGauss(BAS[ATNO][  2]);
  BAS[ATNO][  2].l  = 0;
  BAS[ATNO][  2].ng = 22;
  BAS[ATNO][  2].a[  0] =      6456.400000000000;     BAS[ATNO][  2].d[  0] =         0.000011214960;
  BAS[ATNO][  2].a[  1] =       974.061000000000;     BAS[ATNO][  2].d[  1] =         0.000073121537;
  BAS[ATNO][  2].a[  2] =       214.429000000000;     BAS[ATNO][  2].d[  2] =         0.000212321616;
  BAS[ATNO][  2].a[  3] =        31.330800000000;     BAS[ATNO][  2].d[  3] =        -0.001511731700;
  BAS[ATNO][  2].a[  4] =        19.613000000000;     BAS[ATNO][  2].d[  4] =         0.010942705285;
  BAS[ATNO][  2].a[  5] =         8.886090000000;     BAS[ATNO][  2].d[  5] =        -0.034302210152;
  BAS[ATNO][  2].a[  6] =         2.325080000000;     BAS[ATNO][  2].d[  6] =         0.040409473436;
  BAS[ATNO][  2].a[  7] =         1.184220000000;     BAS[ATNO][  2].d[  7] =         0.019806201912;
  BAS[ATNO][  2].a[  8] =         0.092178000000;     BAS[ATNO][  2].d[  8] =         0.000038175723;
  BAS[ATNO][  2].a[  9] =      6456.400000000000;     BAS[ATNO][  2].d[  9] =        -0.000050161664;
  BAS[ATNO][  2].a[ 10] =       974.061000000000;     BAS[ATNO][  2].d[ 10] =        -0.000341485172;
  BAS[ATNO][  2].a[ 11] =       214.429000000000;     BAS[ATNO][  2].d[ 11] =        -0.000909855409;
  BAS[ATNO][  2].a[ 12] =        31.330800000000;     BAS[ATNO][  2].d[ 12] =         0.002813297618;
  BAS[ATNO][  2].a[ 13] =        19.613000000000;     BAS[ATNO][  2].d[ 13] =        -0.035745587445;
  BAS[ATNO][  2].a[ 14] =         8.886090000000;     BAS[ATNO][  2].d[ 14] =         0.136514967888;
  BAS[ATNO][  2].a[ 15] =         2.325080000000;     BAS[ATNO][  2].d[ 15] =        -0.237623518349;
  BAS[ATNO][  2].a[ 16] =         1.184220000000;     BAS[ATNO][  2].d[ 16] =        -0.159382898672;
  BAS[ATNO][  2].a[ 17] =         0.092178000000;     BAS[ATNO][  2].d[ 17] =         0.054922005637;
  BAS[ATNO][  2].a[ 18] =         0.426854000000;     BAS[ATNO][  2].d[ 18] =         0.586560381712;
  BAS[ATNO][  2].a[ 19] =         0.201645000000;     BAS[ATNO][  2].d[ 19] =        -1.372309946602;
  BAS[ATNO][  2].a[ 20] =         0.114300000000;     BAS[ATNO][  2].d[ 20] =         2.725366608239;
  BAS[ATNO][  2].a[ 21] =         0.047600000000;     BAS[ATNO][  2].d[ 21] =        -2.349095063411;

  // Basis function   4 L = s
  InitBFNGauss(BAS[ATNO][  3]);
  BAS[ATNO][  3].l  = 0;
  BAS[ATNO][  3].ng = 22;
  BAS[ATNO][  3].a[  0] =      6456.400000000000;     BAS[ATNO][  3].d[  0] =         0.000006101921;
  BAS[ATNO][  3].a[  1] =       974.061000000000;     BAS[ATNO][  3].d[  1] =         0.000039784527;
  BAS[ATNO][  3].a[  2] =       214.429000000000;     BAS[ATNO][  3].d[  2] =         0.000115521573;
  BAS[ATNO][  3].a[  3] =        31.330800000000;     BAS[ATNO][  3].d[  3] =        -0.000822514579;
  BAS[ATNO][  3].a[  4] =        19.613000000000;     BAS[ATNO][  3].d[  4] =         0.005953791029;
  BAS[ATNO][  3].a[  5] =         8.886090000000;     BAS[ATNO][  3].d[  5] =        -0.018663409618;
  BAS[ATNO][  3].a[  6] =         2.325080000000;     BAS[ATNO][  3].d[  6] =         0.021986296272;
  BAS[ATNO][  3].a[  7] =         1.184220000000;     BAS[ATNO][  3].d[  7] =         0.010776310262;
  BAS[ATNO][  3].a[  8] =         0.092178000000;     BAS[ATNO][  3].d[  8] =         0.000020770940;
  BAS[ATNO][  3].a[  9] =      6456.400000000000;     BAS[ATNO][  3].d[  9] =         0.000055342846;
  BAS[ATNO][  3].a[ 10] =       974.061000000000;     BAS[ATNO][  3].d[ 10] =         0.000376757070;
  BAS[ATNO][  3].a[ 11] =       214.429000000000;     BAS[ATNO][  3].d[ 11] =         0.001003834091;
  BAS[ATNO][  3].a[ 12] =        31.330800000000;     BAS[ATNO][  3].d[ 12] =        -0.003103882254;
  BAS[ATNO][  3].a[ 13] =        19.613000000000;     BAS[ATNO][  3].d[ 13] =         0.039437738055;
  BAS[ATNO][  3].a[ 14] =         8.886090000000;     BAS[ATNO][  3].d[ 14] =        -0.150615556465;
  BAS[ATNO][  3].a[ 15] =         2.325080000000;     BAS[ATNO][  3].d[ 15] =         0.262167577658;
  BAS[ATNO][  3].a[ 16] =         1.184220000000;     BAS[ATNO][  3].d[ 16] =         0.175845508708;
  BAS[ATNO][  3].a[ 17] =         0.092178000000;     BAS[ATNO][  3].d[ 17] =        -0.060594882518;
  BAS[ATNO][  3].a[ 18] =         0.426854000000;     BAS[ATNO][  3].d[ 18] =         0.994327680597;
  BAS[ATNO][  3].a[ 19] =         0.201645000000;     BAS[ATNO][  3].d[ 19] =        -6.890946436443;
  BAS[ATNO][  3].a[ 20] =         0.114300000000;     BAS[ATNO][  3].d[ 20] =         8.125241133476;
  BAS[ATNO][  3].a[ 21] =         0.047600000000;     BAS[ATNO][  3].d[ 21] =        -2.495910198582;

  // Basis function   5 L = s
  InitBFNGauss(BAS[ATNO][  4]);
  BAS[ATNO][  4].l  = 0;
  BAS[ATNO][  4].ng = 22;
  BAS[ATNO][  4].a[  0] =      6456.400000000000;     BAS[ATNO][  4].d[  0] =        -0.000169832270;
  BAS[ATNO][  4].a[  1] =       974.061000000000;     BAS[ATNO][  4].d[  1] =        -0.001107306402;
  BAS[ATNO][  4].a[  2] =       214.429000000000;     BAS[ATNO][  4].d[  2] =        -0.003215264539;
  BAS[ATNO][  4].a[  3] =        31.330800000000;     BAS[ATNO][  4].d[  3] =         0.022892710693;
  BAS[ATNO][  4].a[  4] =        19.613000000000;     BAS[ATNO][  4].d[  4] =        -0.165709422004;
  BAS[ATNO][  4].a[  5] =         8.886090000000;     BAS[ATNO][  4].d[  5] =         0.519451019607;
  BAS[ATNO][  4].a[  6] =         2.325080000000;     BAS[ATNO][  4].d[  6] =        -0.611935559993;
  BAS[ATNO][  4].a[  7] =         1.184220000000;     BAS[ATNO][  4].d[  7] =        -0.299932620443;
  BAS[ATNO][  4].a[  8] =         0.092178000000;     BAS[ATNO][  4].d[  8] =        -0.000578109048;
  BAS[ATNO][  4].a[  9] =      6456.400000000000;     BAS[ATNO][  4].d[  9] =         0.000377677339;
  BAS[ATNO][  4].a[ 10] =       974.061000000000;     BAS[ATNO][  4].d[ 10] =         0.002571111117;
  BAS[ATNO][  4].a[ 11] =       214.429000000000;     BAS[ATNO][  4].d[ 11] =         0.006850485890;
  BAS[ATNO][  4].a[ 12] =        31.330800000000;     BAS[ATNO][  4].d[ 12] =        -0.021181888307;
  BAS[ATNO][  4].a[ 13] =        19.613000000000;     BAS[ATNO][  4].d[ 13] =         0.269135777102;
  BAS[ATNO][  4].a[ 14] =         8.886090000000;     BAS[ATNO][  4].d[ 14] =        -1.027848878549;
  BAS[ATNO][  4].a[ 15] =         2.325080000000;     BAS[ATNO][  4].d[ 15] =         1.789115659851;
  BAS[ATNO][  4].a[ 16] =         1.184220000000;     BAS[ATNO][  4].d[ 16] =         1.200026167056;
  BAS[ATNO][  4].a[ 17] =         0.092178000000;     BAS[ATNO][  4].d[ 17] =        -0.413518918656;
  BAS[ATNO][  4].a[ 18] =         0.426854000000;     BAS[ATNO][  4].d[ 18] =        -7.049827318865;
  BAS[ATNO][  4].a[ 19] =         0.201645000000;     BAS[ATNO][  4].d[ 19] =        11.855568677002;
  BAS[ATNO][  4].a[ 20] =         0.114300000000;     BAS[ATNO][  4].d[ 20] =        -7.549586590305;
  BAS[ATNO][  4].a[ 21] =         0.047600000000;     BAS[ATNO][  4].d[ 21] =         1.642170221115;

  // Basis function   6 L = s
  InitBFNGauss(BAS[ATNO][  5]);
  BAS[ATNO][  5].l  = 0;
  BAS[ATNO][  5].ng = 22;
  BAS[ATNO][  5].a[  0] =      6456.400000000000;     BAS[ATNO][  5].d[  0] =         0.001577002846;
  BAS[ATNO][  5].a[  1] =       974.061000000000;     BAS[ATNO][  5].d[  1] =         0.010282058554;
  BAS[ATNO][  5].a[  2] =       214.429000000000;     BAS[ATNO][  5].d[  2] =         0.029855817874;
  BAS[ATNO][  5].a[  3] =        31.330800000000;     BAS[ATNO][  5].d[  3] =        -0.212573675583;
  BAS[ATNO][  5].a[  4] =        19.613000000000;     BAS[ATNO][  5].d[  4] =         1.538719524574;
  BAS[ATNO][  5].a[  5] =         8.886090000000;     BAS[ATNO][  5].d[  5] =        -4.823439827756;
  BAS[ATNO][  5].a[  6] =         2.325080000000;     BAS[ATNO][  5].d[  6] =         5.682218805398;
  BAS[ATNO][  5].a[  7] =         1.184220000000;     BAS[ATNO][  5].d[  7] =         2.785069029576;
  BAS[ATNO][  5].a[  8] =         0.092178000000;     BAS[ATNO][  5].d[  8] =         0.005368117687;
  BAS[ATNO][  5].a[  9] =      6456.400000000000;     BAS[ATNO][  5].d[  9] =        -0.000933606898;
  BAS[ATNO][  5].a[ 10] =       974.061000000000;     BAS[ATNO][  5].d[ 10] =        -0.006355708501;
  BAS[ATNO][  5].a[ 11] =       214.429000000000;     BAS[ATNO][  5].d[ 11] =        -0.016934192819;
  BAS[ATNO][  5].a[ 12] =        31.330800000000;     BAS[ATNO][  5].d[ 12] =         0.052360983819;
  BAS[ATNO][  5].a[ 13] =        19.613000000000;     BAS[ATNO][  5].d[ 13] =        -0.665295457420;
  BAS[ATNO][  5].a[ 14] =         8.886090000000;     BAS[ATNO][  5].d[ 14] =         2.540811174104;
  BAS[ATNO][  5].a[ 15] =         2.325080000000;     BAS[ATNO][  5].d[ 15] =        -4.422639509740;
  BAS[ATNO][  5].a[ 16] =         1.184220000000;     BAS[ATNO][  5].d[ 16] =        -2.966428195919;
  BAS[ATNO][  5].a[ 17] =         0.092178000000;     BAS[ATNO][  5].d[ 17] =         1.022206193102;
  BAS[ATNO][  5].a[ 18] =         0.426854000000;     BAS[ATNO][  5].d[ 18] =        -0.950171636295;
  BAS[ATNO][  5].a[ 19] =         0.201645000000;     BAS[ATNO][  5].d[ 19] =         1.627425787956;
  BAS[ATNO][  5].a[ 20] =         0.114300000000;     BAS[ATNO][  5].d[ 20] =        -2.007085323342;
  BAS[ATNO][  5].a[ 21] =         0.047600000000;     BAS[ATNO][  5].d[ 21] =         0.039751160709;

  // Basis function   7 L = p
  InitBFNGauss(BAS[ATNO][  6]);
  BAS[ATNO][  6].l  = 1;
  BAS[ATNO][  6].ng = 21;
  BAS[ATNO][  6].a[  0] =       191.170000000000;     BAS[ATNO][  6].d[  0] =         0.000764580868;
  BAS[ATNO][  6].a[  1] =        22.517800000000;     BAS[ATNO][  6].d[  1] =         0.036931754540;
  BAS[ATNO][  6].a[  2] =        10.060400000000;     BAS[ATNO][  6].d[  2] =        -0.280534215150;
  BAS[ATNO][  6].a[  3] =         5.557620000000;     BAS[ATNO][  6].d[  3] =         0.142638807443;
  BAS[ATNO][  6].a[  4] =         2.696250000000;     BAS[ATNO][  6].d[  4] =         0.635305734470;
  BAS[ATNO][  6].a[  5] =         1.307640000000;     BAS[ATNO][  6].d[  5] =         0.393041540241;
  BAS[ATNO][  6].a[  6] =         0.530675000000;     BAS[ATNO][  6].d[  6] =         0.041033506018;
  BAS[ATNO][  6].a[  7] =         0.222461000000;     BAS[ATNO][  6].d[  7] =        -0.002249766710;
  BAS[ATNO][  6].a[  8] =         0.086881000000;     BAS[ATNO][  6].d[  8] =         0.000773575937;
  BAS[ATNO][  6].a[  9] =       191.170000000000;     BAS[ATNO][  6].d[  9] =         0.000000304788;
  BAS[ATNO][  6].a[ 10] =        22.517800000000;     BAS[ATNO][  6].d[ 10] =         0.000011840423;
  BAS[ATNO][  6].a[ 11] =        10.060400000000;     BAS[ATNO][  6].d[ 11] =        -0.000100305918;
  BAS[ATNO][  6].a[ 12] =         5.557620000000;     BAS[ATNO][  6].d[ 12] =         0.000066748635;
  BAS[ATNO][  6].a[ 13] =         2.696250000000;     BAS[ATNO][  6].d[ 13] =         0.000263637236;
  BAS[ATNO][  6].a[ 14] =         1.307640000000;     BAS[ATNO][  6].d[ 14] =         0.000171575424;
  BAS[ATNO][  6].a[ 15] =         0.530675000000;     BAS[ATNO][  6].d[ 15] =        -0.000331965396;
  BAS[ATNO][  6].a[ 16] =         0.222461000000;     BAS[ATNO][  6].d[ 16] =        -0.000545093006;
  BAS[ATNO][  6].a[ 17] =         0.086881000000;     BAS[ATNO][  6].d[ 17] =        -0.000238313868;
  BAS[ATNO][  6].a[ 18] =         0.695300000000;     BAS[ATNO][  6].d[ 18] =         0.000533278035;
  BAS[ATNO][  6].a[ 19] =         0.113500000000;     BAS[ATNO][  6].d[ 19] =         0.000974296417;
  BAS[ATNO][  6].a[ 20] =         0.042000000000;     BAS[ATNO][  6].d[ 20] =        -0.000358150971;

  // Basis function   8 L = p
  InitBFNGauss(BAS[ATNO][  7]);
  BAS[ATNO][  7].l  = 1;
  BAS[ATNO][  7].ng = 20;
  BAS[ATNO][  7].a[  0] =       191.170000000000;     BAS[ATNO][  7].d[  0] =         0.000000382262;
  BAS[ATNO][  7].a[  1] =        22.517800000000;     BAS[ATNO][  7].d[  1] =         0.000018464522;
  BAS[ATNO][  7].a[  2] =        10.060400000000;     BAS[ATNO][  7].d[  2] =        -0.000140256813;
  BAS[ATNO][  7].a[  3] =         5.557620000000;     BAS[ATNO][  7].d[  3] =         0.000071314169;
  BAS[ATNO][  7].a[  4] =         2.696250000000;     BAS[ATNO][  7].d[  4] =         0.000317629553;
  BAS[ATNO][  7].a[  5] =         1.307640000000;     BAS[ATNO][  7].d[  5] =         0.000196506347;
  BAS[ATNO][  7].a[  6] =         0.530675000000;     BAS[ATNO][  7].d[  6] =         0.000020515247;
  BAS[ATNO][  7].a[  7] =         0.222461000000;     BAS[ATNO][  7].d[  7] =        -0.000001124801;
  BAS[ATNO][  7].a[  8] =       191.170000000000;     BAS[ATNO][  7].d[  8] =        -0.000329324188;
  BAS[ATNO][  7].a[  9] =        22.517800000000;     BAS[ATNO][  7].d[  9] =        -0.012793594081;
  BAS[ATNO][  7].a[ 10] =        10.060400000000;     BAS[ATNO][  7].d[ 10] =         0.108380690517;
  BAS[ATNO][  7].a[ 11] =         5.557620000000;     BAS[ATNO][  7].d[ 11] =        -0.072121997270;
  BAS[ATNO][  7].a[ 12] =         2.696250000000;     BAS[ATNO][  7].d[ 12] =        -0.284860418081;
  BAS[ATNO][  7].a[ 13] =         1.307640000000;     BAS[ATNO][  7].d[ 13] =        -0.185387496418;
  BAS[ATNO][  7].a[ 14] =         0.530675000000;     BAS[ATNO][  7].d[ 14] =         0.358689095415;
  BAS[ATNO][  7].a[ 15] =         0.222461000000;     BAS[ATNO][  7].d[ 15] =         0.588973788868;
  BAS[ATNO][  7].a[ 16] =         0.086881000000;     BAS[ATNO][  7].d[ 16] =         0.257498482849;
  BAS[ATNO][  7].a[ 17] =         0.695300000000;     BAS[ATNO][  7].d[ 17] =        -0.000323443211;
  BAS[ATNO][  7].a[ 18] =         0.113500000000;     BAS[ATNO][  7].d[ 18] =        -0.002181700879;
  BAS[ATNO][  7].a[ 19] =         0.042000000000;     BAS[ATNO][  7].d[ 19] =         0.002026365388;

  // Basis function   9 L = p
  InitBFNGauss(BAS[ATNO][  8]);
  BAS[ATNO][  8].l  = 1;
  BAS[ATNO][  8].ng = 21;
  BAS[ATNO][  8].a[  0] =       191.170000000000;     BAS[ATNO][  8].d[  0] =         0.000094692110;
  BAS[ATNO][  8].a[  1] =        22.517800000000;     BAS[ATNO][  8].d[  1] =         0.004573938387;
  BAS[ATNO][  8].a[  2] =        10.060400000000;     BAS[ATNO][  8].d[  2] =        -0.034743711247;
  BAS[ATNO][  8].a[  3] =         5.557620000000;     BAS[ATNO][  8].d[  3] =         0.017665586837;
  BAS[ATNO][  8].a[  4] =         2.696250000000;     BAS[ATNO][  8].d[  4] =         0.078681593189;
  BAS[ATNO][  8].a[  5] =         1.307640000000;     BAS[ATNO][  8].d[  5] =         0.048677562468;
  BAS[ATNO][  8].a[  6] =         0.530675000000;     BAS[ATNO][  8].d[  6] =         0.005081933709;
  BAS[ATNO][  8].a[  7] =         0.222461000000;     BAS[ATNO][  8].d[  7] =        -0.000278629988;
  BAS[ATNO][  8].a[  8] =         0.086881000000;     BAS[ATNO][  8].d[  8] =         0.000095806135;
  BAS[ATNO][  8].a[  9] =       191.170000000000;     BAS[ATNO][  8].d[  9] =         0.000010620824;
  BAS[ATNO][  8].a[ 10] =        22.517800000000;     BAS[ATNO][  8].d[ 10] =         0.000412598048;
  BAS[ATNO][  8].a[ 11] =        10.060400000000;     BAS[ATNO][  8].d[ 11] =        -0.003495316563;
  BAS[ATNO][  8].a[ 12] =         5.557620000000;     BAS[ATNO][  8].d[ 12] =         0.002325960560;
  BAS[ATNO][  8].a[ 13] =         2.696250000000;     BAS[ATNO][  8].d[ 13] =         0.009186851761;
  BAS[ATNO][  8].a[ 14] =         1.307640000000;     BAS[ATNO][  8].d[ 14] =         0.005978813973;
  BAS[ATNO][  8].a[ 15] =         0.530675000000;     BAS[ATNO][  8].d[ 15] =        -0.011567853373;
  BAS[ATNO][  8].a[ 16] =         0.222461000000;     BAS[ATNO][  8].d[ 16] =        -0.018994618228;
  BAS[ATNO][  8].a[ 17] =         0.086881000000;     BAS[ATNO][  8].d[ 17] =        -0.008304419430;
  BAS[ATNO][  8].a[ 18] =         0.695300000000;     BAS[ATNO][  8].d[ 18] =        -0.093409101868;
  BAS[ATNO][  8].a[ 19] =         0.113500000000;     BAS[ATNO][  8].d[ 19] =        -0.784214779847;
  BAS[ATNO][  8].a[ 20] =         0.042000000000;     BAS[ATNO][  8].d[ 20] =         1.426689912729;

  // Basis function  10 L = p
  InitBFNGauss(BAS[ATNO][  9]);
  BAS[ATNO][  9].l  = 1;
  BAS[ATNO][  9].ng = 21;
  BAS[ATNO][  9].a[  0] =       191.170000000000;     BAS[ATNO][  9].d[  0] =        -0.000657406114;
  BAS[ATNO][  9].a[  1] =        22.517800000000;     BAS[ATNO][  9].d[  1] =        -0.031754863715;
  BAS[ATNO][  9].a[  2] =        10.060400000000;     BAS[ATNO][  9].d[  2] =         0.241210467268;
  BAS[ATNO][  9].a[  3] =         5.557620000000;     BAS[ATNO][  9].d[  3] =        -0.122644481620;
  BAS[ATNO][  9].a[  4] =         2.696250000000;     BAS[ATNO][  9].d[  4] =        -0.546252060511;
  BAS[ATNO][  9].a[  5] =         1.307640000000;     BAS[ATNO][  9].d[  5] =        -0.337947132497;
  BAS[ATNO][  9].a[  6] =         0.530675000000;     BAS[ATNO][  9].d[  6] =        -0.035281654165;
  BAS[ATNO][  9].a[  7] =         0.222461000000;     BAS[ATNO][  9].d[  7] =         0.001934406750;
  BAS[ATNO][  9].a[  8] =         0.086881000000;     BAS[ATNO][  9].d[  8] =        -0.000665140304;
  BAS[ATNO][  9].a[  9] =       191.170000000000;     BAS[ATNO][  9].d[  9] =         0.000896541908;
  BAS[ATNO][  9].a[ 10] =        22.517800000000;     BAS[ATNO][  9].d[ 10] =         0.034828881849;
  BAS[ATNO][  9].a[ 11] =        10.060400000000;     BAS[ATNO][  9].d[ 11] =        -0.295052214486;
  BAS[ATNO][  9].a[ 12] =         5.557620000000;     BAS[ATNO][  9].d[ 12] =         0.196342677891;
  BAS[ATNO][  9].a[ 13] =         2.696250000000;     BAS[ATNO][  9].d[ 13] =         0.775495125317;
  BAS[ATNO][  9].a[ 14] =         1.307640000000;     BAS[ATNO][  9].d[ 14] =         0.504693143173;
  BAS[ATNO][  9].a[ 15] =         0.530675000000;     BAS[ATNO][  9].d[ 15] =        -0.976484015832;
  BAS[ATNO][  9].a[ 16] =         0.222461000000;     BAS[ATNO][  9].d[ 16] =        -1.603403889120;
  BAS[ATNO][  9].a[ 17] =         0.086881000000;     BAS[ATNO][  9].d[ 17] =        -0.701005845499;
  BAS[ATNO][  9].a[ 18] =         0.695300000000;     BAS[ATNO][  9].d[ 18] =         0.447574203629;
  BAS[ATNO][  9].a[ 19] =         0.113500000000;     BAS[ATNO][  9].d[ 19] =         3.403765700664;
  BAS[ATNO][  9].a[ 20] =         0.042000000000;     BAS[ATNO][  9].d[ 20] =        -0.895444246109;

  // Basis function  11 L = p
  InitBFNGauss(BAS[ATNO][ 10]);
  BAS[ATNO][ 10].l  = 1;
  BAS[ATNO][ 10].ng = 21;
  BAS[ATNO][ 10].a[  0] =       191.170000000000;     BAS[ATNO][ 10].d[  0] =        -0.003067432405;
  BAS[ATNO][ 10].a[  1] =        22.517800000000;     BAS[ATNO][ 10].d[  1] =        -0.148167009455;
  BAS[ATNO][ 10].a[  2] =        10.060400000000;     BAS[ATNO][ 10].d[  2] =         1.125479041724;
  BAS[ATNO][ 10].a[  3] =         5.557620000000;     BAS[ATNO][ 10].d[  3] =        -0.572254575891;
  BAS[ATNO][ 10].a[  4] =         2.696250000000;     BAS[ATNO][ 10].d[  4] =        -2.548791735977;
  BAS[ATNO][ 10].a[  5] =         1.307640000000;     BAS[ATNO][ 10].d[  5] =        -1.576848712846;
  BAS[ATNO][ 10].a[  6] =         0.530675000000;     BAS[ATNO][ 10].d[  6] =        -0.164622882122;
  BAS[ATNO][ 10].a[  7] =         0.222461000000;     BAS[ATNO][ 10].d[  7] =         0.009025869731;
  BAS[ATNO][ 10].a[  8] =         0.086881000000;     BAS[ATNO][ 10].d[  8] =        -0.003103519845;
  BAS[ATNO][ 10].a[  9] =       191.170000000000;     BAS[ATNO][ 10].d[  9] =         0.001768356819;
  BAS[ATNO][ 10].a[ 10] =        22.517800000000;     BAS[ATNO][ 10].d[ 10] =         0.068697168702;
  BAS[ATNO][ 10].a[ 11] =        10.060400000000;     BAS[ATNO][ 10].d[ 11] =        -0.581966766606;
  BAS[ATNO][ 10].a[ 12] =         5.557620000000;     BAS[ATNO][ 10].d[ 12] =         0.387270143347;
  BAS[ATNO][ 10].a[ 13] =         2.696250000000;     BAS[ATNO][ 10].d[ 13] =         1.529601773656;
  BAS[ATNO][ 10].a[ 14] =         1.307640000000;     BAS[ATNO][ 10].d[ 14] =         0.995466640276;
  BAS[ATNO][ 10].a[ 15] =         0.530675000000;     BAS[ATNO][ 10].d[ 15] =        -1.926036197781;
  BAS[ATNO][ 10].a[ 16] =         0.222461000000;     BAS[ATNO][ 10].d[ 16] =        -3.162585234410;
  BAS[ATNO][ 10].a[ 17] =         0.086881000000;     BAS[ATNO][ 10].d[ 17] =        -1.382677659231;
  BAS[ATNO][ 10].a[ 18] =         0.695300000000;     BAS[ATNO][ 10].d[ 18] =         4.462730725838;
  BAS[ATNO][ 10].a[ 19] =         0.113500000000;     BAS[ATNO][ 10].d[ 19] =         3.874724722779;
  BAS[ATNO][ 10].a[ 20] =         0.042000000000;     BAS[ATNO][ 10].d[ 20] =        -0.433017990829;

  // Basis function  12 L = d
  InitBFNGauss(BAS[ATNO][ 11]);
  BAS[ATNO][ 11].l  = 2;
  BAS[ATNO][ 11].ng = 10;
  BAS[ATNO][ 11].a[  0] =       142.971000000000;     BAS[ATNO][ 11].d[  0] =         0.000736003388;
  BAS[ATNO][ 11].a[  1] =        41.305700000000;     BAS[ATNO][ 11].d[  1] =         0.005372024732;
  BAS[ATNO][ 11].a[  2] =        10.922200000000;     BAS[ATNO][ 11].d[  2] =        -0.028827132716;
  BAS[ATNO][ 11].a[  3] =         6.824080000000;     BAS[ATNO][ 11].d[  3] =         0.119910552052;
  BAS[ATNO][ 11].a[  4] =         3.666960000000;     BAS[ATNO][ 11].d[  4] =         0.332465530626;
  BAS[ATNO][ 11].a[  5] =         1.982890000000;     BAS[ATNO][ 11].d[  5] =         0.389210791873;
  BAS[ATNO][ 11].a[  6] =         1.053990000000;     BAS[ATNO][ 11].d[  6] =         0.248360143416;
  BAS[ATNO][ 11].a[  7] =         0.529903000000;     BAS[ATNO][ 11].d[  7] =         0.077588024772;
  BAS[ATNO][ 11].a[  8] =         0.219200000000;     BAS[ATNO][ 11].d[  8] =         0.007416955992;
  BAS[ATNO][ 11].a[  9] =         0.091700000000;     BAS[ATNO][ 11].d[  9] =        -0.000055203546;

  // Basis function  13 L = d
  InitBFNGauss(BAS[ATNO][ 12]);
  BAS[ATNO][ 12].l  = 2;
  BAS[ATNO][ 12].ng = 10;
  BAS[ATNO][ 12].a[  0] =       142.971000000000;     BAS[ATNO][ 12].d[  0] =        -0.000107640611;
  BAS[ATNO][ 12].a[  1] =        41.305700000000;     BAS[ATNO][ 12].d[  1] =        -0.000785659456;
  BAS[ATNO][ 12].a[  2] =        10.922200000000;     BAS[ATNO][ 12].d[  2] =         0.004215972663;
  BAS[ATNO][ 12].a[  3] =         6.824080000000;     BAS[ATNO][ 12].d[  3] =        -0.017536936969;
  BAS[ATNO][ 12].a[  4] =         3.666960000000;     BAS[ATNO][ 12].d[  4] =        -0.048623135788;
  BAS[ATNO][ 12].a[  5] =         1.982890000000;     BAS[ATNO][ 12].d[  5] =        -0.056922139110;
  BAS[ATNO][ 12].a[  6] =         1.053990000000;     BAS[ATNO][ 12].d[  6] =        -0.036322709771;
  BAS[ATNO][ 12].a[  7] =         0.529903000000;     BAS[ATNO][ 12].d[  7] =         0.151549770552;
  BAS[ATNO][ 12].a[  8] =         0.219200000000;     BAS[ATNO][ 12].d[  8] =        -0.128261326660;
  BAS[ATNO][ 12].a[  9] =         0.091700000000;     BAS[ATNO][ 12].d[  9] =         1.048352368325;

  // Basis function  14 L = d
  InitBFNGauss(BAS[ATNO][ 13]);
  BAS[ATNO][ 13].l  = 2;
  BAS[ATNO][ 13].ng = 10;
  BAS[ATNO][ 13].a[  0] =       142.971000000000;     BAS[ATNO][ 13].d[  0] =        -0.000197479089;
  BAS[ATNO][ 13].a[  1] =        41.305700000000;     BAS[ATNO][ 13].d[  1] =        -0.001441382699;
  BAS[ATNO][ 13].a[  2] =        10.922200000000;     BAS[ATNO][ 13].d[  2] =         0.007734687093;
  BAS[ATNO][ 13].a[  3] =         6.824080000000;     BAS[ATNO][ 13].d[  3] =        -0.032173529305;
  BAS[ATNO][ 13].a[  4] =         3.666960000000;     BAS[ATNO][ 13].d[  4] =        -0.089204738944;
  BAS[ATNO][ 13].a[  5] =         1.982890000000;     BAS[ATNO][ 13].d[  5] =        -0.104430215722;
  BAS[ATNO][ 13].a[  6] =         1.053990000000;     BAS[ATNO][ 13].d[  6] =        -0.066638191682;
  BAS[ATNO][ 13].a[  7] =         0.529903000000;     BAS[ATNO][ 13].d[  7] =        -0.057771389406;
  BAS[ATNO][ 13].a[  8] =         0.219200000000;     BAS[ATNO][ 13].d[  8] =         1.538706002548;
  BAS[ATNO][ 13].a[  9] =         0.091700000000;     BAS[ATNO][ 13].d[  9] =        -1.095476482772;

  // Basis function  15 L = d
  InitBFNGauss(BAS[ATNO][ 14]);
  BAS[ATNO][ 14].l  = 2;
  BAS[ATNO][ 14].ng = 10;
  BAS[ATNO][ 14].a[  0] =       142.971000000000;     BAS[ATNO][ 14].d[  0] =        -0.000547292071;
  BAS[ATNO][ 14].a[  1] =        41.305700000000;     BAS[ATNO][ 14].d[  1] =        -0.003994637236;
  BAS[ATNO][ 14].a[  2] =        10.922200000000;     BAS[ATNO][ 14].d[  2] =         0.021435853981;
  BAS[ATNO][ 14].a[  3] =         6.824080000000;     BAS[ATNO][ 14].d[  3] =        -0.089165478576;
  BAS[ATNO][ 14].a[  4] =         3.666960000000;     BAS[ATNO][ 14].d[  4] =        -0.247221346587;
  BAS[ATNO][ 14].a[  5] =         1.982890000000;     BAS[ATNO][ 14].d[  5] =        -0.289417119098;
  BAS[ATNO][ 14].a[  6] =         1.053990000000;     BAS[ATNO][ 14].d[  6] =        -0.184680586220;
  BAS[ATNO][ 14].a[  7] =         0.529903000000;     BAS[ATNO][ 14].d[  7] =         1.928031770538;
  BAS[ATNO][ 14].a[  8] =         0.219200000000;     BAS[ATNO][ 14].d[  8] =        -1.780291604009;
  BAS[ATNO][ 14].a[  9] =         0.091700000000;     BAS[ATNO][ 14].d[  9] =         0.667963792642;

  // Basis function  16 L = f
  InitBFNGauss(BAS[ATNO][ 15]);
  BAS[ATNO][ 15].l  = 3;
  BAS[ATNO][ 15].ng = 2;
  BAS[ATNO][ 15].a[  0] =         0.477900000000;     BAS[ATNO][ 15].d[  0] =        -0.107642766418;
  BAS[ATNO][ 15].a[  1] =         0.228700000000;     BAS[ATNO][ 15].d[  1] =         1.077225389681;

  // Basis function  17 L = f
  InitBFNGauss(BAS[ATNO][ 16]);
  BAS[ATNO][ 16].l  = 3;
  BAS[ATNO][ 16].ng = 2;
  BAS[ATNO][ 16].a[  0] =         0.477900000000;     BAS[ATNO][ 16].d[  0] =         1.486944525914;
  BAS[ATNO][ 16].a[  1] =         0.228700000000;     BAS[ATNO][ 16].d[  1] =        -1.030619448747;

-------------------------------------------
RADIAL EXPECTATION VALUES <R**-3> TO <R**3>
-------------------------------------------
   0 :     0.000000     2.564137     1.495129     0.734129     0.588978     0.515287
   1 :     0.000000     0.558189     0.626993     1.905391     4.108247     9.862701
   2 :     0.000000     0.069111     0.209701     5.445294    31.697924   194.170722
   3 :     0.000000     0.164209     0.310060     4.255369    21.850703   129.245182
   4 :     0.000000     0.676715     0.597281     2.675034    10.228970    51.079041
   5 :     0.000000    23.076914     4.057680     0.339036     0.212444     0.404660
   6 :     4.036120     2.240537     1.417359     0.780914     0.672438     0.637010
   7 :     4.036120     2.240537     1.417359     0.780914     0.672438     0.637010
   8 :     4.036120     2.240537     1.417359     0.780914     0.672438     0.637010
   9 :     0.455479     0.379137     0.522631     2.315664     6.162063    18.579006
  10 :     0.455479     0.379137     0.522631     2.315664     6.162063    18.579006
  11 :     0.455479     0.379137     0.522631     2.315664     6.162063    18.579006
  12 :     0.032172     0.049719     0.184949     6.148772    40.405540   279.212061
  13 :     0.032172     0.049719     0.184949     6.148772    40.405540   279.212061
  14 :     0.032172     0.049719     0.184949     6.148772    40.405540   279.212061
  15 :     0.511500     0.305603     0.397823     3.733413    17.980854   104.699508
  16 :     0.511500     0.305603     0.397823     3.733413    17.980854   104.699508
  17 :     0.511500     0.305603     0.397823     3.733413    17.980854   104.699508
  18 :     1.281619     0.708051     0.668427     2.317559     8.039705    38.688920
  19 :     1.281619     0.708051     0.668427     2.317559     8.039705    38.688920
  20 :     1.281619     0.708051     0.668427     2.317559     8.039705    38.688920
  21 :     3.660316     2.008095     1.313628     0.875386     0.875452     4.980353
  22 :     3.660316     2.008095     1.313628     0.875386     0.875452     4.980353
  23 :     3.660316     2.008095     1.313628     0.875386     0.875452     4.980353
  24 :     3.660316     2.008095     1.313628     0.875386     0.875452     4.980353
  25 :     3.660316     2.008095     1.313628     0.875386     0.875452     4.980353
  26 :     0.075999     0.098174     0.268960     4.224269    19.351757   472.574804
  27 :     0.075999     0.098174     0.268960     4.224269    19.351757   472.574804
  28 :     0.075999     0.098174     0.268960     4.224269    19.351757   472.574804
  29 :     0.075999     0.098174     0.268960     4.224269    19.351757   472.574804
  30 :     0.075999     0.098174     0.268960     4.224269    19.351757   472.574804
  31 :     0.250112     0.227572     0.389002     3.345261    13.771277   331.754786
  32 :     0.250112     0.227572     0.389002     3.345261    13.771277   331.754786
  33 :     0.250112     0.227572     0.389002     3.345261    13.771277   331.754786
  34 :     0.250112     0.227572     0.389002     3.345261    13.771277   331.754786
  35 :     0.250112     0.227572     0.389002     3.345261    13.771277   331.754786
  36 :     1.182779     0.694210     0.652508     2.274363     7.032464   138.606967
  37 :     1.182779     0.694210     0.652508     2.274363     7.032464   138.606967
  38 :     1.182779     0.694210     0.652508     2.274363     7.032464   138.606967
  39 :     1.182779     0.694210     0.652508     2.274363     7.032464   138.606967
  40 :     1.182779     0.694210     0.652508     2.274363     7.032464   138.606967
  41 :     0.046018     0.120089     0.336089     3.142495    10.375566   250.879784
  42 :     0.046018     0.120089     0.336089     3.142495    10.375566   250.879784
  43 :     0.046018     0.120089     0.336089     3.142495    10.375566   250.879784
  44 :     0.046018     0.120089     0.336089     3.142495    10.375566   250.879784
  45 :     0.046018     0.120089     0.336089     3.142495    10.375566   250.879784
  46 :     0.046018     0.120089     0.336089     3.142495    10.375566   250.879784
  47 :     0.046018     0.120089     0.336089     3.142495    10.375566   250.879784
  48 :     0.179584     0.283682     0.499906     2.327089     6.382737   142.455358
  49 :     0.179584     0.283682     0.499906     2.327089     6.382737   142.455358
  50 :     0.179584     0.283682     0.499906     2.327089     6.382737   142.455358
  51 :     0.179584     0.283682     0.499906     2.327089     6.382737   142.455358
  52 :     0.179584     0.283682     0.499906     2.327089     6.382737   142.455358
  53 :     0.179584     0.283682     0.499906     2.327089     6.382737   142.455358
  54 :     0.179584     0.283682     0.499906     2.327089     6.382737   142.455358
-------
TIMINGS
-------

Total SCF time: 0 days 0 hours 0 min 4 sec 

Total time                  ....       4.368 sec
Sum of individual times     ....       3.981 sec  ( 91.1%)

Fock matrix formation       ....       2.466 sec  ( 56.4%)
Diagonalization             ....       0.036 sec  (  0.8%)
Density matrix formation    ....       0.004 sec  (  0.1%)
Population analysis         ....       0.025 sec  (  0.6%)
Initial guess               ....       1.181 sec  ( 27.0%)
Orbital Transformation      ....       0.000 sec  (  0.0%)
Orbital Orthonormalization  ....       0.000 sec  (  0.0%)
DIIS solution               ....       0.180 sec  (  4.1%)
SOSCF solution              ....       0.021 sec  (  0.5%)


           ************************************************************
           *        Program running with 24 parallel MPI-processes    *
           *              working on a common directory               *
           ************************************************************


------------------------------------------------------------------------------- 
                              ORCA-MATRIX DRIVEN CI                            
------------------------------------------------------------------------------- 

--------------------------------
AUTOMATIC CHOICE OF INCORE LEVEL
--------------------------------

Memory available                           ...   2500.00 MB
Memory needed for S+T                      ...      1.82 MB
Memory needed for J+K                      ...      3.66 MB
Memory needed for DIIS                     ...     25.44 MB
Memory needed for 3-ext                    ...      5.09 MB
Memory needed for 4-ext                    ...     12.15 MB
Memory needed for triples                  ...      2.83 MB
 -> Final InCoreLevel    ... 5
 -> check shows that triples correction can be computed


Wavefunction type
-----------------
Correlation treatment                      ...      CCSD     
Single excitations                         ... ON
Orbital optimization                       ... OFF
Calculation of Z vector                    ... OFF
Calculation of Brueckner orbitals          ... OFF
Perturbative triple excitations            ... ON
Calculation of F12 correction              ... OFF
Frozen core treatment                      ... chemical core (8 el)
Reference Wavefunction                     ... RHF
  Internal Orbitals:     4 ...   12 (  9 MO's/ 18 electrons)
  Virtual  Orbitals:    13 ...   54 ( 42 MO's              )
Number of AO's                             ...     55
Number of electrons                        ...     26
Number of correlated electrons             ...     18

Algorithmic settings
--------------------
Integral transformation                    ... AO direct full transformation
K(C) Formation                             ... FULL-MO TRAFO
Maximum number of iterations               ...        50
Convergence tolerance (max. residuum)      ... 1.000e-05
Level shift for amplitude update           ... 2.000e-01
Maximum number of DIIS vectors             ...         7
DIIS turned on at iteration                ...         0
Damping before turning on DIIS             ...     0.500
Damping after turning on DIIS              ...     0.000
Pair specific amplitude update             ... OFF
Natural orbital iterations                 ... OFF
Perturbative natural orbital generation    ... OFF
Printlevel                                 ... 2

Memory handling:
----------------
Maximum memory for working arrays          ...   2500 MB
Data storage in matrix containers          ... UNCOMPRESSED
Data type for integral storage             ... DOUBLE
In-Core Storage of quantities:
   Amplitudes+Sigma Vector      ... YES
   J+K operators                ... YES
   DIIS vectors                 ... YES
   3-external integrals         ... YES
   4-external integrals         ... YES


Initializing the integral package          ... done
Warning: reference  - re-canonicalizations have been set to INT 1 VIRT 1

--------------------------
CLOSED-SHELL FOCK OPERATOR
--------------------------

<ss|ss>:          231 b            0 skpd (  0.0%)    0.001 s ( 0.003 ms/b)
<ss|sp>:          630 b            0 skpd (  0.0%)    0.003 s ( 0.004 ms/b)
<ss|sd>:          504 b            0 skpd (  0.0%)    0.002 s ( 0.003 ms/b)
<ss|sf>:          252 b            0 skpd (  0.0%)    0.001 s ( 0.003 ms/b)
<ss|pp>:          315 b            0 skpd (  0.0%)    0.003 s ( 0.010 ms/b)
<ss|pd>:          420 b            0 skpd (  0.0%)    0.003 s ( 0.007 ms/b)
<ss|pf>:          210 b            0 skpd (  0.0%)    0.001 s ( 0.004 ms/b)
<ss|dd>:          210 b            0 skpd (  0.0%)    0.003 s ( 0.013 ms/b)
<ss|df>:          168 b            0 skpd (  0.0%)    0.001 s ( 0.004 ms/b)
<ss|ff>:           63 b            0 skpd (  0.0%)    0.000 s ( 0.003 ms/b)
<sp|sp>:          465 b            0 skpd (  0.0%)    0.004 s ( 0.008 ms/b)
<sp|sd>:          720 b            0 skpd (  0.0%)    0.003 s ( 0.005 ms/b)
<sp|sf>:          360 b            0 skpd (  0.0%)    0.001 s ( 0.003 ms/b)
<sp|pp>:          450 b            0 skpd (  0.0%)    0.006 s ( 0.013 ms/b)
<sp|pd>:          600 b            0 skpd (  0.0%)    0.007 s ( 0.011 ms/b)
<sp|pf>:          300 b            0 skpd (  0.0%)    0.001 s ( 0.005 ms/b)
<sp|dd>:          300 b            0 skpd (  0.0%)    0.008 s ( 0.028 ms/b)
<sp|df>: done
<sp|ff>: done
<sd|sd>:          300 b            0 skpd (  0.0%)    0.003 s ( 0.010 ms/b)
<sd|sf>:          288 b            0 skpd (  0.0%)    0.001 s ( 0.003 ms/b)
<sd|pp>:          360 b            0 skpd (  0.0%)    0.005 s ( 0.014 ms/b)
<sd|pd>:          480 b           13 skpd (  2.7%)    0.007 s ( 0.014 ms/b)
<sd|pf>: done
<sd|dd>:          240 b            0 skpd (  0.0%)    0.009 s ( 0.039 ms/b)
<sd|df>:          192 b            3 skpd (  1.6%)    0.002 s ( 0.013 ms/b)
<sd|ff>: done
<sf|sf>:           78 b            0 skpd (  0.0%)    0.000 s ( 0.003 ms/b)
<sf|pp>:          180 b            0 skpd (  0.0%)    0.002 s ( 0.012 ms/b)
<sf|pd>: done
<sf|pf>: done
<sf|dd>:          120 b            0 skpd (  0.0%)    0.004 s ( 0.036 ms/b)
<sf|df>: done
<sf|ff>: done
<pp|pp>:          120 b            0 skpd (  0.0%)    0.007 s ( 0.059 ms/b)
<pp|pd>:          300 b            0 skpd (  0.0%)    0.010 s ( 0.033 ms/b)
<pp|pf>:          150 b            0 skpd (  0.0%)    0.002 s ( 0.015 ms/b)
<pp|dd>:          150 b            0 skpd (  0.0%)    0.014 s ( 0.091 ms/b)
<pp|df>:          120 b            0 skpd (  0.0%)    0.004 s ( 0.030 ms/b)
<pp|ff>:           45 b            0 skpd (  0.0%)    0.001 s ( 0.023 ms/b)
<pd|pd>:          210 b            0 skpd (  0.0%)    0.015 s ( 0.070 ms/b)
<pd|pf>:          200 b            0 skpd (  0.0%)    0.004 s ( 0.018 ms/b)
<pd|dd>:          200 b            0 skpd (  0.0%)    0.022 s ( 0.109 ms/b)
<pd|df>:          160 b            2 skpd (  1.2%)    0.006 s ( 0.038 ms/b)
<pd|ff>: done
<pf|pf>:           55 b            0 skpd (  0.0%)    0.002 s ( 0.028 ms/b)
<pf|dd>:          100 b            0 skpd (  0.0%)    0.009 s ( 0.085 ms/b)
<pf|df>: done
<pf|ff>: done
<dd|dd>:           55 b            0 skpd (  0.0%)    0.016 s ( 0.285 ms/b)
<dd|df>:           80 b            0 skpd (  0.0%)    0.005 s ( 0.058 ms/b)
<dd|ff>:           30 b            0 skpd (  0.0%)    0.002 s ( 0.052 ms/b)
<df|df>:           36 b            0 skpd (  0.0%)    0.002 s ( 0.047 ms/b)
<df|ff>: done
<ff|ff>: done
Recanonicalizing the internal orbitals
Recanonicalizing the virtual orbitals
Time needed for Fock operator              ...            0.221 sec
Reference energy                           ...   -328.298669047

------------------------------
PARTIAL COULOMB TRANSFORMATION
------------------------------

Transformation type                        ... one-operator
Dimension of the basis                     ...   55
Number of internal MOs                     ...   51 (4-54)
Pair cutoff                                ... 0.000e+00 Eh
Number of AO pairs included in the trafo   ... 1540
Total Number of distinct AO pairs          ... 1540
Memory devoted for trafo                   ... 2500.0 MB 
Max. Number of MO pairs treated together   ... 212779      
Max. Number of MOs treated per batch       ... 3868      
Number Format for Storage                  ... Double (8 Byte)
AO-integral source                         ... DIRECT
Integral package used                      ... LIBINT

Starting integral evaluation:
<ss|**>: <sp|**>:         3213 b        0 skpd     0.035 s (  0.011 ms/b)
<sd|**>:         4590 b        0 skpd     0.025 s (  0.005 ms/b)
<sf|**>:         3672 b        0 skpd     0.032 s (  0.009 ms/b)
<pp|**>:         1836 b        0 skpd     0.017 s (  0.009 ms/b)
<pd|**>:         2295 b        0 skpd     0.077 s (  0.033 ms/b)
        3060 b        0 skpd     0.072 s (  0.023 ms/b)
<pf|**>:         1530 b        0 skpd     0.035 s (  0.023 ms/b)
<dd|**>:         1530 b        0 skpd     0.102 s (  0.067 ms/b)
<df|**>:         1224 b        0 skpd     0.042 s (  0.035 ms/b)
<ff|**>:          459 b        0 skpd     0.034 s (  0.074 ms/b)
Closing buffer AOJ ( 0.00 GB; CompressionRatio= 1.00)
Collecting buffer AOJ 
    ... done with AO integral generation
Number of MO pairs included in the trafo   ... 1326
    ... Now sorting integrals
IBATCH = 1 of  1
Closing buffer JAO ( 0.00 GB; CompressionRatio= 1.00)
Collecting buffer JAO 
TOTAL TIME for half transformation         ...     0.723 sec
AO-integral generation                     ...     0.409 sec
Half transformation                        ...     0.062 sec
J-integral sorting                         ...     0.202 sec

-------------------------- SECOND HALF TRANSFORMATION -------------------------
Formation of (pq|rs)                       ... ok (     0.233 sec)
Integral sorting                           ... ok (     0.181 sec)

------------------
CLOSED SHELL GUESS
------------------

Initial guess performed in     0.003 sec
E(0)                                       ...   -328.298669047
E(MP2)                                     ...     -0.222471683
Initial E(tot)                             ...   -328.521140730
<T|T>                                      ...      0.074309738
Number of pairs included                   ... 45
Total number of pairs                      ... 45

------------------------------------------------
                  RHF COUPLED CLUSTER ITERATIONS
------------------------------------------------

Number of amplitudes to be optimized       ... 79758

Iter       E(tot)           E(Corr)          Delta-E          Residual     Time
  0   -328.521140730     -0.222471683      0.000000000      0.010427131    0.04
                           *** Turning on DIIS ***
  1   -328.525259126     -0.226590079     -0.004118396      0.001696979    0.21
  2   -328.528900937     -0.230231890     -0.003641811      0.000533246    0.21
  3   -328.529451130     -0.230782082     -0.000550192      0.000154486    0.21
  4   -328.529499249     -0.230830202     -0.000048119      0.000056001    0.21
  5   -328.529502733     -0.230833686     -0.000003484      0.000017815    0.21
  6   -328.529503214     -0.230834167     -0.000000481      0.000004802    0.21
               --- The Coupled-Cluster iterations have converged ---

----------------------
COUPLED CLUSTER ENERGY
----------------------

E(0)                                       ...   -328.298669047
E(CORR)                                    ...     -0.230834167
E(TOT)                                     ...   -328.529503214
Singles Norm <S|S>**1/2                    ...      0.011933598  
T1 diagnostic                              ...      0.002812776  

------------------
LARGEST AMPLITUDES
------------------
  10-> 23  10-> 23       0.025567
  12-> 27  12-> 27       0.025354
  12-> 17  12-> 17       0.022391
  10-> 21  10-> 21       0.021784
  12-> 27  12-> 17       0.021395
  12-> 17  12-> 27       0.021395
  12-> 26  12-> 26       0.021266
  10-> 24  10-> 24       0.021119
  12-> 25  12-> 25       0.021080
  11-> 24  11-> 24       0.021066
  10-> 25  10-> 25       0.020990
  11-> 26  11-> 26       0.020961
  12-> 30  12-> 30       0.020290
  10-> 21  10-> 23       0.020282
  10-> 23  10-> 21       0.020282
  10-> 28  10-> 28       0.020237


        !!!!!!!!!!!!!!!!!!!!!!!!!!!!!!!!!!!!!!!!!!!!!!!!!!!!!!!!!!!!!!!!!!!!!!!!!! 
        !  Warning: Densities are linearized densities !                         !
        !!!!!!!!!!!!!!!!!!!!!!!!!!!!!!!!!!!!!!!!!!!!!!!!!!!!!!!!!!!!!!!!!!!!!!!!!! 

Trace of internal density part =     -0.165551946
Trace of external density part =      0.165551946
----------------------
RHF TRIPLES CORRECTION (Algorithm 1)
----------------------

Multiplier for the singles contribution    ...      1.000000000

10% done
20% done
30% done
40% done
50% done
60% done
70% done
80% done

Triples Correction (T)                     ...     -0.007076727
Scaling of triples based on CCSD energies (Peterson et al. Molecular Physics 113, 1551 (2015))
E(T*) = f*E(T) where f = E(F12-CCSD)/E(CCSD) 
f = CCSD (with F12)/ CCSD (without F12)    ...      1.000000000
Scaled triples correction (T)              ...     -0.007076727

Final correlation energy                   ...     -0.237910893
E(CCSD)                                    ...   -328.529503214
E(CCSD(T))                                 ...   -328.536579941

NORM  =      1.082918384 sqrt=     1.040633645
W(HF) =      0.923430625
------------------------------------------------------------------------------
                           ORCA POPULATION ANALYSIS
------------------------------------------------------------------------------
Input electron density              ... 54_Xe.mdcip
BaseName (.gbw .S,...)              ... 54_Xe

                    ********************************
                    * MULLIKEN POPULATION ANALYSIS *
                    ********************************

-----------------------
MULLIKEN ATOMIC CHARGES
-----------------------
   0 Xe:   -0.000000
Sum of atomic charges:   -0.0000000

--------------------------------
MULLIKEN REDUCED ORBITAL CHARGES
--------------------------------
  0 Xes       :     3.986750  s :     3.986750
      pz      :     3.964406  p :    11.893219
      px      :     3.964406
      py      :     3.964406
      dz2     :     2.018786  d :    10.093930
      dxz     :     2.018786
      dyz     :     2.018786
      dx2y2   :     2.018786
      dxy     :     2.018786
      f0      :     0.003729  f :     0.026101
      f+1     :     0.003729
      f-1     :     0.003729
      f+2     :     0.003729
      f-2     :     0.003729
      f+3     :     0.003729
      f-3     :     0.003729


                     *******************************
                     * LOEWDIN POPULATION ANALYSIS *
                     *******************************

----------------------
LOEWDIN ATOMIC CHARGES
----------------------
   0 Xe:   -0.000000

-------------------------------
LOEWDIN REDUCED ORBITAL CHARGES
-------------------------------
  0 Xes       :     3.986750  s :     3.986750
      pz      :     3.964406  p :    11.893219
      px      :     3.964406
      py      :     3.964406
      dz2     :     2.018786  d :    10.093930
      dxz     :     2.018786
      dyz     :     2.018786
      dx2y2   :     2.018786
      dxy     :     2.018786
      f0      :     0.003729  f :     0.026101
      f+1     :     0.003729
      f-1     :     0.003729
      f+2     :     0.003729
      f-2     :     0.003729
      f+3     :     0.003729
      f-3     :     0.003729


                      *****************************
                      * MAYER POPULATION ANALYSIS *
                      *****************************

  NA   - Mulliken gross atomic population
  ZA   - Total nuclear charge
  QA   - Mulliken gross atomic charge
  VA   - Mayer's total valence
  BVA  - Mayer's bonded valence
  FA   - Mayer's free valence

  ATOM       NA         ZA         QA         VA         BVA        FA
  0 Xe    26.0000    26.0000    -0.0000     0.6526     0.0000     0.6526





------------------------------------------------------------------------------- 
                                     TIMINGS                                   
------------------------------------------------------------------------------- 


Total execution time                   ...        2.913 sec

Fock Matrix Formation                  ...        0.221 sec (  7.6%)
Initial Guess                          ...        0.003 sec (  0.1%)
DIIS Solver                            ...        0.022 sec (  0.8%)
State Vector Update                    ...        0.001 sec (  0.0%)
Sigma-vector construction              ...        1.289 sec ( 44.3%)
  <D|H|D>(0-ext)                       ...        0.003 sec (  0.2% of sigma)
  <D|H|D>(2-ext)                       ...        0.005 sec (  0.4% of sigma)
  <D|H|D>(4-ext)                       ...        0.052 sec (  4.0% of sigma)
  <D|H|D>(4-ext-corr)                  ...        0.020 sec (  1.5% of sigma)
  <S|H|0>                              ...        0.001 sec (  0.1% of sigma)
  <S|H|S>                              ...        0.001 sec (  0.1% of sigma)
  <S|H|D>(1-ext)                       ...        0.002 sec (  0.2% of sigma)
  <D|H|S>(1-ext)                       ...        0.002 sec (  0.1% of sigma)
  <S|H|D>(3-ext)                       ...        0.047 sec (  3.6% of sigma)
  Fock-dressing                        ...        1.047 sec ( 81.2% of sigma)
  (ik|jl)-dressing                     ...        0.003 sec (  0.3% of sigma)
  (ij|ab),(ia|jb)-dressing             ...        0.079 sec (  6.1% of sigma)
Total Time for computing (T)           ...        0.021 sec (  0.7% of ALL)
  I/O of integral and amplitudes       ...        0.010 sec ( 45.1% of (T))
  N**6 sorting step                    ...        0.003 sec ( 12.7% of (T))
  External N**7 contributions          ...        0.005 sec ( 22.7% of (T))
  Internal N**7 contributions          ...        0.001 sec (  6.7% of (T))
  N**6 triples energy contributions    ...        0.003 sec ( 12.1% of (T))
One-particle density matrix            ...        0.002 sec (  0.1%)


-------------------------   --------------------
FINAL SINGLE POINT ENERGY      -328.536579940952
-------------------------   --------------------


                            ***************************************
                            *     ORCA property calculations      *
                            ***************************************

                                    ---------------------
                                    Active property flags
                                    ---------------------
   (+) Dipole Moment


------------------------------------------------------------------------------
                       ORCA ELECTRIC PROPERTIES CALCULATION
------------------------------------------------------------------------------

Dipole Moment Calculation                       ... on
Quadrupole Moment Calculation                   ... off
Polarizability Calculation                      ... off
GBWName                                         ... 54_Xe.gbw
Electron density file                           ... 54_Xe.scfp
The origin for moment calculation is the CENTER OF MASS  = ( 0.000000,  0.000000  0.000000)

-------------
DIPOLE MOMENT
-------------
                                X             Y             Z
Electronic contribution:     -0.00000       0.00000       0.00000
Nuclear contribution   :      0.00000       0.00000       0.00000
                        -----------------------------------------
Total Dipole Moment    :     -0.00000       0.00000       0.00000
                        -----------------------------------------
Magnitude (a.u.)       :      0.00000
Magnitude (Debye)      :      0.00000



--------------------
Rotational spectrum 
--------------------
 
Rotational constants in cm-1:     0.000000     0.000000     0.000000 
Rotational constants in MHz :     0.000000     0.000000     0.000000 

 Dipole components along the rotational axes: 
x,y,z [a.u.] :    -0.000000     0.000000     0.000000 
x,y,z [Debye]:    -0.000000     0.000000     0.000000 

 

                           *** MDCI DENSITY ***

------------------------------------------------------------------------------
                       ORCA ELECTRIC PROPERTIES CALCULATION
------------------------------------------------------------------------------

Dipole Moment Calculation                       ... on
Quadrupole Moment Calculation                   ... off
Polarizability Calculation                      ... off
GBWName                                         ... 54_Xe.gbw
Electron density file                           ... 54_Xe.mdcip
The origin for moment calculation is the CENTER OF MASS  = ( 0.000000,  0.000000  0.000000)

-------------
DIPOLE MOMENT
-------------
                                X             Y             Z
Electronic contribution:     -0.00000       0.00000      -0.00000
Nuclear contribution   :      0.00000       0.00000       0.00000
                        -----------------------------------------
Total Dipole Moment    :     -0.00000       0.00000      -0.00000
                        -----------------------------------------
Magnitude (a.u.)       :      0.00000
Magnitude (Debye)      :      0.00000



--------------------
Rotational spectrum 
--------------------
 
Rotational constants in cm-1:     0.000000     0.000000     0.000000 
Rotational constants in MHz :     0.000000     0.000000     0.000000 

 Dipole components along the rotational axes: 
x,y,z [a.u.] :    -0.000000     0.000000    -0.000000 
x,y,z [Debye]:    -0.000000     0.000000    -0.000000 

 

Timings for individual modules:

Sum of individual times         ...        8.974 sec (=   0.150 min)
GTO integral calculation        ...        0.905 sec (=   0.015 min)  10.1 %
SCF iterations                  ...        4.732 sec (=   0.079 min)  52.7 %
MDCI module                     ...        3.338 sec (=   0.056 min)  37.2 %
                             ****ORCA TERMINATED NORMALLY****
TOTAL RUN TIME: 0 days 0 hours 0 minutes 9 seconds 731 msec
