
                                 *****************
                                 * O   R   C   A *
                                 *****************

           --- An Ab Initio, DFT and Semiempirical electronic structure package ---

                  #######################################################
                  #                        -***-                        #
                  #          Department of theory and spectroscopy      #
                  #               Directorship: Frank Neese             #
                  #        Max Planck Institute fuer Kohlenforschung    #
                  #                Kaiser Wilhelm Platz 1               #
                  #                 D-45470 Muelheim/Ruhr               #
                  #                      Germany                        #
                  #                                                     #
                  #                  All rights reserved                #
                  #                        -***-                        #
                  #######################################################


                         Program Version 4.2.0 -  RELEASE  -


 With contributions from (in alphabetic order):
   Daniel Aravena         : Magnetic Suceptibility
   Michael Atanasov       : Ab Initio Ligand Field Theory (pilot matlab implementation)
   Alexander A. Auer      : GIAO ZORA, VPT2
   Ute Becker             : Parallelization
   Giovanni Bistoni       : ED, misc. LED, open-shell LED, HFLED
   Martin Brehm           : Molecular dynamics
   Dmytro Bykov           : SCF Hessian
   Vijay G. Chilkuri      : MRCI spin determinant printing, contributions to CSF-ICE
   Dipayan Datta          : RHF DLPNO-CCSD density
   Achintya Kumar Dutta   : EOM-CC, STEOM-CC
   Dmitry Ganyushin       : Spin-Orbit,Spin-Spin,Magnetic field MRCI
   Miquel Garcia          : C-PCM Hessian, Gaussian charge scheme
   Yang Guo               : DLPNO-NEVPT2, CIM, IAO-localization
   Andreas Hansen         : Spin unrestricted coupled pair/coupled cluster methods
   Benjamin Helmich-Paris : CASSCF linear response (MC-RPA)
   Lee Huntington         : MR-EOM, pCC
   Robert Izsak           : Overlap fitted RIJCOSX, COSX-SCS-MP3, EOM
   Christian Kollmar      : KDIIS, OOCD, Brueckner-CCSD(T), CCSD density
   Simone Kossmann        : Meta GGA functionals, TD-DFT gradient, OOMP2, MP2 Hessian
   Martin Krupicka        : AUTO-CI
   Lucas Lang             : DCDCAS
   Dagmar Lenk            : GEPOL surface, SMD
   Dimitrios Liakos       : Extrapolation schemes; Compound Job, initial MDCI parallelization
   Dimitrios Manganas     : Further ROCIS development; embedding schemes
   Dimitrios Pantazis     : SARC Basis sets
   Taras Petrenko         : DFT Hessian,TD-DFT gradient, ASA, ECA, R-Raman, ABS, FL, XAS/XES, NRVS
   Peter Pinski           : DLPNO-MP2, DLPNO-MP2 Gradient
   Christoph Reimann      : Effective Core Potentials
   Marius Retegan         : Local ZFS, SOC
   Christoph Riplinger    : Optimizer, TS searches, QM/MM, DLPNO-CCSD(T), (RO)-DLPNO pert. Triples
   Tobias Risthaus        : Range-separated hybrids, TD-DFT gradient, RPA, STAB
   Michael Roemelt        : Original ROCIS implementation
   Masaaki Saitow         : Open-shell DLPNO-CCSD energy and density
   Barbara Sandhoefer     : DKH picture change effects
   Avijit Sen             : IP-ROCIS
   Kantharuban Sivalingam : CASSCF convergence, NEVPT2, FIC-MRCI
   Bernardo de Souza      : ESD, SOC TD-DFT
   Georgi Stoychev        : AutoAux, RI-MP2 NMR
   Willem Van den Heuvel  : Paramagnetic NMR
   Boris Wezisla          : Elementary symmetry handling
   Frank Wennmohs         : Technical directorship


 We gratefully acknowledge several colleagues who have allowed us to
 interface, adapt or use parts of their codes:
   Stefan Grimme, W. Hujo, H. Kruse,             : VdW corrections, initial TS optimization,
                  C. Bannwarth                     DFT functionals, gCP, sTDA/sTD-DF
   Ed Valeev, F. Pavosevic, A. Kumar             : LibInt (2-el integral package), F12 methods
   Garnet Chan, S. Sharma, J. Yang, R. Olivares  : DMRG
   Ulf Ekstrom                                   : XCFun DFT Library
   Mihaly Kallay                                 : mrcc  (arbitrary order and MRCC methods)
   Andreas Klamt, Michael Diedenhofen            : otool_cosmo (COSMO solvation model)
   Jiri Pittner, Ondrej Demel                    : Mk-CCSD
   Frank Weinhold                                : gennbo (NPA and NBO analysis)
   Christopher J. Cramer and Donald G. Truhlar   : smd solvation model
   Lars Goerigk                                  : TD-DFT with DH, B97 family of functionals
   V. Asgeirsson, H. Jonsson                     : NEB implementation
   FAccTs GmbH                                   : IRC, NEB, NEB-TS, Multilevel, MM, QM/MM, CI optimization
   S Lehtola, MJT Oliveira, MAL Marques          : LibXC Library


 Your calculation uses the libint2 library for the computation of 2-el integrals
 For citations please refer to: http://libint.valeyev.net

 Your ORCA version has been built with support for libXC version: 4.2.3
 For citations please refer to: https://tddft.org/programs/libxc/

 This ORCA versions uses:
   CBLAS   interface :  Fast vector & matrix operations
   LAPACKE interface :  Fast linear algebra routines
   SCALAPACK package :  Parallel linear algebra routines


Setting NCore(Ta) from 46 to 60
----- Orbital basis set information -----
Your calculation utilizes the basis: aug-cc-pVTZ-PP 
       Ca, Sr, Ba, Ra : Obtained from the Peterson Research Group Website (tyr0.chem.wsu.edu/~kipeters) Feb. 2017
                        H. Li, H. Feng, W. Sun, Y. Zhang, Q. Fan, K. A. Peterson, Y. Xie, H. F. Schaefer III, Mol. Phys. 111, 2292 (2013)
  Cu-Zn, Ag-Cd, Au-Hg : Obtained from the ccRepo (grant-hill.group.shef.ac.uk/ccrepo) Feb. 2017
                        K. A. Peterson, C. Puzzarini, Theor. Chem. Acc. 114, 283 (2005)
  Ga-Kr, In-Xe, Tl-Rn : Obtained from the ccRepo (grant-hill.group.shef.ac.uk/ccrepo) Feb. 2017
                        K. A. Peterson, J. Chem. Phys. 119, 11099 (2003)
                        K. A. Peterson, D. Figgen, E. Goll, H. Stoll, M. Dolg, J. Chem. Phys. 119, 11113 (2003)
                 Y-Pd : Obtained from the ccRepo (grant-hill.group.shef.ac.uk/ccrepo) Feb. 2017
                        K. A. Peterson, D. Figgen, M. Dolg, H. Stoll, J. Chem. Phys. 126, 124101 (2007)
                Hf-Pt : Obtained from the ccRepo (grant-hill.group.shef.ac.uk/ccrepo) Feb. 2017
                        D. Figgen, K. A. Peterson, M. Dolg, H. Stoll, J. Chem. Phys. 130, 164108 (2009)

cite the ECPs for Ta [SK MCDHF RSC] as follows:
O: B. Metz and H. Stoll, private communication (KAP)
Tl: B. Metz, M. Schweizer, H. Stoll, M. Dolg, W. Liu, Theor. Chem. Acc. 104, 22 (2000)
Ga-As, In-Sb, Pb-Bi: B. Metz, H. Stoll, M. Dolg, J. Chem. Phys. 113, 2563 (2000)
Se-Kr, Te-Xe, Po-Rn: K.A. Peterson, D. Figgen, E. Goll, H. Stoll, and M. Dolg, J. Chem. Phys., in press (2003)
Cu-Zn, Ag-Cd, Au-Hg: D. Figgen, G. Rauhut, M. Dolg, and H. Stoll, Chem. Phys. 311, 227 (2005)
Y-Pd: K.A. Peterson, D. Figgen, M. Dolg, H. Stoll, J. Chem. Phys. 126, 124101 (2007)
I: K. A. Peterson, B. C. Shepler, D. Figgen, H. Stoll, J. Phys. Chem. A 110, 13877 (2006)
Hf-Pt: D. Figgen, K.A. Peterson, M. Dolg, H. Stoll, J. Chem. Phys. 130, 164108 (2009)
Ca, Sr, Ba, Ra: I.S. Lim, H. Stoll, P. Schwerdtfeger, J. Chem. Phys. 124, 034107 (2006)

ECP parameters for Ta [SK MCDHF RSC] have been obtained from:
cc-pVDZ-PP  EMSL  Basis Set Exchange Library   4/7/16 5:27 AM
Ca, Sr, Ba, Ra: http://www.tc.uni-koeln.de/PP/index.en.html 3/16/17 1:54 PM

================================================================================
                                        WARNINGS
                       Please study these warnings very carefully!
================================================================================


WARNING: your system is open-shell and RHF/RKS was chosen
  ===> : WILL SWITCH to UHF/UKS


WARNING: MDCI localization with Augmented Hessian Foster-Boys
  ===> : Switching off randomization!

WARNING: Post HF methods need fully converged wavefunctions
  ===> : Setting SCFConvForced true
         You can overwrite this default with %scf ConvForced false 


INFO   : the flag for use of LIBINT has been found!

================================================================================
                                       INPUT FILE
================================================================================
NAME = 73_Ta.in
|  1> #
|  2> # 73_Ta CCSD(T)/aug-cc-pVTZ-PP
|  3> #
|  4> ! CCSD(T) aug-cc-pVTZ-PP tightscf slowconv kdiis
|  5> 
|  6> *xyz 0 4
|  7>  Ta 0.0 0.0 0.0
|  8> *
|  9> 
| 10> %maxcore 5000 
| 11> 
| 12> %pal
| 13> nprocs 24
| 14> end
| 15> 
| 16> %method
| 17> NewNCore Ta 60 end
| 18> end
| 19> 
| 20> 
| 21>                          ****END OF INPUT****
================================================================================

                       ****************************
                       * Single Point Calculation *
                       ****************************

---------------------------------
CARTESIAN COORDINATES (ANGSTROEM)
---------------------------------
  Ta     0.000000    0.000000    0.000000

----------------------------
CARTESIAN COORDINATES (A.U.)
----------------------------
  NO LB      ZA    FRAG     MASS         X           Y           Z
   0 Ta   13.0000*   0   180.948    0.000000    0.000000    0.000000
* core charge reduced due to ECP

--------------------------------
INTERNAL COORDINATES (ANGSTROEM)
--------------------------------
 Ta     0   0   0     0.000000000000     0.00000000     0.00000000

---------------------------
INTERNAL COORDINATES (A.U.)
---------------------------
 Ta     0   0   0     0.000000000000     0.00000000     0.00000000

---------------------
BASIS SET INFORMATION
---------------------
There are 1 groups of distinct atoms

 Group   1 Type Ta  : 38s34p23d3f2g contracted to 6s6p5d3f2g pattern {999911/888811/77711/111/11}

Atom   0Ta   basis set group =>   1
-------------------------
ECP PARAMETER INFORMATION
-------------------------

 Group 1, Type Ta ECP SK MCDHF RSC (replacing 60 core electrons, lmax=5)

Atom   0Ta   ECP group =>   1



           ************************************************************
           *        Program running with 24 parallel MPI-processes    *
           *              working on a common directory               *
           ************************************************************
------------------------------------------------------------------------------
                           ORCA GTO INTEGRAL CALCULATION
------------------------------------------------------------------------------

                         BASIS SET STATISTICS AND STARTUP INFO

 # of primitive gaussian shells          ...  100
 # of primitive gaussian functions       ...  294
 # of contracted shells                  ...   22
 # of contracted basis functions         ...   88
 Highest angular momentum                ...    4
 Maximum contraction depth               ...    9
 Integral package used                   ... LIBINT
 Integral threshhold            Thresh   ...  2.500e-11
 Primitive cut-off              TCut     ...  2.500e-12


------------------------------ INTEGRAL EVALUATION ----------------------------


 * One electron integrals 

   ECP integrals                         ... done
 Pre-screening matrix                    ... done
 Shell pair data                         ... done (   0.000 sec)



           ************************************************************
           *        Program running with 24 parallel MPI-processes    *
           *              working on a common directory               *
           ************************************************************
-------------------------------------------------------------------------------
                                 ORCA SCF
-------------------------------------------------------------------------------

------------
SCF SETTINGS
------------
Hamiltonian:
 Ab initio Hamiltonian  Method          .... Hartree-Fock(GTOs)


General Settings:
 Integral files         IntName         .... 73_Ta
 Hartree-Fock type      HFTyp           .... UHF
 Total Charge           Charge          ....    0
 Multiplicity           Mult            ....    4
 Number of Electrons    NEL             ....   13
 Basis Dimension        Dim             ....   88
 Nuclear Repulsion      ENuc            ....      0.0000000000 Eh

Convergence Acceleration:
 DIIS                   CNVDIIS         .... off
 Newton-Raphson         CNVNR           .... off
 SOSCF                  CNVSOSCF        .... off
 Level Shifting         CNVShift        .... off
 Zerner damping         CNVZerner       .... off
 Static damping         CNVDamp         .... off
 Fernandez-Rico         CNVRico         .... off

SCF Procedure:
 Maximum # iterations   MaxIter         ....   125
 SCF integral mode      SCFMode         .... Direct
   Integral package                     .... LIBINT
 Reset frequency        DirectResetFreq ....    20
 Integral Threshold     Thresh          ....  2.500e-11 Eh
 Primitive CutOff       TCut            ....  2.500e-12 Eh

Convergence Tolerance:
 Convergence Check Mode ConvCheckMode   .... Total+1el-Energy
 Convergence forced     ConvForced      .... 1
 Energy Change          TolE            ....  1.000e-08 Eh
 1-El. energy change                    ....  1.000e-05 Eh


Diagonalization of the overlap matrix:
Smallest eigenvalue                        ... 1.360e-03
Time for diagonalization                   ...    0.002 sec
Threshold for overlap eigenvalues          ... 1.000e-08
Number of eigenvalues below threshold      ... 0
Time for construction of square roots      ...    0.001 sec
Total time needed                          ...    0.003 sec

-------------------
DFT GRID GENERATION
-------------------

General Integration Accuracy     IntAcc      ...  4.340
Radial Grid Type                 RadialGrid  ... Gauss-Chebyshev
Angular Grid (max. acc.)         AngularGrid ... Lebedev-110
Angular grid pruning method      GridPruning ... 3 (G Style)
Weight generation scheme         WeightScheme... Becke
Basis function cutoff            BFCut       ...    1.0000e-11
Integration weight cutoff        WCut        ...    1.0000e-14
Grids for H and He will be reduced by one unit

# of grid points (after initial pruning)     ...   3590 (   0.0 sec)
# of grid points (after weights+screening)   ...   3590 (   0.0 sec)
Grid point division into batches done        ...    0.0 sec
Reduced shell lists constructed in    0.0 sec

Total number of grid points                  ...     3590
Total number of batches                      ...       57
Average number of points per batch           ...       62
Average number of grid points per atom       ...     3590
Average number of shells per batch           ...    15.00 (68.18%)
Average number of basis functions per batch  ...    54.00 (61.36%)
Average number of large shells per batch     ...    13.50 (90.00%)
Average number of large basis fcns per batch ...    48.00 (88.89%)
Maximum spatial batch extension              ...  25.56, 38.92, 38.92 au
Average spatial batch extension              ...   1.27,  1.82,  2.05 au

Time for grid setup =    0.028 sec

------------------------------
INITIAL GUESS: MODEL POTENTIAL
------------------------------
Loading Hartree-Fock densities                     ... done
  calling /sw/apps/orca/orca_4_2_0_linux_x86-64_openmpi314/orca 73_Ta_atom73.inp > 73_Ta_atom73.out in order to generate an atomic fitting density for atom 0 (Ta with ECP) on-the-fly... 
    atom 0 (Ta), assumed electronic state with S=4: 1s2 2s2 2p6 3s2 3p6 4s2 3d10 4p6 5s2 4d10 5p6 6s2 4f14 5d3           ... done
Calculating cut-offs                               ... done
Setting up the integral package                    ... done
Initializing the effective Hamiltonian             ... done
Starting the Coulomb interaction                   ... done (   0.0 sec)
Reading the grid                                   ... done
Mapping shells                                     ... done
Starting the XC term evaluation                    ... done (   0.0 sec)
Transforming the Hamiltonian                       ... done (   0.0 sec)
Diagonalizing the Hamiltonian                      ... done (   0.0 sec)
Back transforming the eigenvectors                 ... done (   0.0 sec)
Now organizing SCF variables                       ... done
                      ------------------
                      INITIAL GUESS DONE (  20.5 sec)
                      ------------------
--------------
SCF ITERATIONS
--------------
ITER       Energy         Delta-E        Max-DP      RMS-DP      [F,P]   Gradient Norm
               ***  Starting incremental Fock matrix formation  ***
                             ****Resetting KDIIS****
                             ****Turning on KDIIS(Cayley)****
  0    -55.8671010532   0.000000000000 0.06128226  0.00200419  0.3056893   0.361437187
  1    -56.0588311389  -0.191730085645 0.10876311  0.00322690  0.2619400   0.305375020
  2    -56.3074837613  -0.248652622440 0.25892076  0.00558211  0.2034558   0.228897442
  3    -56.5004905699  -0.193006808584 0.19983581  0.00511084  0.1144906   0.112767403
  4    -56.5302120289  -0.029721459008 0.05341436  0.00130521  0.0503840   0.035799949
  5    -56.5460346913  -0.015822662385 0.05294156  0.00133636  0.0367698   0.025270781
  6    -56.5601825133  -0.014147822003 0.02268068  0.00054755  0.0284654   0.015384414
  7    -56.5641831957  -0.004000682355 0.06028440  0.00116987  0.0316750   0.013898583
  8    -56.5571379833   0.007045212351 0.11287512  0.00140456  0.0238184   0.009853112
  9    -56.5495476719   0.007590311396 0.09301474  0.00142487  0.0131121   0.008567036
 10    -56.5506027768  -0.001055104845 0.02802322  0.00039971  0.0056532   0.003915844
 11    -56.5507437466  -0.000140969851 0.02352956  0.00037332  0.0048941   0.002021412
 12    -56.5511827077  -0.000438961112 0.01209810  0.00017817  0.0048019   0.001731793
 13    -56.5514016693  -0.000218961605 0.00420300  0.00007305  0.0046617   0.001753765
 14    -56.5513170000   0.000084669355 0.01837738  0.00028578  0.0046639   0.001618273
 15    -56.5515675624  -0.000250562430 0.01806282  0.00023378  0.0044407   0.001471588
 16    -56.5517852490  -0.000217686591 0.03810591  0.00050695  0.0042806   0.001434994
 17    -56.5522252982  -0.000440049174 0.02225448  0.00027061  0.0039129   0.001215553
 18    -56.5524551196  -0.000229821398 0.00870706  0.00011103  0.0037262   0.001143787
 19    -56.5525547984  -0.000099678820 0.00752721  0.00009818  0.0036444   0.001140652
               *** Restarting incremental Fock matrix formation ***
                             ****Resetting KDIIS****
 20    -56.5524672548   0.000087543627 0.00070763  0.00000903  0.0037262   0.001142424
 21    -56.5524754692  -0.000008214496 0.00010126  0.00000202  0.0037188   0.001141334
 22    -56.5524761748  -0.000000705563 0.00224188  0.00003145  0.0037178   0.001137965
 23    -56.5524479409   0.000028233919 0.01631681  0.00020889  0.0037524   0.001130279
 24    -56.5526186315  -0.000170690603 0.00274760  0.00003647  0.0036483   0.001100636
 25    -56.5525868493   0.000031782168 0.01031804  0.00013272  0.0036773   0.001100474
 26    -56.5526904881  -0.000103638742 0.13517309  0.00177077  0.0036060   0.001068771
 27    -56.5539272551  -0.001236767007 0.01646550  0.00017567  0.0020138   0.001764373
 28    -56.5540381381  -0.000110883023 0.00169478  0.00002859  0.0019954   0.001111933
 29    -56.5540570402  -0.000018902147 0.00352406  0.00003894  0.0020265   0.000847411
 30    -56.5540338803   0.000023159965 0.04341646  0.00042643  0.0020511   0.000793129
 31    -56.5542328606  -0.000198980299 0.04088809  0.00040112  0.0015088   0.001058369
 32    -56.5540436465   0.000189214064 0.01901696  0.00019229  0.0019721   0.000732920
 33    -56.5541316819  -0.000088035401 0.05710639  0.00054159  0.0018102   0.000696818
 34    -56.5543443984  -0.000212716515 0.01297720  0.00012230  0.0012490   0.000592792
 35    -56.5543910447  -0.000046646229 0.00181385  0.00002829  0.0011708   0.000565557
 36    -56.5543843278   0.000006716820 0.00692154  0.00008672  0.0011719   0.000506783
 37    -56.5544047600  -0.000020432154 0.00403273  0.00003607  0.0011560   0.000548277
 38    -56.5544156603  -0.000010900283 0.01010059  0.00008972  0.0011017   0.000389351
 39    -56.5543896298   0.000026030437 0.01999530  0.00017806  0.0011968   0.000404027
               *** Restarting incremental Fock matrix formation ***
                             ****Resetting KDIIS****
 40    -56.5544431538  -0.000053524005 0.00019622  0.00000274  0.0009935   0.000409178
 41    -56.5544442192  -0.000001065382 0.00009916  0.00000192  0.0009980   0.000404643
 42    -56.5544445496  -0.000000330358 0.00206364  0.00002511  0.0010092   0.000388267
 43    -56.5544363530   0.000008196582 0.00359751  0.00004643  0.0009938   0.000340498
 44    -56.5544391923  -0.000002839334 0.00233444  0.00002354  0.0009316   0.000299308
 45    -56.5544328892   0.000006303127 0.00186514  0.00001666  0.0009526   0.000291563
 46    -56.5544371895  -0.000004300280 0.00911295  0.00008001  0.0009339   0.000284282
 47    -56.5544581851  -0.000020995624 0.00204482  0.00002007  0.0008455   0.000270345
 48    -56.5544619703  -0.000003785219 0.01194137  0.00010358  0.0008362   0.000261927
 49    -56.5544844960  -0.000022525690 0.02104061  0.00017916  0.0007358   0.000240371
 50    -56.5545174487  -0.000032952678 0.01138808  0.00009638  0.0005811   0.000236294
 51    -56.5545320627  -0.000014613964 0.00119477  0.00001606  0.0004679   0.000203396
 52    -56.5545342790  -0.000002216353 0.00993334  0.00008714  0.0004509   0.000214187
 53    -56.5545212982   0.000012980852 0.00105302  0.00001410  0.0005470   0.000203569
 54    -56.5545212775   0.000000020628 0.00055002  0.00000637  0.0005273   0.000201904
 55    -56.5545222970  -0.000001019447 0.00116936  0.00001242  0.0005200   0.000203056
 56    -56.5545232022  -0.000000905168 0.00381046  0.00003323  0.0005128   0.000190217
 57    -56.5545276034  -0.000004401225 0.00510437  0.00004392  0.0004802   0.000175040
 58    -56.5545339723  -0.000006368904 0.00063594  0.00000726  0.0004191   0.000173176
 59    -56.5545350720  -0.000001099688 0.00105504  0.00001442  0.0004158   0.000172995
               *** Restarting incremental Fock matrix formation ***
                             ****Resetting KDIIS****
 60    -56.5545331632   0.000001908771 0.00009251  0.00000103  0.0004239   0.000160866
 61    -56.5545333116  -0.000000148379 0.00004821  0.00000062  0.0004228   0.000161101
 62    -56.5545333823  -0.000000070686 0.00028051  0.00000364  0.0004215   0.000161077
 63    -56.5545328542   0.000000528086 0.00075957  0.00001490  0.0004249   0.000158828
 64    -56.5545319744   0.000000879769 0.00016099  0.00000154  0.0004191   0.000151091
 65    -56.5545317567   0.000000217663 0.00152080  0.00001637  0.0004206   0.000151146
 66    -56.5545295462   0.000002210528 0.00044501  0.00000419  0.0004359   0.000146455
 67    -56.5545300212  -0.000000474972 0.00050050  0.00000456  0.0004314   0.000143759
 68    -56.5545306414  -0.000000620226 0.00063734  0.00000636  0.0004264   0.000143609
 69    -56.5545297864   0.000000855052 0.00035612  0.00000520  0.0004321   0.000142760
 70    -56.5545298748  -0.000000088391 0.00030406  0.00000475  0.0004334   0.000140371
 71    -56.5545300464  -0.000000171615 0.00013632  0.00000123  0.0004271   0.000138548
 72    -56.5545302099  -0.000000163563 0.00072771  0.00000763  0.0004261   0.000138408
 73    -56.5545292609   0.000000949015 0.00036840  0.00000493  0.0004334   0.000137640
 74    -56.5545293550  -0.000000094070 0.00072709  0.00000643  0.0004318   0.000135713
 75    -56.5545301954  -0.000000840365 0.00091588  0.00001052  0.0004248   0.000135567
 76    -56.5545290494   0.000001145954 0.00020029  0.00000222  0.0004341   0.000134522
 77    -56.5545292584  -0.000000209047 0.00026575  0.00000248  0.0004336   0.000134132
 78    -56.5545295698  -0.000000311368 0.00049538  0.00000537  0.0004309   0.000134059
 79    -56.5545289722   0.000000597618 0.00024913  0.00000334  0.0004356   0.000134126
               *** Restarting incremental Fock matrix formation ***
                             ****Resetting KDIIS****
 80    -56.5545292393  -0.000000267118 0.00009564  0.00000084  0.0004340   0.000133598
 81    -56.5545293490  -0.000000109649 0.00013171  0.00000125  0.0004331   0.000133564
 82    -56.5545291896   0.000000159390 0.00012918  0.00000133  0.0004340   0.000133431
 83    -56.5545292227  -0.000000033106 0.00371285  0.00003144  0.0004346   0.000132619
 84    -56.5545330787  -0.000003856030 0.00259748  0.00002208  0.0004003   0.000129362
 85    -56.5545353532  -0.000002274475 0.00252759  0.00002150  0.0003732   0.000136205
 86    -56.5545374447  -0.000002091552 0.01967993  0.00016399  0.0003586   0.000139158
 87    -56.5545498895  -0.000012444722 0.00062717  0.00000626  0.0001860   0.000085017
 88    -56.5545502564  -0.000000366968 0.00262049  0.00002186  0.0001713   0.000075439
 89    -56.5545514216  -0.000001165194 0.00081334  0.00000693  0.0001524   0.000069206
 90    -56.5545510569   0.000000364743 0.00018578  0.00000158  0.0001597   0.000068693
 91    -56.5545511291  -0.000000072200 0.00124635  0.00001046  0.0001577   0.000068282
 92    -56.5545506787   0.000000450345 0.00315217  0.00002628  0.0001688   0.000069309
 93    -56.5545517740  -0.000001095262 0.00067878  0.00000680  0.0001406   0.000066672
 94    -56.5545520754  -0.000000301401 0.00422331  0.00003493  0.0001300   0.000069060
 95    -56.5545533861  -0.000001310706 0.00055068  0.00000507  0.0000988   0.000065151
 96    -56.5545532309   0.000000155220 0.00041531  0.00000388  0.0001049   0.000066342
 97    -56.5545530551   0.000000175751 0.00279084  0.00002325  0.0001090   0.000066808
 98    -56.5545523002   0.000000754921 0.00008749  0.00000097  0.0001323   0.000069027
 99    -56.5545522996   0.000000000640 0.00254829  0.00002253  0.0001319   0.000068219
               *** Restarting incremental Fock matrix formation ***
                             ****Resetting KDIIS****
100    -56.5545531595  -0.000000859928 0.00002567  0.00000044  0.0001022   0.000078650
101    -56.5545531884  -0.000000028871 0.00005104  0.00000084  0.0001033   0.000074086
102    -56.5545532426  -0.000000054235 0.00021534  0.00000257  0.0001052   0.000068694
103    -56.5545531092   0.000000133384 0.00030009  0.00000343  0.0001070   0.000058594
104    -56.5545530337   0.000000075480 0.00031598  0.00000454  0.0001094   0.000054133
105    -56.5545528167   0.000000217070 0.00013937  0.00000257  0.0001123   0.000051048
106    -56.5545527180   0.000000098684 0.00069441  0.00000954  0.0001122   0.000048397
107    -56.5545530173  -0.000000299354 0.00017813  0.00000233  0.0001055   0.000047351
108    -56.5545531133  -0.000000095919 0.00004314  0.00000051  0.0001022   0.000048817
109    -56.5545531047   0.000000008522 0.00006315  0.00000089  0.0001021   0.000048701
110    -56.5545530716   0.000000033124 0.00004307  0.00000062  0.0001021   0.000048423
111    -56.5545530466   0.000000024997 0.00006095  0.00000103  0.0001028   0.000048169
112    -56.5545530251   0.000000021538 0.00016940  0.00000218  0.0001027   0.000047644
113    -56.5545531197  -0.000000094593 0.00014553  0.00000215  0.0001023   0.000048999
114    -56.5545530303   0.000000089396 0.00053540  0.00000788  0.0001055   0.000049895
115    -56.5545527526   0.000000277702 0.00017542  0.00000198  0.0001106   0.000041773
116    -56.5545528234  -0.000000070798 0.00012681  0.00000145  0.0001091   0.000042226
117    -56.5545528174   0.000000006010 0.00005160  0.00000060  0.0001089   0.000042590
118    -56.5545528192  -0.000000001877 0.00015393  0.00000184  0.0001093   0.000042236
119    -56.5545527516   0.000000067618 0.00014155  0.00000185  0.0001105   0.000041740
               *** Restarting incremental Fock matrix formation ***
                             ****Resetting KDIIS****
120    -56.5545526895   0.000000062122 0.00002488  0.00000027  0.0001132   0.000041149
121    -56.5545526994  -0.000000009919 0.00005523  0.00000060  0.0001128   0.000041020
122    -56.5545527215  -0.000000022096 0.00002972  0.00000049  0.0001121   0.000041014
123    -56.5545527061   0.000000015409 0.00071602  0.00000751  0.0001123   0.000040508
124    -56.5545529526  -0.000000246479 0.00001293  0.00000014  0.0001065   0.000040002
                    *** KDIIS BlockDiag (87.416 sec) ***

               *****************************************************
               *                      ERROR                        *
               *        SCF NOT CONVERGED AFTER 125 CYCLES         *
               *****************************************************


---------------
SCF CONVERGENCE
---------------

  Last Energy change         ...   -2.4648e-07  Tolerance :   1.0000e-08
  Last MAX-Density change    ...    1.2928e-05  Tolerance :   1.0000e-07
  Last RMS-Density change    ...    1.3640e-07  Tolerance :   5.0000e-09

     --------------------------------------------------------------------
                                      ERROR
     This wavefunction IS NOT CONVERGED! 
     But SCFConvergence was forced (by user or by method)
     Aborting ...
     --------------------------------------------------------------------


--------------------------------------------------------------------------
Primary job  terminated normally, but 1 process returned
a non-zero exit code. Per user-direction, the job has been aborted.
--------------------------------------------------------------------------
--------------------------------------------------------------------------
mpirun detected that one or more processes exited with non-zero status, thus causing
the job to be terminated. The first process to do so was:

  Process name: [[62751,1],9]
  Exit code:    125
--------------------------------------------------------------------------

ORCA finished by error termination in SCF
Calling Command: mpirun -np 24  /sw/apps/orca/orca_4_2_0_linux_x86-64_openmpi314/orca_scf_mpi 73_Ta.gbw b 73_Ta 
[file orca_tools/qcmsg.cpp, line 458]: 
  .... aborting the run

[file orca_tools/qcmsg.cpp, line 458]: 
  .... aborting the run

