
                                 *****************
                                 * O   R   C   A *
                                 *****************

           --- An Ab Initio, DFT and Semiempirical electronic structure package ---

                  #######################################################
                  #                        -***-                        #
                  #          Department of theory and spectroscopy      #
                  #               Directorship: Frank Neese             #
                  #        Max Planck Institute fuer Kohlenforschung    #
                  #                Kaiser Wilhelm Platz 1               #
                  #                 D-45470 Muelheim/Ruhr               #
                  #                      Germany                        #
                  #                                                     #
                  #                  All rights reserved                #
                  #                        -***-                        #
                  #######################################################


                         Program Version 4.2.0 -  RELEASE  -


 With contributions from (in alphabetic order):
   Daniel Aravena         : Magnetic Suceptibility
   Michael Atanasov       : Ab Initio Ligand Field Theory (pilot matlab implementation)
   Alexander A. Auer      : GIAO ZORA, VPT2
   Ute Becker             : Parallelization
   Giovanni Bistoni       : ED, misc. LED, open-shell LED, HFLED
   Martin Brehm           : Molecular dynamics
   Dmytro Bykov           : SCF Hessian
   Vijay G. Chilkuri      : MRCI spin determinant printing, contributions to CSF-ICE
   Dipayan Datta          : RHF DLPNO-CCSD density
   Achintya Kumar Dutta   : EOM-CC, STEOM-CC
   Dmitry Ganyushin       : Spin-Orbit,Spin-Spin,Magnetic field MRCI
   Miquel Garcia          : C-PCM Hessian, Gaussian charge scheme
   Yang Guo               : DLPNO-NEVPT2, CIM, IAO-localization
   Andreas Hansen         : Spin unrestricted coupled pair/coupled cluster methods
   Benjamin Helmich-Paris : CASSCF linear response (MC-RPA)
   Lee Huntington         : MR-EOM, pCC
   Robert Izsak           : Overlap fitted RIJCOSX, COSX-SCS-MP3, EOM
   Christian Kollmar      : KDIIS, OOCD, Brueckner-CCSD(T), CCSD density
   Simone Kossmann        : Meta GGA functionals, TD-DFT gradient, OOMP2, MP2 Hessian
   Martin Krupicka        : AUTO-CI
   Lucas Lang             : DCDCAS
   Dagmar Lenk            : GEPOL surface, SMD
   Dimitrios Liakos       : Extrapolation schemes; Compound Job, initial MDCI parallelization
   Dimitrios Manganas     : Further ROCIS development; embedding schemes
   Dimitrios Pantazis     : SARC Basis sets
   Taras Petrenko         : DFT Hessian,TD-DFT gradient, ASA, ECA, R-Raman, ABS, FL, XAS/XES, NRVS
   Peter Pinski           : DLPNO-MP2, DLPNO-MP2 Gradient
   Christoph Reimann      : Effective Core Potentials
   Marius Retegan         : Local ZFS, SOC
   Christoph Riplinger    : Optimizer, TS searches, QM/MM, DLPNO-CCSD(T), (RO)-DLPNO pert. Triples
   Tobias Risthaus        : Range-separated hybrids, TD-DFT gradient, RPA, STAB
   Michael Roemelt        : Original ROCIS implementation
   Masaaki Saitow         : Open-shell DLPNO-CCSD energy and density
   Barbara Sandhoefer     : DKH picture change effects
   Avijit Sen             : IP-ROCIS
   Kantharuban Sivalingam : CASSCF convergence, NEVPT2, FIC-MRCI
   Bernardo de Souza      : ESD, SOC TD-DFT
   Georgi Stoychev        : AutoAux, RI-MP2 NMR
   Willem Van den Heuvel  : Paramagnetic NMR
   Boris Wezisla          : Elementary symmetry handling
   Frank Wennmohs         : Technical directorship


 We gratefully acknowledge several colleagues who have allowed us to
 interface, adapt or use parts of their codes:
   Stefan Grimme, W. Hujo, H. Kruse,             : VdW corrections, initial TS optimization,
                  C. Bannwarth                     DFT functionals, gCP, sTDA/sTD-DF
   Ed Valeev, F. Pavosevic, A. Kumar             : LibInt (2-el integral package), F12 methods
   Garnet Chan, S. Sharma, J. Yang, R. Olivares  : DMRG
   Ulf Ekstrom                                   : XCFun DFT Library
   Mihaly Kallay                                 : mrcc  (arbitrary order and MRCC methods)
   Andreas Klamt, Michael Diedenhofen            : otool_cosmo (COSMO solvation model)
   Jiri Pittner, Ondrej Demel                    : Mk-CCSD
   Frank Weinhold                                : gennbo (NPA and NBO analysis)
   Christopher J. Cramer and Donald G. Truhlar   : smd solvation model
   Lars Goerigk                                  : TD-DFT with DH, B97 family of functionals
   V. Asgeirsson, H. Jonsson                     : NEB implementation
   FAccTs GmbH                                   : IRC, NEB, NEB-TS, Multilevel, MM, QM/MM, CI optimization
   S Lehtola, MJT Oliveira, MAL Marques          : LibXC Library


 Your calculation uses the libint2 library for the computation of 2-el integrals
 For citations please refer to: http://libint.valeyev.net

 Your ORCA version has been built with support for libXC version: 4.2.3
 For citations please refer to: https://tddft.org/programs/libxc/

 This ORCA versions uses:
   CBLAS   interface :  Fast vector & matrix operations
   LAPACKE interface :  Fast linear algebra routines
   SCALAPACK package :  Parallel linear algebra routines


----- Orbital basis set information -----
Your calculation utilizes the basis: def2-SVP
   F. Weigend and R. Ahlrichs, Phys. Chem. Chem. Phys. 7, 3297 (2005).

----- AuxJ basis set information -----
Your calculation utilizes the auxiliary basis: def2/J
   F. Weigend, Phys. Chem. Chem. Phys. 8, 1057 (2006).

================================================================================
                                        WARNINGS
                       Please study these warnings very carefully!
================================================================================


INFO   : the flag for use of LIBINT has been found!

================================================================================
                                       INPUT FILE
================================================================================
NAME = 73_Ta_atom73.inp
|  1> # input to generate an atomic fitting density for Ta
|  2> # this file is use internally by ORCA
|  3> #
|  4> # atomic ground state (S=4): 1s2 2s2 2p6 3s2 3p6 4s2 3d10 4p6 5s2 4d10 5p6 6s2 4f14 5d3 
|  5> #
|  6> ! RHF AllowRHF def2-SVP def2/J  NoMulliken NoLoewdin NoMayer NoPrintMOs 
|  7> 
|  8> %output print[p_atomdensfit] 2 end
|  9> 
| 10> %scf
| 11>   guess hcore
| 12>   maxiter 1000
| 13>   maxdisk 500000
| 14>   SCFMode Conventional
| 15>   lshift 0.200000
| 16>   hftyp rohf
| 17>   rohf_case sahf
| 18>   rohf_numop   2
| 19>   rohf_norb[1] 5
| 20>   rohf_nel[1]  3
| 21> end
| 22> 
| 23> %basis
| 24>   NewECP 73
| 25>     N_core 60
| 26>     lmax h
| 27>     s 3
| 28>       1      10.3180690000    454.6006490000  2
| 29>       2      10.5402670000      2.8379750000  4
| 30>       3       2.5747260000     -0.8147360000  2
| 31>     p 6
| 32>       1       8.7433420000     96.9107830000  2
| 33>       2       7.9162230000    195.8504320000  2
| 34>       3       9.2757360000      4.8125240000  4
| 35>       4       8.1016750000      6.3385120000  4
| 36>       5       2.0771270000     -0.4591730000  2
| 37>       6       2.7503720000     -0.6445860000  2
| 38>     d 6
| 39>       1       5.4473140000     45.9699760000  2
| 40>       2       5.2125450000     69.6389720000  2
| 41>       3       5.8843580000      0.8029330000  4
| 42>       4       5.6495790000      0.4295950000  4
| 43>       5       1.3881800000     -0.3072270000  2
| 44>       6       1.2943980000     -0.4615600000  2
| 45>     f 2
| 46>       1       2.1612750000      5.7577730000  2
| 47>       2       2.1259390000      7.6781670000  2
| 48>     g 2
| 49>       1       3.1459200000     -5.6840660000  2
| 50>       2       3.1279420000     -7.0623130000  2
| 51>     h 1
| 52>       1       1.0000000000      0.0000000000  2
| 53>   end
| 54>   NewGTO 73
| 55>     s 9 
| 56>      1      27.1236000000      0.0310638491
| 57>      2      16.9695000000     -0.2563355254
| 58>      3      10.6228000000      0.7539673238
| 59>      4       6.6449300000     -0.6223983732
| 60>      5       3.5948000000     -0.4711005323
| 61>      6       1.0504400000      0.7960220114
| 62>      7       0.4928350000      0.5322618929
| 63>      8       0.1487360000      0.0359645607
| 64>      9       0.0722280000     -0.0130485572
| 65>     s 9 
| 66>      1      27.1236000000     -0.0121657037
| 67>      2      16.9695000000      0.1044812928
| 68>      3      10.6228000000     -0.3164805931
| 69>      4       6.6449300000      0.2672847378
| 70>      5       3.5948000000      0.2212292440
| 71>      6       1.0504400000     -0.4533171660
| 72>      7       0.4928350000     -0.5314869948
| 73>      8       0.1487360000      0.3001770964
| 74>      9       0.0722280000      0.9269504380
| 75>     s 9 
| 76>      1      27.1236000000     -0.0037111671
| 77>      2      16.9695000000      0.0745438253
| 78>      3      10.6228000000     -0.2679715846
| 79>      4       6.6449300000      0.1646355722
| 80>      5       3.5948000000      0.4564022282
| 81>      6       1.0504400000     -1.0435964750
| 82>      7       0.4928350000     -0.2853429411
| 83>      8       0.1487360000      2.4746201129
| 84>      9       0.0722280000     -1.1779138009
| 85>     s 9 
| 86>      1      27.1236000000      0.0098869868
| 87>      2      16.9695000000     -0.0059419110
| 88>      3      10.6228000000     -0.0626367566
| 89>      4       6.6449300000     -0.0531821612
| 90>      5       3.5948000000      0.5384140931
| 91>      6       1.0504400000     -1.6709607731
| 92>      7       0.4928350000      1.5948931060
| 93>      8       0.1487360000      0.1628588397
| 94>      9       0.0722280000     -1.3815490970
| 95>     s 1 
| 96>      1       0.0309970000      1.0000000000
| 97>     s 1 
| 98>      1       0.0133000000      1.0000000000
| 99>     p 8 
|100>      1      15.5273000000     -0.0247838873
|101>      2       9.7259300000      0.1412703574
|102>      3       5.2380300000     -0.3273265111
|103>      4       1.2270200000      0.4834368010
|104>      5       0.6053810000      0.4839497987
|105>      6       0.2963140000      0.1812611755
|106>      7       0.1305110000      0.0183559165
|107>      8       0.0571160000      0.0014009936
|108>     p 8 
|109>      1      15.5273000000      0.0081129598
|110>      2       9.7259300000     -0.0479471404
|111>      3       5.2380300000      0.1150176860
|112>      4       1.2270200000     -0.1944004633
|113>      5       0.6053810000     -0.2549049614
|114>      6       0.2963140000     -0.0276706905
|115>      7       0.1305110000      0.4539057038
|116>      8       0.0571160000      0.6573651233
|117>     p 8 
|118>      1      15.5273000000      0.0100765728
|119>      2       9.7259300000     -0.0603280509
|120>      3       5.2380300000      0.1457046143
|121>      4       1.2270200000     -0.2455496398
|122>      5       0.6053810000     -0.3647875797
|123>      6       0.2963140000      0.0652555121
|124>      7       0.1305110000      0.7661906185
|125>      8       0.0571160000      0.3246848862
|126>     p 8 
|127>      1      15.5273000000      0.0206734588
|128>      2       9.7259300000     -0.1178141084
|129>      3       5.2380300000      0.2833618207
|130>      4       1.2270200000     -0.6453474016
|131>      5       0.6053810000     -0.6700249176
|132>      6       0.2963140000      1.6957337523
|133>      7       0.1305110000     -0.0513265526
|134>      8       0.0571160000     -0.8988093273
|135>     p 1 
|136>      1       0.0246790000      1.0000000000
|137>     p 1 
|138>      1       0.0107000000      1.0000000000
|139>     d 7 
|140>      1      12.1917000000     -0.0017946728
|141>      2       7.6161300000      0.0234135296
|142>      3       4.7595400000     -0.0731666414
|143>      4       1.2759000000      0.2041746861
|144>      5       0.5929460000      0.3708646271
|145>      6       0.2642870000      0.3931007860
|146>      7       0.1124950000      0.2559258532
|147>     d 7 
|148>      1      12.1917000000      0.0018119942
|149>      2       7.6161300000     -0.0306236895
|150>      3       4.7595400000      0.1024011249
|151>      4       1.2759000000     -0.3364421477
|152>      5       0.5929460000     -0.6036754976
|153>      6       0.2642870000     -0.0020181271
|154>      7       0.1124950000      0.7966133820
|155>     d 7 
|156>      1      12.1917000000     -0.0039445284
|157>      2       7.6161300000      0.0462677309
|158>      3       4.7595400000     -0.1490385637
|159>      4       1.2759000000      0.6662750475
|160>      5       0.5929460000      0.4562255114
|161>      6       0.2642870000     -1.3245726264
|162>      7       0.1124950000      0.1821975387
|163>     d 1 
|164>      1       0.0447800000      1.0000000000
|165>     d 1 
|166>      1       0.0178000000      1.0000000000
|167>   end
|168>   NewAuxGTO 73
|169>     S 1
|170>      1 1310.72 1.0
|171>     S 1
|172>      1  655.36 1.0
|173>     S 1
|174>      1  327.68 1.0
|175>     S 1
|176>      1  163.84 1.0
|177>     S 1
|178>      1   81.82 1.0
|179>     S 1
|180>      1   40.96 1.0
|181>     S 1
|182>      1   20.48 1.0
|183>     S 1
|184>      1   10.24 1.0
|185>     S 1
|186>      1    5.12 1.0
|187>     S 1
|188>      1    2.56 1.0
|189>     S 1
|190>      1    1.28 1.0
|191>     S 1
|192>      1    0.64 1.0
|193>     S 1
|194>      1    0.32 1.0
|195>     S 1
|196>      1    0.16 1.0
|197>     S 1
|198>      1    0.08 1.0
|199>     S 1
|200>      1    0.04 1.0
|201>     S 1
|202>      1    0.02 1.0
|203>     S 1
|204>      1    0.01 1.0
|205>   end
|206> end
|207> 
|208> * xyz 0 4
|209> 73  0.0 0.0 0.0
|210> *
|211> 
|212> 
|213>                          ****END OF INPUT****
================================================================================

                       ****************************
                       * Single Point Calculation *
                       ****************************

---------------------------------
CARTESIAN COORDINATES (ANGSTROEM)
---------------------------------
  Ta     0.000000    0.000000    0.000000

----------------------------
CARTESIAN COORDINATES (A.U.)
----------------------------
  NO LB      ZA    FRAG     MASS         X           Y           Z
   0 Ta   13.0000*   0   180.948    0.000000    0.000000    0.000000
* core charge reduced due to ECP

--------------------------------
INTERNAL COORDINATES (ANGSTROEM)
--------------------------------
 Ta     0   0   0     0.000000000000     0.00000000     0.00000000

---------------------------
INTERNAL COORDINATES (A.U.)
---------------------------
 Ta     0   0   0     0.000000000000     0.00000000     0.00000000

---------------------
BASIS SET INFORMATION
---------------------
There are 1 groups of distinct atoms

 Group   1 Type Ta  : 38s34p23d contracted to 6s6p5d pattern {999911/888811/77711}

Atom   0Ta   basis set group =>   1
---------------------------------
AUXILIARY/J BASIS SET INFORMATION
---------------------------------
There are 1 groups of distinct atoms

 Group   1 Type Ta  : 18s contracted to 18s pattern {111111111111111111}

Atom   0Ta   basis set group =>   1
-------------------------
ECP PARAMETER INFORMATION
-------------------------

 Group 1, Type Ta ECP (replacing 60 core electrons, lmax=5)

Atom   0Ta   ECP group =>   1

------------------------------------------------------------------------------
                           ORCA GTO INTEGRAL CALCULATION
------------------------------------------------------------------------------

                         BASIS SET STATISTICS AND STARTUP INFO

 # of primitive gaussian shells          ...   95
 # of primitive gaussian functions       ...  255
 # of contracted shells                  ...   17
 # of contracted basis functions         ...   49
 Highest angular momentum                ...    2
 Maximum contraction depth               ...    9
 Integral package used                   ... LIBINT
 Integral threshhold            Thresh   ...  1.000e-10
 Primitive cut-off              TCut     ...  1.000e-11
 Storage cut-off                TCutStore... -1.000e+00
 Buffer length                           ... 1048576 integrals/buffer
 Generate file with integrals 4 distinct ...false


------------------------------ INTEGRAL EVALUATION ----------------------------


 * One electron integrals 

   ECP integrals                         ... done
 Pre-screening matrix                    ... done
 Shell pair data                         ... done (   0.000 sec)
 Statistics run                          ... done
 Maximum amount of storage needed        ...     8 MB
 Maximum amount of storage dedicated     ... 500000 MB
 Beginning two electron integral evaluation:
 Starting repulsion integrals
  <ss|ss>  ...          231 b.         0 skpd (  0.0%)     0.005 s. (  0.023 ms/b)
  <ss|sp>  ...          756 b.         0 skpd (  0.0%)     0.031 s. (  0.041 ms/b)
  <ss|sd>  ...          630 b.         0 skpd (  0.0%)     0.070 s. (  0.111 ms/b)
  <ss|pp>  ...          441 b.         0 skpd (  0.0%)     0.057 s. (  0.130 ms/b)
  <ss|pd>  ...          630 b.         0 skpd (  0.0%)     0.091 s. (  0.144 ms/b)
  <ss|dd>  ...          315 b.         0 skpd (  0.0%)     0.062 s. (  0.196 ms/b)
  <sp|sp>  ...          666 b.         0 skpd (  0.0%)     0.082 s. (  0.124 ms/b)
  <sp|sd>  ...         1080 b.         0 skpd (  0.0%)     0.133 s. (  0.123 ms/b)
  <sp|pp>  ...          756 b.         0 skpd (  0.0%)     0.115 s. (  0.152 ms/b)
  <sp|pd>  ...         1080 b.         0 skpd (  0.0%)     0.219 s. (  0.202 ms/b)
  <sp|dd>  ...          540 b.         0 skpd (  0.0%)     0.167 s. (  0.309 ms/b)
  <sd|sd>  ...          465 b.         0 skpd (  0.0%)     0.090 s. (  0.193 ms/b)
  <sd|pp>  ...          630 b.         0 skpd (  0.0%)     0.163 s. (  0.258 ms/b)
  <sd|pd>  ...          900 b.         0 skpd (  0.0%)     0.335 s. (  0.372 ms/b)
  <sd|dd>  ...          450 b.         0 skpd (  0.0%)     0.263 s. (  0.584 ms/b)
  <pp|pp>  ...          231 b.         0 skpd (  0.0%)     0.077 s. (  0.333 ms/b)
  <pp|pd>  ...          630 b.         0 skpd (  0.0%)     0.278 s. (  0.441 ms/b)
  <pp|dd>  ...          315 b.         0 skpd (  0.0%)     0.229 s. (  0.726 ms/b)
  <pd|pd>  ...          465 b.         0 skpd (  0.0%)     0.377 s. (  0.811 ms/b)
  <pd|dd>  ...          450 b.         0 skpd (  0.0%)     0.563 s. (  1.250 ms/b)
  <dd|dd>  ...          120 b.         0 skpd (  0.0%)     0.279 s. (  2.322 ms/b)


                                      INTEGRAL STATISTICS

Integral type statistics:
 Number of integrals retained            ...     750925 
 One   Center Integrals retained         ...     750925 (100.0%)
 Two   Center Integrals retained         ...          0 (  0.0%)
 Three Center Integrals retained         ...          0 (  0.0%)
 Four  Center Integrals retained         ...          0 (  0.0%)

Storage statistics:
 Number of char integrals                ...          0 (  0.0%)
 Number of short int integrals           ...          0 (  0.0%)
 Number of double/float integrals        ...     750925 (100.0%)
 Amount of memory used                   ...          9 MB
 Amount of memory estimated              ...          8 MB ( 95.6%)

Prescreening statistics:
 Total number of shell quadruples        ...      11781 
 Number of skipped shell quadruples      ...          0 (  0.0%)
 # of negligible batches done            ...          0 (  0.0%)

Timings:
 Total evaluation time               ...     4.086 sec (   0.068 min)
 One electron matrix time            ...     0.037 sec (   0.001 min) =  0.9%
 Schwartz matrix evaluation time     ...     0.258 sec (   0.004 min) =  6.3%
 Statistics run                      ...     0.007 sec (   0.000 min) =  0.2%
 Repulsion integral time             ...     3.683 sec (   0.061 min) = 90.1%

-------------------------------------------------------------------------------
                                 ORCA SCF
-------------------------------------------------------------------------------

------------
SCF SETTINGS
------------
Hamiltonian:
 Ab initio Hamiltonian  Method          .... Hartree-Fock(GTOs)


General Settings:
 Integral files         IntName         .... 73_Ta_atom73
 Hartree-Fock type      HFTyp           .... ROHF
 Total Charge           Charge          ....    0
 Multiplicity           Mult            ....    4
 Number of Electrons    NEL             ....   13
 Basis Dimension        Dim             ....   49
 Nuclear Repulsion      ENuc            ....      0.0000000000 Eh

Convergence Acceleration:
 DIIS                   CNVDIIS         .... on
   Start iteration      DIISMaxIt       ....    12
   Startup error        DIISStart       ....  0.200000
   # of expansion vecs  DIISMaxEq       ....     5
   Bias factor          DIISBfac        ....   1.050
   Max. coefficient     DIISMaxC        ....  10.000
 Newton-Raphson         CNVNR           .... off
 SOSCF                  CNVSOSCF        .... off
 Level Shifting         CNVShift        .... on
   Level shift para.    LevelShift      ....    0.2000
   Turn off err/grad.   ShiftErr        ....    0.0010
 Zerner damping         CNVZerner       .... off
 Static damping         CNVDamp         .... on
   Fraction old density DampFac         ....    0.7000
   Max. Damping (<1)    DampMax         ....    0.9800
   Min. Damping (>=0)   DampMin         ....    0.0000
   Turn off err/grad.   DampErr         ....    0.1000
 Fernandez-Rico         CNVRico         .... off

SCF Procedure:
 Maximum # iterations   MaxIter         ....  1000
 SCF integral mode      SCFMode         .... Conventional
 Integral Threshold     Thresh          ....  1.000e-10 Eh
 Primitive CutOff       TCut            ....  1.000e-11 Eh
 Integral Buffer length BufferLength    .... 1048576
 Integral index format  IndFormat       ....     0
 Integral value format  ValFormat       ....     0
 Integral Storage       Thresh          ....  1.000e-10 Eh

Convergence Tolerance:
 Convergence Check Mode ConvCheckMode   .... Total+1el-Energy
 Convergence forced     ConvForced      .... 0
 Energy Change          TolE            ....  1.000e-06 Eh
 1-El. energy change                    ....  1.000e-03 Eh
 DIIS Error             TolErr          ....  1.000e-06


Diagonalization of the overlap matrix:
Smallest eigenvalue                        ... 1.360e-03
Time for diagonalization                   ...    0.017 sec
Threshold for overlap eigenvalues          ... 1.000e-08
Number of eigenvalues below threshold      ... 0
Time for construction of square roots      ...    0.000 sec
Total time needed                          ...    0.018 sec

--------------------
INITIAL GUESS: HCORE
--------------------
AVERAGE-CONFIGURATION (SAHF) CASE FOUND

-------------------
FINAL ROHF SETTINGS
-------------------
Number of operators             ... 2
  operator   0:   5 orbitals  10 electrons n(mue)= 2.000
  operator   1:   5 orbitals   3 electrons n(mue)= 0.600
Vector coupling coefficients a and b (Zerner convention):
   1.000    1.000           1.000    1.000 
   1.000    0.833           1.000    1.667 

                      -----------------
                      INTIAL GUESS DONE 
                      -----------------

 InCore treatment chosen:
   Memory dedicated               ...    1024 MB
   Memory needed                  ...      9 MB
   Number of tiny    integrals    ...       0
   Number of small   integrals    ...       0
   Number of regular integrals    ...  750925

--------------
SCF ITERATIONS
--------------
ITER       Energy         Delta-E        Max-DP      RMS-DP      [F,P]     Damp
  0    -51.6542976292   0.000000000000 0.89194068  0.03511373  0.8550220 0.7000
                            ****Activating DIIS****
  1    -54.8875768507  -3.233279221458 0.46898927  0.02178796  0.1447283 0.7000
  2    -54.4984524802   0.389124370457 1.67319775  0.05328293  0.0700224 0.0000
  3    -54.8404732642  -0.342020784002 0.39871490  0.01081432  0.1643084 0.7000
  4    -54.0611508060   0.779322458231 0.25562706  0.00845658  0.2083661 0.7000
  5    -53.9470109650   0.114139840979 0.18261706  0.00603774  0.2371008 0.7000
  6    -53.8438790398   0.103131925217 0.12856735  0.00432847  0.2570492 0.7000
  7    -53.7890807592   0.054798280601 0.69395579  0.02282358  0.2592518 0.7000
  8    -56.3512506717  -2.562169912515 0.50018932  0.01611425  0.1655071 0.7000
  9    -56.3710819116  -0.019831239898 1.18353924  0.03772218  0.0397216 0.0000
 10    -56.3141246988   0.056957212828 0.00480898  0.00019828  0.1418165 0.7000
 11    -56.2877164046   0.026408294153 0.00469496  0.00020033  0.1540230 0.7000
 12    -56.2755511257   0.012165278933 0.00740528  0.00028120  0.1582677 0.7000
 13    -56.2538506672   0.021700458480 0.00578136  0.00015285  0.1731982 0.7000
 14    -56.2821369731  -0.028286305909 1.12592840  0.03043476  0.1499048 0.7000
 15    -56.2566149932   0.025521979931 2.55258463  0.06556883  0.0290297 0.0000
 16    -55.8387493012   0.417865691950 0.00131373  0.00003543  0.1454444 0.7000
 17    -55.8381293114   0.000619989805 0.00069324  0.00001891  0.1459728 0.7000
 18    -55.8382293015  -0.000099990087 0.00049449  0.00001351  0.1458028 0.7000
 19    -55.8381900135   0.000039287991 0.01885011  0.00098816  0.1458161 0.7000
 20    -55.7963973033   0.041792710259 1.11070819  0.02916952  0.1859425 0.7000
 21    -56.4444678722  -0.648070568953 2.59342892  0.06811702  0.0221982 0.0000
 22    -56.4406385889   0.003829283306 0.00354244  0.00015015  0.1122991 0.7000
 23    -56.4250678313   0.015570757589 0.00330542  0.00013750  0.1212385 0.7000
 24    -56.4192408858   0.005826945523 0.00282481  0.00011582  0.1229955 0.7000
 25    -56.4149914518   0.004249434033 0.00258805  0.00010515  0.1239633 0.7000
 26    -56.4105693255   0.004422126252 0.60887343  0.02170214  0.1252348 0.7000
 27    -56.3701581233   0.040411202236 1.30530469  0.04561646  0.0227605 0.0000
 28    -56.1442044234   0.225953699892 0.05550527  0.00232250  0.0741287 0.0000
 29    -56.1703147536  -0.026110330175 0.03152322  0.00127981  0.0661525 0.0000
 30    -56.1796732962  -0.009358542623 0.02184718  0.00087683  0.0629089 0.0000
 31    -56.1851287702  -0.005455474040 0.10911469  0.00448937  0.0609656 0.0000
 32    -56.1357818287   0.049346941528 0.61256570  0.02237167  0.0809189 0.0000
 33    -56.2816535716  -0.145871742857 0.28464433  0.00911785  0.0269617 0.0000
 34    -56.3221333310  -0.040479759411 0.16602462  0.00511594  0.0273885 0.0000
 35    -56.3466373955  -0.024504064499 0.14886252  0.00447304  0.0264497 0.0000
 36    -56.3687606280  -0.022123232509 0.23761883  0.00714084  0.0248021 0.0000
 37    -56.4031004418  -0.034339813781 0.29000757  0.00913216  0.0206091 0.0000
 38    -56.4429424490  -0.039842007270 0.14972220  0.00541680  0.0204881 0.0000
 39    -56.4609514608  -0.018009011770 0.10573758  0.00334254  0.0213878 0.0000
 40    -56.4679090092  -0.006957548449 0.14026763  0.00378834  0.0208888 0.0000
 41    -56.4699152968  -0.002006287529 0.18612720  0.00508048  0.0200296 0.0000
 42    -56.4698265349   0.000088761879 0.06925854  0.00239017  0.0194846 0.0000
 43    -56.4704043581  -0.000577823243 0.08823868  0.00254610  0.0194931 0.0000
 44    -56.4704209665  -0.000016608318 0.03945040  0.00126728  0.0187727 0.0000
 45    -56.4702128635   0.000208102977 0.02239377  0.00058215  0.0181956 0.0000
 46    -56.4704493496  -0.000236486159 0.03003120  0.00088887  0.0182067 0.0000
 47    -56.4707591767  -0.000309827038 0.06361908  0.00191712  0.0177114 0.0000
 48    -56.4715739662  -0.000814789541 0.13640096  0.00437013  0.0164290 0.0000
 49    -56.4737498473  -0.002175881098 0.11343456  0.00397291  0.0112216 0.0000
 50    -56.4757824819  -0.002032634617 0.02334714  0.00084560  0.0035089 0.0000
 51    -56.4766278782  -0.000845396220 0.02641767  0.00131691  0.0025711 0.0000
 52    -56.4775428183  -0.000914940172 0.02030643  0.00098432  0.0019807 0.0000
 53    -56.4779951502  -0.000452331913 0.01592781  0.00064621  0.0018134 0.0000
 54    -56.4782137335  -0.000218583267 0.01307417  0.00045847  0.0016853 0.0000
 55    -56.4783479310  -0.000134197451 0.00808223  0.00025088  0.0016024 0.0000
 56    -56.4784237304  -0.000075799420 0.00794049  0.00023919  0.0015671 0.0000
 57    -56.4784973184  -0.000073588019 0.01252572  0.00037698  0.0015412 0.0000
 58    -56.4786092349  -0.000111916484 0.02282830  0.00068473  0.0015082 0.0000
 59    -56.4787999585  -0.000190723672 0.02809801  0.00083844  0.0014634 0.0000
 60    -56.4790182209  -0.000218262396 0.01410800  0.00042308  0.0014337 0.0000
 61    -56.4791248395  -0.000106618562 0.01012569  0.00030506  0.0014254 0.0000
 62    -56.4792011771  -0.000076337554 0.00781923  0.00023706  0.0014202 0.0000
 63    -56.4792604453  -0.000059268210 0.00593948  0.00018210  0.0014160 0.0000
 64    -56.4793059806  -0.000045535318 0.00528987  0.00016261  0.0014119 0.0000
 65    -56.4793467317  -0.000040751070 0.00457923  0.00014069  0.0014086 0.0000
 66    -56.4793821307  -0.000035399048 0.00415095  0.00012704  0.0014067 0.0000
 67    -56.4794142590  -0.000032128267 0.00379917  0.00011571  0.0014060 0.0000
 68    -56.4794436790  -0.000029420018 0.00341447  0.00010350  0.0014066 0.0000
 69    -56.4794701294  -0.000026450430 0.00297806  0.00008990  0.0014081 0.0000
 70    -56.4794932063  -0.000023076904 0.00253002  0.00007612  0.0014102 0.0000
 71    -56.4795128157  -0.000019609420 0.00218523  0.00006560  0.0014124 0.0000
 72    -56.4795297562  -0.000016940503 0.00199465  0.00005980  0.0014145 0.0000
 73    -56.4795452258  -0.000015469527 0.00191951  0.00005749  0.0014167 0.0000
 74    -56.4795601237  -0.000014897881 0.00188467  0.00005640  0.0014189 0.0000
 75    -56.4795747654  -0.000014641700 0.00184014  0.00005501  0.0014213 0.0000
 76    -56.4795890765  -0.000014311099 0.00178128  0.00005320  0.0014237 0.0000
 77    -56.4796029455  -0.000013869055 0.00172584  0.00005150  0.0014262 0.0000
 78    -56.4796163992  -0.000013453693 0.00168565  0.00005027  0.0014287 0.0000
 79    -56.4796295568  -0.000013157620 0.00165729  0.00004939  0.0014313 0.0000
 80    -56.4796425112  -0.000012954410 0.00163150  0.00004859  0.0014340 0.0000
 81    -56.4796552831  -0.000012771878 0.00160434  0.00004775  0.0014367 0.0000
 82    -56.4796678619  -0.000012578819 0.00157808  0.00004695  0.0014394 0.0000
 83    -56.4796802550  -0.000012393029 0.00155563  0.00004626  0.0014422 0.0000
 84    -56.4796924923  -0.000012237371 0.00153677  0.00004568  0.0014450 0.0000
 85    -56.4797046025  -0.000012110219 0.00151942  0.00004514  0.0014479 0.0000
 86    -56.4797165978  -0.000011995216 0.00150247  0.00004462  0.0014508 0.0000
 87    -56.4797284813  -0.000011883566 0.00148640  0.00004413  0.0014538 0.0000
 88    -56.4797402604  -0.000011779046 0.00147189  0.00004369  0.0014568 0.0000
 89    -56.4797519475  -0.000011687144 0.00145882  0.00004329  0.0014598 0.0000
 90    -56.4797635543  -0.000011606803 0.00144657  0.00004291  0.0014629 0.0000
 91    -56.4797750875  -0.000011533194 0.00143484  0.00004255  0.0014661 0.0000
 92    -56.4797865515  -0.000011463993 0.00142380  0.00004222  0.0014692 0.0000
 93    -56.4797979519  -0.000011400393 0.00141359  0.00004191  0.0014724 0.0000
 94    -56.4798092955  -0.000011343630 0.00140410  0.00004162  0.0014757 0.0000
 95    -56.4798205884  -0.000011292850 0.00139512  0.00004134  0.0014790 0.0000
 96    -56.4798318348  -0.000011246400 0.00138659  0.00004108  0.0014823 0.0000
 97    -56.4798430385  -0.000011203684 0.00137854  0.00004084  0.0014856 0.0000
 98    -56.4798542036  -0.000011165094 0.00137100  0.00004061  0.0014890 0.0000
 99    -56.4798653343  -0.000011130774 0.00136390  0.00004040  0.0014925 0.0000
100    -56.4798764345  -0.000011100186 0.00135715  0.00004019  0.0014959 0.0000
101    -56.4798875072  -0.000011072725 0.00135075  0.00004000  0.0014994 0.0000
102    -56.4798985555  -0.000011048237 0.00134470  0.00003982  0.0015030 0.0000
103    -56.4799095823  -0.000011026803 0.00133898  0.00003964  0.0015065 0.0000
104    -56.4799205906  -0.000011008324 0.00133356  0.00003948  0.0015102 0.0000
105    -56.4799315831  -0.000010992499 0.00132841  0.00003933  0.0015138 0.0000
106    -56.4799425622  -0.000010979098 0.00132352  0.00003918  0.0015175 0.0000
107    -56.4799535303  -0.000010968062 0.00131889  0.00003904  0.0015212 0.0000
108    -56.4799644896  -0.000010959362 0.00131450  0.00003891  0.0015249 0.0000
109    -56.4799754425  -0.000010952880 0.00131033  0.00003879  0.0015287 0.0000
110    -56.4799863910  -0.000010948460 0.00130637  0.00003867  0.0015325 0.0000
111    -56.4799973370  -0.000010946002 0.00130261  0.00003856  0.0015364 0.0000
112    -56.4800082824  -0.000010945463 0.00129905  0.00003846  0.0015402 0.0000
113    -56.4800192292  -0.000010946788 0.00129567  0.00003836  0.0015442 0.0000
114    -56.4800301791  -0.000010949890 0.00129247  0.00003827  0.0015481 0.0000
115    -56.4800411338  -0.000010954686 0.00128942  0.00003818  0.0015521 0.0000
116    -56.4800520949  -0.000010961125 0.00128654  0.00003809  0.0015561 0.0000
117    -56.4800630641  -0.000010969166 0.00128382  0.00003802  0.0015601 0.0000
118    -56.4800740429  -0.000010978760 0.00128123  0.00003794  0.0015642 0.0000
119    -56.4800850327  -0.000010989850 0.00127879  0.00003787  0.0015683 0.0000
120    -56.4800960351  -0.000011002390 0.00127648  0.00003781  0.0015725 0.0000
121    -56.4801070514  -0.000011016344 0.00127430  0.00003775  0.0015766 0.0000
122    -56.4801180831  -0.000011031679 0.00127224  0.00003769  0.0015809 0.0000
123    -56.4801291315  -0.000011048358 0.00127031  0.00003764  0.0015851 0.0000
124    -56.4801401978  -0.000011066344 0.00126849  0.00003759  0.0015894 0.0000
125    -56.4801512834  -0.000011085608 0.00126677  0.00003754  0.0015937 0.0000
126    -56.4801623895  -0.000011106125 0.00126517  0.00003750  0.0015980 0.0000
127    -56.4801735174  -0.000011127868 0.00126367  0.00003746  0.0016024 0.0000
128    -56.4801846682  -0.000011150811 0.00126227  0.00003742  0.0016068 0.0000
129    -56.4801958432  -0.000011174931 0.00126096  0.00003739  0.0016112 0.0000
130    -56.4802070434  -0.000011200207 0.00125975  0.00003736  0.0016157 0.0000
131    -56.4802182700  -0.000011226619 0.00125863  0.00003733  0.0016202 0.0000
132    -56.4802295241  -0.000011254148 0.00125759  0.00003731  0.0016247 0.0000
133    -56.4802408069  -0.000011282776 0.00125664  0.00003728  0.0016292 0.0000
134    -56.4802521194  -0.000011312487 0.00125577  0.00003727  0.0016338 0.0000
135    -56.4802634627  -0.000011343266 0.00125498  0.00003725  0.0016384 0.0000
136    -56.4802748378  -0.000011375096 0.00125427  0.00003723  0.0016431 0.0000
137    -56.4802862457  -0.000011407965 0.00125363  0.00003722  0.0016478 0.0000
138    -56.4802976876  -0.000011441859 0.00125307  0.00003721  0.0016525 0.0000
139    -56.4803091643  -0.000011476765 0.00125257  0.00003721  0.0016572 0.0000
140    -56.4803206770  -0.000011512671 0.00125214  0.00003720  0.0016620 0.0000
141    -56.4803322266  -0.000011549565 0.00125178  0.00003720  0.0016668 0.0000
142    -56.4803438140  -0.000011587436 0.00125148  0.00003720  0.0016716 0.0000
143    -56.4803554403  -0.000011626272 0.00125124  0.00003720  0.0016765 0.0000
144    -56.4803671064  -0.000011666061 0.00125106  0.00003721  0.0016814 0.0000
145    -56.4803788131  -0.000011706793 0.00125094  0.00003721  0.0016863 0.0000
146    -56.4803905616  -0.000011748454 0.00125087  0.00003722  0.0016913 0.0000
147    -56.4804023526  -0.000011791034 0.00125085  0.00003723  0.0016962 0.0000
148    -56.4804141872  -0.000011834519 0.00125088  0.00003724  0.0017013 0.0000
149    -56.4804260660  -0.000011878896 0.00125096  0.00003725  0.0017063 0.0000
150    -56.4804379902  -0.000011924149 0.00125108  0.00003727  0.0017114 0.0000
151    -56.4804499605  -0.000011970264 0.00125124  0.00003729  0.0017165 0.0000
152    -56.4804619777  -0.000012017222 0.00125144  0.00003730  0.0017216 0.0000
153    -56.4804740427  -0.000012065004 0.00125167  0.00003732  0.0017267 0.0000
154    -56.4804861563  -0.000012113589 0.00125194  0.00003734  0.0017319 0.0000
155    -56.4804983192  -0.000012162952 0.00125222  0.00003736  0.0017371 0.0000
156    -56.4805105323  -0.000012213064 0.00125253  0.00003738  0.0017424 0.0000
157    -56.4805227962  -0.000012263896 0.00125286  0.00003741  0.0017477 0.0000
158    -56.4805351116  -0.000012315410 0.00125319  0.00003743  0.0017530 0.0000
159    -56.4805474792  -0.000012367566 0.00125353  0.00003746  0.0017583 0.0000
160    -56.4805598995  -0.000012420318 0.00125387  0.00003748  0.0017636 0.0000
161    -56.4805723731  -0.000012473611 0.00125419  0.00003750  0.0017690 0.0000
162    -56.4805849005  -0.000012527384 0.00125449  0.00003753  0.0017744 0.0000
163    -56.4805974820  -0.000012581566 0.00125476  0.00003755  0.0017798 0.0000
164    -56.4806101181  -0.000012636078 0.00125498  0.00003757  0.0017853 0.0000
165    -56.4806228089  -0.000012690825 0.00125515  0.00003760  0.0017908 0.0000
166    -56.4806355546  -0.000012745703 0.00125524  0.00003762  0.0017963 0.0000
167    -56.4806483552  -0.000012800591 0.00125524  0.00003763  0.0018018 0.0000
168    -56.4806612106  -0.000012855350 0.00125514  0.00003765  0.0018074 0.0000
169    -56.4806741204  -0.000012909824 0.00125490  0.00003766  0.0018129 0.0000
170    -56.4806870842  -0.000012963834 0.00125451  0.00003767  0.0018185 0.0000
171    -56.4807001014  -0.000013017179 0.00125394  0.00003767  0.0018242 0.0000
172    -56.4807131711  -0.000013069631 0.00125316  0.00003767  0.0018298 0.0000
173    -56.4807262920  -0.000013120933 0.00125214  0.00003766  0.0018354 0.0000
174    -56.4807394628  -0.000013170801 0.00125083  0.00003765  0.0018411 0.0000
175    -56.4807526817  -0.000013218915 0.00124920  0.00003762  0.0018468 0.0000
176    -56.4807659466  -0.000013264923 0.00124720  0.00003759  0.0018525 0.0000
177    -56.4807792551  -0.000013308438 0.00124479  0.00003754  0.0018582 0.0000
178    -56.4807926041  -0.000013349041 0.00124192  0.00003748  0.0018639 0.0000
179    -56.4808059904  -0.000013386276 0.00123852  0.00003741  0.0018696 0.0000
180    -56.4808194100  -0.000013419660 0.00123455  0.00003732  0.0018753 0.0000
181    -56.4808328587  -0.000013448686 0.00122995  0.00003721  0.0018811 0.0000
182    -56.4808463316  -0.000013472827 0.00122464  0.00003709  0.0018868 0.0000
183    -56.4808598231  -0.000013491552 0.00121859  0.00003694  0.0018925 0.0000
184    -56.4808733274  -0.000013504334 0.00121172  0.00003677  0.0018982 0.0000
185    -56.4808868381  -0.000013510668 0.00120399  0.00003658  0.0019039 0.0000
186    -56.4809003482  -0.000013510092 0.00119535  0.00003636  0.0019095 0.0000
187    -56.4809138504  -0.000013502206 0.00118576  0.00003611  0.0019152 0.0000
188    -56.4809273371  -0.000013486693 0.00117520  0.00003584  0.0019208 0.0000
189    -56.4809408004  -0.000013463347 0.00116366  0.00003554  0.0019264 0.0000
190    -56.4809542325  -0.000013432089 0.00115113  0.00003522  0.0019319 0.0000
191    -56.4809676255  -0.000013392991 0.00113763  0.00003486  0.0019374 0.0000
192    -56.4809809718  -0.000013346286 0.00112319  0.00003448  0.0019429 0.0000
193    -56.4809942642  -0.000013292374 0.00110788  0.00003408  0.0019483 0.0000
194    -56.4810074960  -0.000013231828 0.00109174  0.00003366  0.0019537 0.0000
195    -56.4810206614  -0.000013165379 0.00107486  0.00003321  0.0019589 0.0000
196    -56.4810337553  -0.000013093906 0.00105733  0.00003275  0.0019642 0.0000
197    -56.4810467737  -0.000013018408 0.00103926  0.00003227  0.0019693 0.0000
198    -56.4810597137  -0.000012939979 0.00102074  0.00003178  0.0019744 0.0000
199    -56.4810725735  -0.000012859779 0.00100188  0.00003129  0.0019795 0.0000
200    -56.4810853525  -0.000012779001 0.00098279  0.00003079  0.0019844 0.0000
201    -56.4810980513  -0.000012698842 0.00096357  0.00003029  0.0019893 0.0000
202    -56.4811106718  -0.000012620475 0.00094432  0.00002978  0.0019941 0.0000
203    -56.4811232168  -0.000012545027 0.00092513  0.00002929  0.0019988 0.0000
204    -56.4811356904  -0.000012473560 0.00090609  0.00002880  0.0020035 0.0000
205    -56.4811480974  -0.000012407060 0.00088726  0.00002831  0.0020081 0.0000
206    -56.4811604439  -0.000012346427 0.00086872  0.00002784  0.0020126 0.0000
207    -56.4811727363  -0.000012292473 0.00085052  0.00002738  0.0020170 0.0000
208    -56.4811849823  -0.000012245919 0.00083270  0.00002693  0.0020214 0.0000
209    -56.4811971897  -0.000012207399 0.00081531  0.00002650  0.0020257 0.0000
210    -56.4812093671  -0.000012177467 0.00079837  0.00002609  0.0020299 0.0000
211    -56.4812215237  -0.000012156600 0.00078190  0.00002569  0.0020341 0.0000
212    -56.4812336689  -0.000012145207 0.00076593  0.00002530  0.0020383 0.0000
213    -56.4812458126  -0.000012143638 0.00075046  0.00002493  0.0020423 0.0000
214    -56.4812579648  -0.000012152191 0.00073550  0.00002459  0.0020464 0.0000
215    -56.4812701359  -0.000012171118 0.00072105  0.00002425  0.0020503 0.0000
216    -56.4812823365  -0.000012200638 0.00070711  0.00002394  0.0020543 0.0000
217    -56.4812945774  -0.000012240934 0.00069367  0.00002364  0.0020582 0.0000
218    -56.4813068696  -0.000012292175 0.00068073  0.00002336  0.0020620 0.0000
219    -56.4813192241  -0.000012354500 0.00066827  0.00002310  0.0020658 0.0000
220    -56.4813316522  -0.000012428054 0.00065629  0.00002285  0.0020696 0.0000
221    -56.4813441651  -0.000012512943 0.00064478  0.00002262  0.0020733 0.0000
222    -56.4813567744  -0.000012609330 0.00063372  0.00002240  0.0020770 0.0000
223    -56.4813694917  -0.000012717248 0.00062310  0.00002220  0.0020807 0.0000
224    -56.4813823287  -0.000012837019 0.00061289  0.00002202  0.0020844 0.0000
225    -56.4813952970  -0.000012968321 0.00060312  0.00002185  0.0020881 0.0000
226    -56.4814084094  -0.000013112367 0.00059368  0.00002169  0.0020917 0.0000
227    -56.4814216761  -0.000013266659 0.00058480  0.00002156  0.0020953 0.0000
228    -56.4814351141  -0.000013438064 0.00057581  0.00002142  0.0020989 0.0000
229    -56.4814487234  -0.000013609234 0.00056845  0.00002134  0.0021025 0.0000
230    -56.4814625508  -0.000013827413 0.00055797  0.00002114  0.0021061 0.0000
231    -56.4814765137  -0.000013962910 0.00055737  0.00002134  0.0021097 0.0000
232    -56.4814908976  -0.000014383892 0.00053011  0.00002043  0.0021133 0.0000
233    -56.4815049191  -0.000014021510 0.00058104  0.00002282  0.0021168 0.0000
234    -56.4815209738  -0.000016054761 0.00040121  0.00001533  0.0021207 0.0000
235    -56.4815317578  -0.000010783963 0.00094560  0.00003785  0.0021234 0.0000
236    -56.4815599248  -0.000028166940 0.00107412  0.00003660  0.0021298 0.0000
237    -56.4815318020   0.000028122703 0.00171119  0.00006949  0.0021242 0.0000
238    -56.4815838132  -0.000052011159 0.00062508  0.00002264  0.0021360 0.0000
239    -56.4815677613   0.000016051954 0.00155589  0.00006223  0.0021321 0.0000
240    -56.4816163618  -0.000048600538 0.00228855  0.00007479  0.0021428 0.0000
241    -56.4815559912   0.000060370541 0.00067498  0.00001780  0.0021312 0.0000
242    -56.4815469438   0.000009047473 0.00138440  0.00004324  0.0021308 0.0000
243    -56.4815638702  -0.000016926405 0.00215379  0.00005939  0.0021376 0.0000
244    -56.4815419680   0.000021902222 0.00451819  0.00013450  0.0021382 0.0000
245    -56.4815187601   0.000023207836 0.00550277  0.00017842  0.0021447 0.0000
246    -56.4815749926  -0.000056232444 0.01121283  0.00038755  0.0021687 0.0000
247    -56.4816942523  -0.000119259749 0.00454602  0.00014632  0.0022206 0.0000
248    -56.4817587381  -0.000064485746 0.00124899  0.00004944  0.0022396 0.0000
249    -56.4817817183  -0.000022980225 0.00187544  0.00007224  0.0022442 0.0000
250    -56.4817606667   0.000021051565 0.00073732  0.00002588  0.0022356 0.0000
251    -56.4817695695  -0.000008902748 0.00233505  0.00007909  0.0022390 0.0000
252    -56.4818006414  -0.000031071954 0.00270709  0.00008857  0.0022497 0.0000
253    -56.4818448056  -0.000044164195 0.00114767  0.00004070  0.0022619 0.0000
254    -56.4818356919   0.000009113735 0.00138575  0.00004552  0.0022579 0.0000
255    -56.4818586685  -0.000022976637 0.00064412  0.00002397  0.0022642 0.0000
256    -56.4818458346   0.000012833948 0.00249617  0.00008226  0.0022611 0.0000
257    -56.4818877149  -0.000041880296 0.00127470  0.00004613  0.0022727 0.0000
258    -56.4819131311  -0.000025416190 0.00139904  0.00004649  0.0022789 0.0000
259    -56.4818898425   0.000023288545 0.00179463  0.00006044  0.0022725 0.0000
260    -56.4819223288  -0.000032486264 0.00033933  0.00001134  0.0022809 0.0000
261    -56.4819273970  -0.000005068270 0.00241779  0.00008449  0.0022824 0.0000
262    -56.4819757173  -0.000048320218 0.00241189  0.00008409  0.0022942 0.0000
263    -56.4819280208   0.000047696466 0.00052841  0.00001994  0.0022826 0.0000
264    -56.4819393445  -0.000011323701 0.00209602  0.00007305  0.0022853 0.0000
265    -56.4819813633  -0.000042018763 0.00055608  0.00001943  0.0022955 0.0000
266    -56.4819921149  -0.000010751671 0.00069238  0.00002678  0.0022981 0.0000
267    -56.4820082773  -0.000016162413 0.00117320  0.00004366  0.0023017 0.0000
268    -56.4819815938   0.000026683567 0.00214193  0.00007852  0.0022958 0.0000
269    -56.4820297283  -0.000048134539 0.00097714  0.00003449  0.0023067 0.0000
270    -56.4820506945  -0.000020966153 0.00046106  0.00001719  0.0023116 0.0000
271    -56.4820398484   0.000010846039 0.00120088  0.00004548  0.0023092 0.0000
272    -56.4820692876  -0.000029439187 0.00057049  0.00002284  0.0023155 0.0000
273    -56.4820541863   0.000015101329 0.00301732  0.00011562  0.0023125 0.0000
274    -56.4821320427  -0.000077856447 0.00457825  0.00017357  0.0023289 0.0000
275    -56.4820160490   0.000115993743 0.00224370  0.00006354  0.0023056 0.0000
276    -56.4819789640   0.000037084962 0.00378295  0.00009781  0.0022990 0.0000
277    -56.4819335170   0.000045447036 0.00414090  0.00009944  0.0022913 0.0000
278    -56.4819074055   0.000026111453 0.00199339  0.00005577  0.0022875 0.0000
279    -56.4819174459  -0.000010040353 0.00283322  0.00009134  0.0022908 0.0000
280    -56.4819601174  -0.000042671472 0.00116786  0.00003778  0.0023014 0.0000
281    -56.4819779399  -0.000017822547 0.00243954  0.00007884  0.0023059 0.0000
282    -56.4820153320  -0.000037392068 0.00059987  0.00002086  0.0023155 0.0000
283    -56.4820066313   0.000008700638 0.00174976  0.00005723  0.0023131 0.0000
284    -56.4820329973  -0.000026365991 0.00214961  0.00007003  0.0023201 0.0000
285    -56.4820666705  -0.000033673143 0.00114159  0.00003756  0.0023287 0.0000
286    -56.4820848954  -0.000018224881 0.00130822  0.00004300  0.0023332 0.0000
287    -56.4821058844  -0.000020989081 0.00069582  0.00002300  0.0023384 0.0000
288    -56.4821171849  -0.000011300413 0.00169661  0.00005575  0.0023412 0.0000
289    -56.4821445387  -0.000027353835 0.00154941  0.00005126  0.0023479 0.0000
290    -56.4821700113  -0.000025472659 0.00100182  0.00003343  0.0023540 0.0000
291    -56.4821867997  -0.000016788328 0.00117637  0.00003933  0.0023579 0.0000
292    -56.4822066837  -0.000019884010 0.00106085  0.00003556  0.0023625 0.0000
293    -56.4822247882  -0.000018104469 0.00143405  0.00004814  0.0023666 0.0000
294    -56.4822494671  -0.000024678908 0.00109220  0.00003691  0.0023721 0.0000
295    -56.4822686058  -0.000019138733 0.00100705  0.00003429  0.0023763 0.0000
296    -56.4822865857  -0.000017979888 0.00110663  0.00003782  0.0023802 0.0000
297    -56.4823066051  -0.000020019369 0.00103180  0.00003539  0.0023844 0.0000
298    -56.4823255168  -0.000018911706 0.00114486  0.00003944  0.0023884 0.0000
299    -56.4823468168  -0.000021300019 0.00086420  0.00003000  0.0023927 0.0000
300    -56.4823632219  -0.000016405104 0.00103474  0.00003619  0.0023960 0.0000
301    -56.4823832754  -0.000020053523 0.00090139  0.00003166  0.0023999 0.0000
302    -56.4824010154  -0.000017739985 0.00096247  0.00003400  0.0024034 0.0000
303    -56.4824203109  -0.000019295529 0.00088322  0.00003139  0.0024070 0.0000
304    -56.4824383559  -0.000018045026 0.00082304  0.00002952  0.0024104 0.0000
305    -56.4824555873  -0.000017231365 0.00092932  0.00003359  0.0024135 0.0000
306    -56.4824754786  -0.000019891276 0.00070181  0.00002543  0.0024170 0.0000
307    -56.4824907087  -0.000015230141 0.00098160  0.00003604  0.0024197 0.0000
308    -56.4825127069  -0.000021998189 0.00051903  0.00001897  0.0024235 0.0000
309    -56.4825243628  -0.000011655924 0.00112414  0.00004217  0.0024255 0.0000
310    -56.4825510002  -0.000026637357 0.00020816  0.00000733  0.0024299 0.0000
311    -56.4825553907  -0.000004390520 0.00148590  0.00005701  0.0024307 0.0000
312    -56.4825926898  -0.000037299064 0.00060635  0.00002250  0.0024365 0.0000
313    -56.4825774934   0.000015196370 0.00165334  0.00006453  0.0024343 0.0000
314    -56.4826207469  -0.000043253505 0.00008704  0.00000299  0.0024409 0.0000
315    -56.4826223573  -0.000001610336 0.00131376  0.00005227  0.0024413 0.0000
316    -56.4826587827  -0.000036425446 0.00059285  0.00001946  0.0024466 0.0000
317    -56.4826447035   0.000014079171 0.00106741  0.00004282  0.0024448 0.0000
318    -56.4826750256  -0.000030322038 0.00161786  0.00006202  0.0024491 0.0000
319    -56.4827209120  -0.000045886421 0.00267715  0.00009182  0.0024555 0.0000
320    -56.4826528189   0.000068093060 0.00120134  0.00004501  0.0024465 0.0000
321    -56.4826833469  -0.000030528011 0.00062973  0.00002211  0.0024510 0.0000
322    -56.4826969780  -0.000013631023 0.00141954  0.00005434  0.0024531 0.0000
323    -56.4827353398  -0.000038361857 0.00142309  0.00003771  0.0024585 0.0000
324    -56.4827646791  -0.000029339257 0.00357075  0.00011693  0.0024620 0.0000
325    -56.4826762444   0.000088434641 0.00114543  0.00003936  0.0024507 0.0000
326    -56.4826976412  -0.000021396729 0.00077545  0.00003130  0.0024542 0.0000
327    -56.4827032455  -0.000005604379 0.00162452  0.00004899  0.0024556 0.0000
328    -56.4827023613   0.000000884219 0.00333869  0.00008620  0.0024565 0.0000
329    -56.4826936070   0.000008754367 0.00393708  0.00014382  0.0024571 0.0000
330    -56.4827816574  -0.000088050438 0.00680272  0.00024183  0.0024678 0.0000
331    -56.4828971691  -0.000115511676 0.00501104  0.00017974  0.0024820 0.0000
332    -56.4829949530  -0.000097783927 0.00346471  0.00013045  0.0024909 0.0000
333    -56.4829424117   0.000052541269 0.00053587  0.00001990  0.0024851 0.0000
334    -56.4829298667   0.000012545030 0.00722963  0.00026051  0.0024838 0.0000
335    -56.4830752658  -0.000145399058 0.00483657  0.00017636  0.0024968 0.0000
336    -56.4829843826   0.000090883184 0.00390269  0.00014392  0.0024898 0.0000
337    -56.4830738894  -0.000089506844 0.00160073  0.00005893  0.0024969 0.0000
338    -56.4831100597  -0.000036170301 0.00457206  0.00016766  0.0024994 0.0000
339    -56.4830118552   0.000098204509 0.00374932  0.00014022  0.0024922 0.0000
340    -56.4831037265  -0.000091871260 0.00109864  0.00002462  0.0024996 0.0000
341    -56.4831218366  -0.000018110088 0.00102219  0.00002536  0.0025011 0.0000
342    -56.4831167499   0.000005086635 0.00111633  0.00002968  0.0025004 0.0000
343    -56.4831391404  -0.000022390525 0.00073779  0.00003077  0.0025023 0.0000
344    -56.4831353373   0.000003803148 0.00369618  0.00014467  0.0025025 0.0000
345    -56.4832410513  -0.000105714018 0.00632500  0.00024022  0.0025101 0.0000
346    -56.4830579363   0.000183115051 0.00338936  0.00009799  0.0024969 0.0000
347    -56.4829901172   0.000067819055 0.00522262  0.00014655  0.0024919 0.0000
348    -56.4829020151   0.000088102113 0.00519127  0.00011963  0.0024855 0.0000
349    -56.4828510364   0.000050978680 0.00251135  0.00005016  0.0024819 0.0000
350    -56.4828533471  -0.000002310729 0.00244220  0.00008660  0.0024818 0.0000
351    -56.4829004986  -0.000047151406 0.00120874  0.00004345  0.0024840 0.0000
352    -56.4829244438  -0.000023945234 0.00250617  0.00009031  0.0024852 0.0000
353    -56.4829746626  -0.000050218803 0.00057638  0.00001461  0.0024880 0.0000
354    -56.4829701784   0.000004484178 0.00117800  0.00004394  0.0024877 0.0000
355    -56.4829937040  -0.000023525567 0.00169316  0.00006228  0.0024890 0.0000
356    -56.4830292171  -0.000035513132 0.00101753  0.00003801  0.0024908 0.0000
357    -56.4830512064  -0.000021989305 0.00113146  0.00004238  0.0024918 0.0000
358    -56.4830759901  -0.000024783699 0.00039698  0.00001527  0.0024929 0.0000
359    -56.4830850269  -0.000009036756 0.00132952  0.00005037  0.0024933 0.0000
360    -56.4831149757  -0.000029948780 0.00099812  0.00003822  0.0024945 0.0000
361    -56.4831381392  -0.000023163512 0.00072722  0.00002828  0.0024954 0.0000
362    -56.4831555362  -0.000017396997 0.00085180  0.00003337  0.0024960 0.0000
363    -56.4831763569  -0.000020820723 0.00059177  0.00002339  0.0024967 0.0000
364    -56.4831911488  -0.000014791944 0.00118935  0.00004736  0.0024971 0.0000
365    -56.4832215527  -0.000030403868 0.00027929  0.00001090  0.0024980 0.0000
366    -56.4832284943  -0.000006941636 0.00118449  0.00004878  0.0024982 0.0000
367    -56.4832609828  -0.000032488426 0.00005791  0.00000158  0.0024990 0.0000
368    -56.4832608277   0.000000155048 0.00143843  0.00006076  0.0024990 0.0000
369    -56.4833026902  -0.000041862514 0.00045440  0.00001559  0.0025000 0.0000
370    -56.4832916453   0.000011044927 0.00128586  0.00005564  0.0024998 0.0000
371    -56.4833310417  -0.000039396444 0.00030892  0.00001294  0.0025006 0.0000
372    -56.4833402468  -0.000009205035 0.00070322  0.00003077  0.0025008 0.0000
373    -56.4833627892  -0.000022542428 0.00067406  0.00002929  0.0025013 0.0000
374    -56.4833845387  -0.000021749457 0.00027698  0.00000868  0.0025017 0.0000
375    -56.4833778695   0.000006669161 0.00232476  0.00009150  0.0025015 0.0000
376    -56.4834495311  -0.000071661610 0.00363856  0.00012742  0.0025030 0.0000
377    -56.4833504372   0.000099093923 0.00045508  0.00001890  0.0025010 0.0000
378    -56.4833556452  -0.000005208007 0.00144318  0.00003409  0.0025007 0.0000
379    -56.4833436855   0.000011959660 0.00291030  0.00006772  0.0024998 0.0000
380    -56.4833197525   0.000023933001 0.00364830  0.00008964  0.0024985 0.0000
381    -56.4833135215   0.000006231045 0.00328322  0.00012164  0.0024972 0.0000
382    -56.4833793980  -0.000065876556 0.00587692  0.00023034  0.0024942 0.0000
383    -56.4834870793  -0.000107681230 0.00523383  0.00018903  0.0024872 0.0000
384    -56.4835902356  -0.000103156287 0.00391138  0.00013728  0.0024776 0.0000
385    -56.4836680740  -0.000077838444 0.00282587  0.00009883  0.0024682 0.0000
386    -56.4837250710  -0.000056997024 0.00147175  0.00005297  0.0024604 0.0000
387    -56.4837558895  -0.000030818473 0.00038127  0.00001498  0.0024561 0.0000
388    -56.4837645979  -0.000008708368 0.00115170  0.00004029  0.0024550 0.0000
389    -56.4837883252  -0.000023727314 0.00179369  0.00006237  0.0024517 0.0000
390    -56.4838256027  -0.000037277559 0.00160345  0.00005610  0.0024463 0.0000
391    -56.4838598321  -0.000034229307 0.00089188  0.00003210  0.0024412 0.0000
392    -56.4838798139  -0.000019981839 0.00063756  0.00002316  0.0024383 0.0000
393    -56.4838944533  -0.000014639375 0.00104555  0.00003704  0.0024362 0.0000
394    -56.4839179210  -0.000023467707 0.00119437  0.00004223  0.0024327 0.0000
395    -56.4839450503  -0.000027129336 0.00089310  0.00003201  0.0024286 0.0000
396    -56.4839660447  -0.000020994421 0.00067581  0.00002487  0.0024256 0.0000
397    -56.4839826959  -0.000016651197 0.00075636  0.00002774  0.0024232 0.0000
398    -56.4840015107  -0.000018814749 0.00090205  0.00003277  0.0024206 0.0000
399    -56.4840239657  -0.000022455073 0.00076949  0.00002805  0.0024174 0.0000
400    -56.4840435086  -0.000019542813 0.00067808  0.00002542  0.0024147 0.0000
401    -56.4840616359  -0.000018127365 0.00063370  0.00002400  0.0024123 0.0000
402    -56.4840790562  -0.000017420285 0.00075157  0.00002837  0.0024101 0.0000
403    -56.4840999453  -0.000020889130 0.00062255  0.00002328  0.0024075 0.0000
404    -56.4841172840  -0.000017338654 0.00071184  0.00002763  0.0024053 0.0000
405    -56.4841384431  -0.000021159065 0.00042499  0.00001631  0.0024028 0.0000
406    -56.4841510597  -0.000012616666 0.00093282  0.00003741  0.0024013 0.0000
407    -56.4841808966  -0.000029836829 0.00020667  0.00000577  0.0023981 0.0000
408    -56.4841765631   0.000004333460 0.00154407  0.00006400  0.0023982 0.0000
409    -56.4842296000  -0.000053036903 0.00152472  0.00005889  0.0023931 0.0000
410    -56.4841802911   0.000049308937 0.00119833  0.00004733  0.0023972 0.0000
411    -56.4842187395  -0.000038448433 0.00140358  0.00005863  0.0023929 0.0000
412    -56.4842689221  -0.000050182652 0.00149936  0.00006156  0.0023883 0.0000
413    -56.4842161490   0.000052773102 0.00114871  0.00004579  0.0023931 0.0000
414    -56.4842545294  -0.000038380328 0.00026197  0.00000937  0.0023891 0.0000
415    -56.4842620748  -0.000007545418 0.00210590  0.00008339  0.0023880 0.0000
416    -56.4843374771  -0.000075402317 0.00390753  0.00014345  0.0023821 0.0000
417    -56.4842104862   0.000126990905 0.00241216  0.00007308  0.0023913 0.0000
418    -56.4841551430   0.000055343175 0.00377733  0.00010226  0.0023937 0.0000
419    -56.4840989503   0.000056192707 0.00452101  0.00011789  0.0023939 0.0000
420    -56.4840657529   0.000033197461 0.00238300  0.00007308  0.0023921 0.0000
421    -56.4840811848  -0.000015431952 0.00237474  0.00007680  0.0023846 0.0000
422    -56.4841227967  -0.000041611886 0.00174636  0.00005628  0.0023712 0.0000
423    -56.4841538264  -0.000031029728 0.00459376  0.00014785  0.0023612 0.0000
424    -56.4842366505  -0.000082824079 0.00365323  0.00011676  0.0023343 0.0000
425    -56.4843052953  -0.000068644835 0.00088612  0.00003232  0.0023116 0.0000
426    -56.4843240372  -0.000018741844 0.00028626  0.00001140  0.0023060 0.0000
427    -56.4843198600   0.000004177193 0.00111294  0.00003581  0.0023080 0.0000
428    -56.4843412589  -0.000021398896 0.00162432  0.00005296  0.0023009 0.0000
429    -56.4843738310  -0.000032572109 0.00153432  0.00005069  0.0022904 0.0000
430    -56.4844059341  -0.000032103099 0.00038151  0.00001089  0.0022803 0.0000
431    -56.4844123072  -0.000006373107 0.00058254  0.00002053  0.0022788 0.0000
432    -56.4844257665  -0.000013459324 0.00102917  0.00003463  0.0022750 0.0000
433    -56.4844484585  -0.000022691943 0.00106500  0.00003618  0.0022681 0.0000
434    -56.4844727418  -0.000024283349 0.00058118  0.00002042  0.0022610 0.0000
435    -56.4844867474  -0.000014005615 0.00049497  0.00001856  0.0022571 0.0000
436    -56.4844997700  -0.000013022586 0.00078611  0.00002810  0.0022538 0.0000
437    -56.4845196958  -0.000019925816 0.00072102  0.00002511  0.0022485 0.0000
438    -56.4845376149  -0.000017919056 0.00072990  0.00002681  0.0022435 0.0000
439    -56.4845573903  -0.000019775450 0.00025948  0.00000954  0.0022386 0.0000
440    -56.4845644608  -0.000007070456 0.00108807  0.00004233  0.0022368 0.0000
441    -56.4845970092  -0.000032548376 0.00057385  0.00001780  0.0022295 0.0000
442    -56.4845832970   0.000013712216 0.00156825  0.00006039  0.0022316 0.0000
443    -56.4846308942  -0.000047597274 0.00071577  0.00002521  0.0022211 0.0000
444    -56.4846108084   0.000020085807 0.00135251  0.00005076  0.0022253 0.0000
445    -56.4846519080  -0.000041099610 0.00023766  0.00000839  0.0022167 0.0000
446    -56.4846577346  -0.000005826531 0.00060539  0.00002252  0.0022149 0.0000
447    -56.4846765607  -0.000018826146 0.00109630  0.00003869  0.0022112 0.0000
448    -56.4847100034  -0.000033442734 0.00205727  0.00006539  0.0022050 0.0000
449    -56.4846539962   0.000056007260 0.00175275  0.00006647  0.0022142 0.0000
450    -56.4847100236  -0.000056027391 0.00179858  0.00005577  0.0022026 0.0000
451    -56.4847604454  -0.000050421809 0.00386417  0.00011704  0.0021952 0.0000
452    -56.4846582503   0.000102195086 0.00182155  0.00004403  0.0022101 0.0000
453    -56.4846303300   0.000027920285 0.00426029  0.00010373  0.0022104 0.0000
454    -56.4845730943   0.000057235761 0.00509166  0.00012178  0.0022131 0.0000
455    -56.4845499280   0.000023166246 0.00301737  0.00008411  0.0022064 0.0000
456    -56.4845674468  -0.000017518829 0.00244578  0.00007545  0.0021934 0.0000
457    -56.4846105778  -0.000043131007 0.00121062  0.00003819  0.0021731 0.0000
458    -56.4846333138  -0.000022735986 0.00220082  0.00007080  0.0021630 0.0000
459    -56.4846772614  -0.000043947609 0.00107179  0.00004068  0.0021448 0.0000
460    -56.4846584358   0.000018825615 0.00081155  0.00002954  0.0021538 0.0000
461    -56.4846730018  -0.000014565955 0.00182254  0.00005872  0.0021470 0.0000
462    -56.4847101729  -0.000037171136 0.00042704  0.00001268  0.0021319 0.0000
463    -56.4847176080  -0.000007435078 0.00138029  0.00004008  0.0021293 0.0000
464    -56.4847443146  -0.000026706621 0.00091195  0.00002730  0.0021199 0.0000
465    -56.4847259971   0.000018317543 0.00168242  0.00005437  0.0021263 0.0000
466    -56.4847623285  -0.000036331393 0.00110259  0.00003310  0.0021133 0.0000
467    -56.4847854027  -0.000023074186 0.00027471  0.00001017  0.0021053 0.0000
468    -56.4847793318   0.000006070825 0.00178576  0.00004750  0.0021073 0.0000
469    -56.4848136662  -0.000034334416 0.00160499  0.00003794  0.0020968 0.0000
470    -56.4847861748   0.000027491426 0.00277202  0.00007518  0.0021041 0.0000
471    -56.4848412711  -0.000055096313 0.00080416  0.00002433  0.0020875 0.0000
472    -56.4848247883   0.000016482802 0.00116378  0.00002969  0.0020920 0.0000
473    -56.4848471470  -0.000022358624 0.00155431  0.00004128  0.0020857 0.0000
474    -56.4848786788  -0.000031531867 0.00279813  0.00006399  0.0020773 0.0000
475    -56.4848292824   0.000049396379 0.00252056  0.00006606  0.0020886 0.0000
476    -56.4848794148  -0.000050132344 0.00161466  0.00003500  0.0020740 0.0000
477    -56.4849076564  -0.000028241577 0.00189378  0.00003919  0.0020686 0.0000
478    -56.4848761002   0.000031556174 0.00083887  0.00002606  0.0020742 0.0000
479    -56.4848958744  -0.000019774216 0.00024754  0.00000708  0.0020676 0.0000
480    -56.4848998854  -0.000004011045 0.00393411  0.00009255  0.0020653 0.0000
481    -56.4849773402  -0.000077454743 0.00714459  0.00016760  0.0020477 0.0000
482    -56.4848417615   0.000135578648 0.00450322  0.00008868  0.0020801 0.0000
483    -56.4847813653   0.000060396234 0.00614396  0.00011156  0.0020916 0.0000
484    -56.4847240721   0.000057293196 0.00497017  0.00008512  0.0021012 0.0000
485    -56.4847048422   0.000019229863 0.00220200  0.00005190  0.0020999 0.0000
486    -56.4847176488  -0.000012806568 0.00203029  0.00005971  0.0020872 0.0000
487    -56.4847446981  -0.000027049249 0.00197300  0.00005705  0.0020670 0.0000
488    -56.4847714610  -0.000026762975 0.00652476  0.00018963  0.0020472 0.0000
489    -56.4848614672  -0.000090006112 0.00779291  0.00022297  0.0019803 0.0000
490    -56.4849735940  -0.000112126829 0.00208420  0.00006292  0.0018961 0.0000
491    -56.4850072211  -0.000033627118 0.00108244  0.00003256  0.0018721 0.0000
492    -56.4849931448   0.000014076299 0.00032870  0.00000966  0.0018840 0.0000
493    -56.4849978511  -0.000004706285 0.00110756  0.00003240  0.0018804 0.0000
494    -56.4850147570  -0.000016905953 0.00191051  0.00005810  0.0018680 0.0000
495    -56.4850474202  -0.000032663179 0.00032422  0.00000841  0.0018462 0.0000
496    -56.4850490238  -0.000001603580 0.00026126  0.00000712  0.0018460 0.0000
497    -56.4850526936  -0.000003669801 0.00062759  0.00001925  0.0018445 0.0000
498    -56.4850636616  -0.000010968048 0.00109475  0.00003489  0.0018373 0.0000
499    -56.4850846002  -0.000020938544 0.00047506  0.00001591  0.0018247 0.0000
500    -56.4850941957  -0.000009595493 0.00025076  0.00000681  0.0018192 0.0000
501    -56.4850980885  -0.000003892866 0.00066134  0.00002301  0.0018178 0.0000
502    -56.4851128035  -0.000014714939 0.00038184  0.00001123  0.0018101 0.0000
503    -56.4851193535  -0.000006549965 0.00122693  0.00004615  0.0018056 0.0000
504    -56.4851504707  -0.000031117238 0.00180385  0.00006674  0.0017913 0.0000
505    -56.4851061554   0.000044315332 0.00053156  0.00001486  0.0018099 0.0000
506    -56.4851144164  -0.000008261071 0.00073099  0.00001939  0.0018035 0.0000
507    -56.4851234112  -0.000008994809 0.00064649  0.00002245  0.0017947 0.0000
508    -56.4851246808  -0.000001269605 0.00130656  0.00004538  0.0017866 0.0000
509    -56.4851234986   0.000001182196 0.00383495  0.00011463  0.0017730 0.0000
510    -56.4851904736  -0.000066974909 0.00397049  0.00010847  0.0017256 0.0000
511    -56.4852478702  -0.000057396604 0.00293610  0.00007799  0.0016747 0.0000
512    -56.4852111011   0.000036769028 0.00127722  0.00003436  0.0017125 0.0000
513    -56.4851952419   0.000015859218 0.00088274  0.00002383  0.0017288 0.0000
514    -56.4852061799  -0.000010937963 0.00566012  0.00017022  0.0017175 0.0000
515    -56.4853158762  -0.000109696333 0.00897560  0.00028444  0.0016448 0.0000
516    -56.4851364236   0.000179452646 0.00253188  0.00008149  0.0017594 0.0000
517    -56.4850943893   0.000042034218 0.00141696  0.00004233  0.0017908 0.0000
518    -56.4850776804   0.000016708955 0.00091763  0.00002508  0.0018012 0.0000
519    -56.4850733617   0.000004318689 0.00076679  0.00001766  0.0018031 0.0000
520    -56.4850759791  -0.000002617348 0.00241778  0.00007444  0.0018005 0.0000
521    -56.4851149439  -0.000038964843 0.00090902  0.00002798  0.0017709 0.0000
522    -56.4851302255  -0.000015281574 0.00073234  0.00002347  0.0017598 0.0000
523    -56.4851175493   0.000012676159 0.00065859  0.00001726  0.0017686 0.0000
524    -56.4851259605  -0.000008411228 0.00106537  0.00003389  0.0017624 0.0000
525    -56.4851448818  -0.000018921227 0.00135811  0.00004506  0.0017495 0.0000
526    -56.4851707214  -0.000025839594 0.00118259  0.00004280  0.0017328 0.0000
527    -56.4851457866   0.000024934802 0.00035700  0.00001049  0.0017472 0.0000
528    -56.4851516079  -0.000005821366 0.00106266  0.00003413  0.0017428 0.0000
529    -56.4851712260  -0.000019618118 0.00158896  0.00005542  0.0017299 0.0000
530    -56.4852050834  -0.000033857403 0.00232606  0.00007742  0.0017104 0.0000
531    -56.4851584598   0.000046623635 0.00070512  0.00001815  0.0017356 0.0000
532    -56.4851497220   0.000008737789 0.00072226  0.00001785  0.0017381 0.0000
533    -56.4851480733   0.000001648694 0.00148478  0.00003419  0.0017337 0.0000
534    -56.4851427592   0.000005314089 0.00232248  0.00005328  0.0017283 0.0000
535    -56.4851385000   0.000004259256 0.00299601  0.00008283  0.0017196 0.0000
536    -56.4851669465  -0.000028446508 0.00700439  0.00020863  0.0016806 0.0000
537    -56.4852360760  -0.000069129473 0.00579174  0.00015855  0.0015874 0.0000
538    -56.4852995421  -0.000063466173 0.00332117  0.00008838  0.0015073 0.0000
539    -56.4853361678  -0.000036625645 0.00182729  0.00005138  0.0014598 0.0000
540    -56.4853578095  -0.000021641699 0.00069257  0.00001586  0.0014333 0.0000
541    -56.4853616687  -0.000003859259 0.00044470  0.00001000  0.0014302 0.0000
542    -56.4853641644  -0.000002495650 0.00037406  0.00001274  0.0014295 0.0000
543    -56.4853677647  -0.000003600344 0.00122017  0.00003472  0.0014250 0.0000
544    -56.4853834486  -0.000015683885 0.00070276  0.00002278  0.0014073 0.0000
545    -56.4853935142  -0.000010065584 0.00015277  0.00000340  0.0013971 0.0000
                 **** Energy Check signals convergence ****

               *****************************************************
               *                     SUCCESS                       *
               *           SCF CONVERGED AFTER 546 CYCLES          *
               *****************************************************


----------------
TOTAL SCF ENERGY
----------------

Total Energy       :          -56.48539417 Eh           -1537.04572 eV

Components:
Nuclear Repulsion  :            0.00000000 Eh               0.00000 eV
Electronic Energy  :          -56.48539417 Eh           -1537.04572 eV
One Electron Energy:          -92.42093746 Eh           -2514.90156 eV
Two Electron Energy:           35.93554329 Eh             977.85585 eV

Virial components:
Potential Energy   :          -75.04056411 Eh           -2041.95756 eV
Kinetic Energy     :           18.55516994 Eh             504.91184 eV
Virial Ratio       :            4.04418630


---------------
SCF CONVERGENCE
---------------

  Last Energy change         ...   -6.5631e-07  Tolerance :   1.0000e-06
  Last MAX-Density change    ...    6.9941e-04  Tolerance :   1.0000e-05
  Last RMS-Density change    ...    1.8243e-05  Tolerance :   1.0000e-06
  Last DIIS Error            ...    1.3977e-03  Tolerance :   1.0000e-06

             **** THE GBW FILE WAS UPDATED (73_Ta_atom73.gbw) ****
             **** DENSITY FILE WAS UPDATED (73_Ta_atom73.scfp) ****
             **** ENERGY FILE WAS UPDATED (73_Ta_atom73.en.tmp) ****
             **** THE GBW FILE WAS UPDATED (73_Ta_atom73.gbw) ****
             **** DENSITY FILE WAS UPDATED (73_Ta_atom73.scfp) ****
----------------
ORBITAL ENERGIES
----------------

  NO   OCC          E(Eh)            E(eV) 
   0   2.0000      -3.436727       -93.5181 
   1   2.0000      -1.996545       -54.3288 
   2   2.0000      -1.992766       -54.2259 
   3   2.0000      -1.992765       -54.2259 
   4   2.0000      -0.380871       -10.3640 
   5   0.6000      -0.463182       -12.6038 
   6   0.6000      -0.456869       -12.4320 
   7   0.6000      -0.223689        -6.0869 
   8   0.6000      -0.220134        -5.9902 
   9   0.6000      -0.220124        -5.9899 
  10   0.0000      -0.238505        -6.4900 
  11   0.0000      -0.238502        -6.4900 
  12   0.0000      -0.234237        -6.3739 
  13   0.0000      -0.031628        -0.8606 
  14   0.0000      -0.014454        -0.3933 
  15   0.0000      -0.013967        -0.3801 
  16   0.0000      -0.013969        -0.3801 
  17   0.0000       0.002377         0.0647 
  18   0.0000       0.003155         0.0858 
  19   0.0000       0.003005         0.0818 
  20   0.0000       0.003005         0.0818 
  21   0.0000       0.003568         0.0971 
  22   0.0000       0.062317         1.6957 
  23   0.0000       0.063773         1.7354 
  24   0.0000       0.063774         1.7354 
  25   0.0000       0.085380         2.3233 
  26   0.0000       0.087828         2.3899 
  27   0.0000       0.090288         2.4569 
  28   0.0000       0.090288         2.4569 
  29   0.0000       0.092105         2.5063 
  30   0.0000       0.130714         3.5569 
  31   0.0000       0.343993         9.3605 
  32   0.0000       0.348207         9.4752 
  33   0.0000       0.348208         9.4752 
  34   0.0000       0.395230        10.7547 
  35   0.0000       0.400548        10.8995 
  36   0.0000       0.408316        11.1109 
  37   0.0000       0.408318        11.1109 
  38   0.0000       0.412330        11.2201 
  39   0.0000       1.267296        34.4849 
  40   0.0000       1.431104        38.9423 
  41   0.0000       1.437121        39.1061 
  42   0.0000       1.437124        39.1061 
  43   0.0000       1.655027        45.0356 
  44   0.0000       1.670067        45.4448 
  45   0.0000       1.670068        45.4449 
  46   0.0000       1.660880        45.1948 
  47   0.0000       1.674517        45.5659 
  48   0.0000      26.055528       709.0070 
CleanUpVectors: The p-vectors have cracked symmetry
CleanUpVectors: The p-vectors have cracked symmetry
CleanUpVectors: The p-vectors have cracked symmetry
CleanUpVectors: The d-vectors have cracked symmetry at i=5
CleanUpVectors: The d-vectors have cracked symmetry at i=6
CleanUpVectors: The p-vectors have cracked symmetry
CleanUpVectors: The p-vectors have cracked symmetry
CleanUpVectors: The p-vectors have cracked symmetry
CleanUpVectors: The d-vectors have cracked symmetry at i=10
CleanUpVectors: The d-vectors have cracked symmetry at i=11
CleanUpVectors: The d-vectors have cracked symmetry at i=12
CleanUpVectors: The p-vectors have cracked symmetry
CleanUpVectors: The p-vectors have cracked symmetry
CleanUpVectors: The p-vectors have cracked symmetry
CleanUpVectors: The d-vectors have cracked symmetry at i=17
CleanUpVectors: The d-vectors have cracked symmetry at i=18
CleanUpVectors: The d-vectors have cracked symmetry at i=19
CleanUpVectors: The d-vectors have cracked symmetry at i=20
CleanUpVectors: The d-vectors have cracked symmetry at i=21
CleanUpVectors: The p-vectors have cracked symmetry
CleanUpVectors: The p-vectors have cracked symmetry
CleanUpVectors: The p-vectors have cracked symmetry
CleanUpVectors: The d-vectors have cracked symmetry at i=25
CleanUpVectors: The d-vectors have cracked symmetry at i=26
CleanUpVectors: The d-vectors have cracked symmetry at i=27
CleanUpVectors: The d-vectors have cracked symmetry at i=28
CleanUpVectors: The d-vectors have cracked symmetry at i=29
CleanUpVectors: The p-vectors have cracked symmetry
CleanUpVectors: The p-vectors have cracked symmetry
CleanUpVectors: The p-vectors have cracked symmetry
CleanUpVectors: The d-vectors have cracked symmetry at i=34
CleanUpVectors: The d-vectors have cracked symmetry at i=35
CleanUpVectors: The d-vectors have cracked symmetry at i=36
CleanUpVectors: The d-vectors have cracked symmetry at i=37
CleanUpVectors: The d-vectors have cracked symmetry at i=38
CleanUpVectors: The p-vectors have cracked symmetry
CleanUpVectors: The p-vectors have cracked symmetry
CleanUpVectors: The p-vectors have cracked symmetry
CleanUpVectors: The d-vectors have cracked symmetry at i=43
CleanUpVectors: The d-vectors have cracked symmetry at i=44
--------------------------
ATOM BASIS FOR ELEMENT Ta
--------------------------
 NewGTO Ta
 S 38
    1         27.123600000000         0.031051043898
    2         16.969500000000        -0.256229858256
    3         10.622800000000         0.753656521878
    4          6.644930000000        -0.622141806894
    5          3.594800000000        -0.470906334294
    6          1.050440000000         0.795693873610
    7          0.492835000000         0.532042482835
    8          0.148736000000         0.035949735317
    9          0.072228000000        -0.013043178298
   10         27.123600000000         0.000085150167
   11         16.969500000000        -0.000731285237
   12         10.622800000000         0.002215110279
   13          6.644930000000        -0.001870778755
   14          3.594800000000        -0.001548427243
   15          1.050440000000         0.003172856522
   16          0.492835000000         0.003719982618
   17          0.148736000000        -0.002100998880
   18          0.072228000000        -0.006487909489
   19         27.123600000000         0.000040391307
   20         16.969500000000        -0.000811314185
   21         10.622800000000         0.002916527919
   22          6.644930000000        -0.001791847608
   23          3.594800000000        -0.004967354441
   24          1.050440000000         0.011358212701
   25          0.492835000000         0.003105592914
   26          0.148736000000        -0.026933074487
   27          0.072228000000         0.012820084979
   28         27.123600000000        -0.000104853279
   29         16.969500000000         0.000063015038
   30         10.622800000000         0.000664274107
   31          6.644930000000         0.000564006417
   32          3.594800000000        -0.005709978622
   33          1.050440000000         0.017720840549
   34          0.492835000000        -0.016914129212
   35          0.148736000000        -0.001727147385
   36          0.072228000000         0.014651577495
   37          0.030997000000        -0.005650326407
   38          0.013300000000         0.001900601973
 P 95
    1         27.123600000000        -0.000000002834
    2         16.969500000000         0.000000029570
    3         10.622800000000        -0.000000109930
    4          6.644930000000         0.000000114738
    5          3.594800000000         0.000000118075
    6          1.050440000000        -0.000000369082
    7          0.492835000000        -0.000000360295
    8         10.622800000000         0.000000007051
    9          6.644930000000        -0.000000007530
   10         16.969500000000         0.000000002464
   11         10.622800000000        -0.000000011196
   12          6.644930000000         0.000000008697
   13          3.594800000000         0.000000032780
   14          1.050440000000        -0.000000138660
   15          0.148736000000         0.000000873784
   16         10.622800000000        -0.000000007767
   17          6.644930000000        -0.000000008338
   18          3.594800000000         0.000000114773
   19          1.050440000000        -0.000000658934
   20          0.492835000000         0.000000918210
   21          0.072228000000        -0.000002077661
   22         15.527300000000         0.024121393682
   23          9.725930000000        -0.137494084978
   24          5.238030000000         0.318576805219
   25          1.227020000000        -0.470514139140
   26          0.605381000000        -0.471013423991
   27          0.296314000000        -0.176415915738
   28          0.130511000000        -0.017865247810
   29          0.057116000000        -0.001363543893
   30         15.527300000000        -0.003015752289
   31          9.725930000000         0.017190055723
   32          5.238030000000        -0.039829735472
   33          1.227020000000         0.058825543450
   34          0.605381000000         0.058887966022
   35          0.296314000000         0.022056217345
   36          0.130511000000         0.002233584124
   37          0.057116000000         0.000170475664
   38         15.527300000000        -0.004703642598
   39          9.725930000000         0.026811180296
   40          5.238030000000        -0.062122091756
   41          1.227020000000         0.091749688129
   42          0.605381000000         0.091847048071
   43          0.296314000000         0.034400890225
   44          0.130511000000         0.003483701718
   45          0.057116000000         0.000265889410
   46         15.527300000000         0.000329773452
   47          9.725930000000        -0.001948942725
   48          5.238030000000         0.004675208584
   49          1.227020000000        -0.007901938791
   50          0.605381000000        -0.010361309682
   51          0.296314000000        -0.001124750934
   52          0.130511000000         0.018450239406
   53          0.057116000000         0.026720404261
   54         15.527300000000        -0.000041233881
   55          9.725930000000         0.000243689938
   56          5.238030000000        -0.000584574022
   57          1.227020000000         0.000988034664
   58          0.605381000000         0.001295547005
   59          0.296314000000         0.000140635475
   60          0.130511000000        -0.002306962453
   61          0.057116000000        -0.003341038997
   62         15.527300000000        -0.000064305632
   63          9.725930000000         0.000380042705
   64          5.238030000000        -0.000911662971
   65          1.227020000000         0.001540873496
   66          0.605381000000         0.002020449398
   67          0.296314000000         0.000219325782
   68          0.130511000000        -0.003597786018
   69          0.057116000000        -0.005210463384
   70         15.527300000000        -0.000126781333
   71          9.725930000000         0.000759034926
   72          5.238030000000        -0.001833225001
   73          1.227020000000         0.003089454242
   74          0.605381000000         0.004589681078
   75          0.296314000000        -0.000821031213
[...]
  BAS[ATNO][ 20].a[ 72] =         5.238030000000;     BAS[ATNO][ 20].d[ 72] =         0.000068947536;
  BAS[ATNO][ 20].a[ 73] =         1.227020000000;     BAS[ATNO][ 20].d[ 73] =        -0.000116194279;
  BAS[ATNO][ 20].a[ 74] =         0.605381000000;     BAS[ATNO][ 20].d[ 74] =        -0.000172617764;
  BAS[ATNO][ 20].a[ 75] =         0.296314000000;     BAS[ATNO][ 20].d[ 75] =         0.000030878959;
  BAS[ATNO][ 20].a[ 76] =         0.130511000000;     BAS[ATNO][ 20].d[ 76] =         0.000362561990;
  BAS[ATNO][ 20].a[ 77] =         0.057116000000;     BAS[ATNO][ 20].d[ 77] =         0.000153641138;
  BAS[ATNO][ 20].a[ 78] =        15.527300000000;     BAS[ATNO][ 20].d[ 78] =        -0.000000263625;
  BAS[ATNO][ 20].a[ 79] =         9.725930000000;     BAS[ATNO][ 20].d[ 79] =         0.000001502347;
  BAS[ATNO][ 20].a[ 80] =         5.238030000000;     BAS[ATNO][ 20].d[ 80] =        -0.000003613384;
  BAS[ATNO][ 20].a[ 81] =         1.227020000000;     BAS[ATNO][ 20].d[ 81] =         0.000008229366;
  BAS[ATNO][ 20].a[ 82] =         0.605381000000;     BAS[ATNO][ 20].d[ 82] =         0.000008544050;
  BAS[ATNO][ 20].a[ 83] =         0.296314000000;     BAS[ATNO][ 20].d[ 83] =        -0.000021623723;
  BAS[ATNO][ 20].a[ 84] =         0.057116000000;     BAS[ATNO][ 20].d[ 84] =         0.000011461472;
  BAS[ATNO][ 20].a[ 85] =        15.527300000000;     BAS[ATNO][ 20].d[ 85] =        -0.000000108220;
  BAS[ATNO][ 20].a[ 86] =         9.725930000000;     BAS[ATNO][ 20].d[ 86] =         0.000000616727;
  BAS[ATNO][ 20].a[ 87] =         5.238030000000;     BAS[ATNO][ 20].d[ 87] =        -0.000001483328;
  BAS[ATNO][ 20].a[ 88] =         1.227020000000;     BAS[ATNO][ 20].d[ 88] =         0.000003378231;
  BAS[ATNO][ 20].a[ 89] =         0.605381000000;     BAS[ATNO][ 20].d[ 89] =         0.000003507411;
  BAS[ATNO][ 20].a[ 90] =         0.296314000000;     BAS[ATNO][ 20].d[ 90] =        -0.000008876738;
  BAS[ATNO][ 20].a[ 91] =         0.057116000000;     BAS[ATNO][ 20].d[ 91] =         0.000004705040;
  BAS[ATNO][ 20].a[ 92] =        15.527300000000;     BAS[ATNO][ 20].d[ 92] =        -0.000002590075;
  BAS[ATNO][ 20].a[ 93] =         9.725930000000;     BAS[ATNO][ 20].d[ 93] =         0.000014760347;
  BAS[ATNO][ 20].a[ 94] =         5.238030000000;     BAS[ATNO][ 20].d[ 94] =        -0.000035501001;

  // Basis function  22 L = p
  InitBFNGauss(BAS[ATNO][ 21]);
  BAS[ATNO][ 21].l  = 1;
  BAS[ATNO][ 21].ng = 95;
  BAS[ATNO][ 21].a[  0] =        15.527300000000;     BAS[ATNO][ 21].d[  0] =         0.000001116845;
  BAS[ATNO][ 21].a[  1] =         9.725930000000;     BAS[ATNO][ 21].d[  1] =        -0.000006366115;
  BAS[ATNO][ 21].a[  2] =         5.238030000000;     BAS[ATNO][ 21].d[  2] =         0.000014750428;
  BAS[ATNO][ 21].a[  3] =         1.227020000000;     BAS[ATNO][ 21].d[  3] =        -0.000021785280;
  BAS[ATNO][ 21].a[  4] =         0.605381000000;     BAS[ATNO][ 21].d[  4] =        -0.000021808397;
  BAS[ATNO][ 21].a[  5] =         0.296314000000;     BAS[ATNO][ 21].d[  5] =        -0.000008168235;
  BAS[ATNO][ 21].a[  6] =        15.527300000000;     BAS[ATNO][ 21].d[  6] =         0.000000344964;
  BAS[ATNO][ 21].a[  7] =         9.725930000000;     BAS[ATNO][ 21].d[  7] =        -0.000001966325;
  BAS[ATNO][ 21].a[  8] =         5.238030000000;     BAS[ATNO][ 21].d[  8] =         0.000004556018;
  BAS[ATNO][ 21].a[  9] =         1.227020000000;     BAS[ATNO][ 21].d[  9] =        -0.000006728898;
  BAS[ATNO][ 21].a[ 10] =         0.605381000000;     BAS[ATNO][ 21].d[ 10] =        -0.000006736038;
  BAS[ATNO][ 21].a[ 11] =         0.296314000000;     BAS[ATNO][ 21].d[ 11] =        -0.000002522952;
  BAS[ATNO][ 21].a[ 12] =        15.527300000000;     BAS[ATNO][ 21].d[ 12] =        -0.000000202565;
  BAS[ATNO][ 21].a[ 13] =         9.725930000000;     BAS[ATNO][ 21].d[ 13] =         0.000001154639;
  BAS[ATNO][ 21].a[ 14] =         5.238030000000;     BAS[ATNO][ 21].d[ 14] =        -0.000002675325;
  BAS[ATNO][ 21].a[ 15] =         1.227020000000;     BAS[ATNO][ 21].d[ 15] =         0.000003951255;
  BAS[ATNO][ 21].a[ 16] =         0.605381000000;     BAS[ATNO][ 21].d[ 16] =         0.000003955448;
  BAS[ATNO][ 21].a[ 17] =         0.296314000000;     BAS[ATNO][ 21].d[ 17] =         0.000001481495;
  BAS[ATNO][ 21].a[ 18] =        15.527300000000;     BAS[ATNO][ 21].d[ 18] =        -0.000028680651;
  BAS[ATNO][ 21].a[ 19] =         9.725930000000;     BAS[ATNO][ 21].d[ 19] =         0.000169501050;
  BAS[ATNO][ 21].a[ 20] =         5.238030000000;     BAS[ATNO][ 21].d[ 20] =        -0.000406606491;
  BAS[ATNO][ 21].a[ 21] =         1.227020000000;     BAS[ATNO][ 21].d[ 21] =         0.000687237702;
  BAS[ATNO][ 21].a[ 22] =         0.605381000000;     BAS[ATNO][ 21].d[ 22] =         0.000901131082;
  BAS[ATNO][ 21].a[ 23] =         0.296314000000;     BAS[ATNO][ 21].d[ 23] =         0.000097820455;
  BAS[ATNO][ 21].a[ 24] =         0.130511000000;     BAS[ATNO][ 21].d[ 24] =        -0.001604631529;
  BAS[ATNO][ 21].a[ 25] =         0.057116000000;     BAS[ATNO][ 21].d[ 25] =        -0.002323894136;
  BAS[ATNO][ 21].a[ 26] =        15.527300000000;     BAS[ATNO][ 21].d[ 26] =        -0.000010605751;
  BAS[ATNO][ 21].a[ 27] =         9.725930000000;     BAS[ATNO][ 21].d[ 27] =         0.000062679400;
  BAS[ATNO][ 21].a[ 28] =         5.238030000000;     BAS[ATNO][ 21].d[ 28] =        -0.000150358072;
  BAS[ATNO][ 21].a[ 29] =         1.227020000000;     BAS[ATNO][ 21].d[ 29] =         0.000254132037;
  BAS[ATNO][ 21].a[ 30] =         0.605381000000;     BAS[ATNO][ 21].d[ 30] =         0.000333227174;
  BAS[ATNO][ 21].a[ 31] =         0.296314000000;     BAS[ATNO][ 21].d[ 31] =         0.000036172799;
  BAS[ATNO][ 21].a[ 32] =         0.130511000000;     BAS[ATNO][ 21].d[ 32] =        -0.000593372974;
  BAS[ATNO][ 21].a[ 33] =         0.057116000000;     BAS[ATNO][ 21].d[ 33] =        -0.000859347426;
  BAS[ATNO][ 21].a[ 34] =        15.527300000000;     BAS[ATNO][ 21].d[ 34] =         0.000004961370;
  BAS[ATNO][ 21].a[ 35] =         9.725930000000;     BAS[ATNO][ 21].d[ 35] =        -0.000029321422;
  BAS[ATNO][ 21].a[ 36] =         5.238030000000;     BAS[ATNO][ 21].d[ 36] =         0.000070337503;
  BAS[ATNO][ 21].a[ 37] =         1.227020000000;     BAS[ATNO][ 21].d[ 37] =        -0.000118882962;
  BAS[ATNO][ 21].a[ 38] =         0.605381000000;     BAS[ATNO][ 21].d[ 38] =        -0.000155883666;
  BAS[ATNO][ 21].a[ 39] =         0.296314000000;     BAS[ATNO][ 21].d[ 39] =        -0.000016921635;
  BAS[ATNO][ 21].a[ 40] =         0.130511000000;     BAS[ATNO][ 21].d[ 40] =         0.000277579867;
  BAS[ATNO][ 21].a[ 41] =         0.057116000000;     BAS[ATNO][ 21].d[ 41] =         0.000402002711;
  BAS[ATNO][ 21].a[ 42] =        15.527300000000;     BAS[ATNO][ 21].d[ 42] =         0.000032779847;
  BAS[ATNO][ 21].a[ 43] =         9.725930000000;     BAS[ATNO][ 21].d[ 43] =        -0.000196251674;
  BAS[ATNO][ 21].a[ 44] =         5.238030000000;     BAS[ATNO][ 21].d[ 44] =         0.000473988038;
  BAS[ATNO][ 21].a[ 45] =         1.227020000000;     BAS[ATNO][ 21].d[ 45] =        -0.000798791394;
  BAS[ATNO][ 21].a[ 46] =         0.605381000000;     BAS[ATNO][ 21].d[ 46] =        -0.001186681355;
  BAS[ATNO][ 21].a[ 47] =         0.296314000000;     BAS[ATNO][ 21].d[ 47] =         0.000212281075;
  BAS[ATNO][ 21].a[ 48] =         0.130511000000;     BAS[ATNO][ 21].d[ 48] =         0.002492475544;
  BAS[ATNO][ 21].a[ 49] =         0.057116000000;     BAS[ATNO][ 21].d[ 49] =         0.001056224285;
  BAS[ATNO][ 21].a[ 50] =        15.527300000000;     BAS[ATNO][ 21].d[ 50] =         0.000012262093;
  BAS[ATNO][ 21].a[ 51] =         9.725930000000;     BAS[ATNO][ 21].d[ 51] =        -0.000073412674;
  BAS[ATNO][ 21].a[ 52] =         5.238030000000;     BAS[ATNO][ 21].d[ 52] =         0.000177306662;
  BAS[ATNO][ 21].a[ 53] =         1.227020000000;     BAS[ATNO][ 21].d[ 53] =        -0.000298807194;
  BAS[ATNO][ 21].a[ 54] =         0.605381000000;     BAS[ATNO][ 21].d[ 54] =        -0.000443906792;
  BAS[ATNO][ 21].a[ 55] =         0.296314000000;     BAS[ATNO][ 21].d[ 55] =         0.000079408858;
  BAS[ATNO][ 21].a[ 56] =         0.130511000000;     BAS[ATNO][ 21].d[ 56] =         0.000932370614;
  BAS[ATNO][ 21].a[ 57] =         0.057116000000;     BAS[ATNO][ 21].d[ 57] =         0.000395106178;
  BAS[ATNO][ 21].a[ 58] =        15.527300000000;     BAS[ATNO][ 21].d[ 58] =        -0.000005667457;
  BAS[ATNO][ 21].a[ 59] =         9.725930000000;     BAS[ATNO][ 21].d[ 59] =         0.000033930847;
  BAS[ATNO][ 21].a[ 60] =         5.238030000000;     BAS[ATNO][ 21].d[ 60] =        -0.000081949954;
  BAS[ATNO][ 21].a[ 61] =         1.227020000000;     BAS[ATNO][ 21].d[ 61] =         0.000138106687;
  BAS[ATNO][ 21].a[ 62] =         0.605381000000;     BAS[ATNO][ 21].d[ 62] =         0.000205170752;
  BAS[ATNO][ 21].a[ 63] =         0.296314000000;     BAS[ATNO][ 21].d[ 63] =        -0.000036702243;
  BAS[ATNO][ 21].a[ 64] =         0.130511000000;     BAS[ATNO][ 21].d[ 64] =        -0.000430935464;
  BAS[ATNO][ 21].a[ 65] =         0.057116000000;     BAS[ATNO][ 21].d[ 65] =        -0.000182615434;
  BAS[ATNO][ 21].a[ 66] =        15.527300000000;     BAS[ATNO][ 21].d[ 66] =        -0.000015278968;
  BAS[ATNO][ 21].a[ 67] =         9.725930000000;     BAS[ATNO][ 21].d[ 67] =         0.000087071930;
  BAS[ATNO][ 21].a[ 68] =         5.238030000000;     BAS[ATNO][ 21].d[ 68] =        -0.000209421952;
  BAS[ATNO][ 21].a[ 69] =         1.227020000000;     BAS[ATNO][ 21].d[ 69] =         0.000476951737;
  BAS[ATNO][ 21].a[ 70] =         0.605381000000;     BAS[ATNO][ 21].d[ 70] =         0.000495189951;
  BAS[ATNO][ 21].a[ 71] =         0.296314000000;     BAS[ATNO][ 21].d[ 71] =        -0.001253252366;
  BAS[ATNO][ 21].a[ 72] =         0.130511000000;     BAS[ATNO][ 21].d[ 72] =         0.000037933504;
  BAS[ATNO][ 21].a[ 73] =         0.057116000000;     BAS[ATNO][ 21].d[ 73] =         0.000664275812;
  BAS[ATNO][ 21].a[ 74] =        15.527300000000;     BAS[ATNO][ 21].d[ 74] =        -0.000006052905;
  BAS[ATNO][ 21].a[ 75] =         9.725930000000;     BAS[ATNO][ 21].d[ 75] =         0.000034494357;
  BAS[ATNO][ 21].a[ 76] =         5.238030000000;     BAS[ATNO][ 21].d[ 76] =        -0.000082964459;
  BAS[ATNO][ 21].a[ 77] =         1.227020000000;     BAS[ATNO][ 21].d[ 77] =         0.000188948877;
  BAS[ATNO][ 21].a[ 78] =         0.605381000000;     BAS[ATNO][ 21].d[ 78] =         0.000196174115;
  BAS[ATNO][ 21].a[ 79] =         0.296314000000;     BAS[ATNO][ 21].d[ 79] =        -0.000496487608;
  BAS[ATNO][ 21].a[ 80] =         0.130511000000;     BAS[ATNO][ 21].d[ 80] =         0.000015027711;
  BAS[ATNO][ 21].a[ 81] =         0.057116000000;     BAS[ATNO][ 21].d[ 81] =         0.000263159056;
  BAS[ATNO][ 21].a[ 82] =        15.527300000000;     BAS[ATNO][ 21].d[ 82] =         0.000002638509;
  BAS[ATNO][ 21].a[ 83] =         9.725930000000;     BAS[ATNO][ 21].d[ 83] =        -0.000015036362;
  BAS[ATNO][ 21].a[ 84] =         5.238030000000;     BAS[ATNO][ 21].d[ 84] =         0.000036164861;
  BAS[ATNO][ 21].a[ 85] =         1.227020000000;     BAS[ATNO][ 21].d[ 85] =        -0.000082364304;
  BAS[ATNO][ 21].a[ 86] =         0.605381000000;     BAS[ATNO][ 21].d[ 86] =        -0.000085513843;
  BAS[ATNO][ 21].a[ 87] =         0.296314000000;     BAS[ATNO][ 21].d[ 87] =         0.000216422861;
  BAS[ATNO][ 21].a[ 88] =         0.130511000000;     BAS[ATNO][ 21].d[ 88] =        -0.000006550698;
  BAS[ATNO][ 21].a[ 89] =         0.057116000000;     BAS[ATNO][ 21].d[ 89] =        -0.000114713106;
  BAS[ATNO][ 21].a[ 90] =         0.024679000000;     BAS[ATNO][ 21].d[ 90] =         0.000279886400;
  BAS[ATNO][ 21].a[ 91] =         0.024679000000;     BAS[ATNO][ 21].d[ 91] =         0.000089860785;
  BAS[ATNO][ 21].a[ 92] =         0.024679000000;     BAS[ATNO][ 21].d[ 92] =        -0.000048618037;
  BAS[ATNO][ 21].a[ 93] =         0.010700000000;     BAS[ATNO][ 21].d[ 93] =        -0.000086628851;
  BAS[ATNO][ 21].a[ 94] =         0.010700000000;     BAS[ATNO][ 21].d[ 94] =        -0.000026851621;

-------------------------------------------
RADIAL EXPECTATION VALUES <R**-3> TO <R**3>
-------------------------------------------
   0 :     0.000000     1.014523     0.965185     1.130481     1.396414     1.886135
   1 :     0.794934     0.781502     0.842951     1.307891     1.889509     3.018773
   2 :     0.793222     0.780172     0.842088     1.309916     1.896852     3.041148
   3 :     0.793222     0.780172     0.842087     1.309916     1.896854     3.041154
   4 :     0.000000     0.182269     0.369703     3.117339    11.157972    44.640706
   5 :     0.297045     0.386852     0.576995     2.027850     4.829041    65.127296
   6 :     0.000000     0.019625     0.118056     9.558048    98.277331  1073.090103
   7 :     0.000000     0.097617     0.248216     5.737168    44.011114   425.454700
   8 :     0.000000     0.469870     0.553001     3.420922    22.556867   222.893703
   9 :     0.301797     0.390079     0.580047     2.012593     4.746893    65.573525
  10 :     0.073270     0.118100     0.296524     4.014098    18.300334    93.460699
  11 :     0.073894     0.118314     0.296136     4.029312    18.465552    94.876410
  12 :     0.073885     0.118302     0.296123     4.029422    18.466390    94.878668
  13 :     0.247433     0.332373     0.525818     2.339589     6.872953   128.153120
  14 :     0.247430     0.332369     0.525814     2.339628     6.873277   128.154716
  15 :     0.247095     0.331920     0.525269     2.345295     6.922068   129.769258
  16 :     0.001728     0.008515     0.083681    12.865187   173.928022  2455.560691
  17 :     0.001753     0.008527     0.083609    12.880201   174.310703  2463.043437
  18 :     0.001752     0.008528     0.083612    12.879900   174.303696  2462.914903
  19 :     0.002361     0.012294     0.102980    10.412641   114.324347  6577.385739
  20 :     0.002319     0.012199     0.102711    10.430302   114.656651  6603.498232
  21 :     0.006063     0.016630     0.107302    10.420115   114.995407  6645.773544
  22 :     0.006063     0.016630     0.107301    10.420118   114.995482  6645.778348
  23 :     0.006096     0.016648     0.107225    10.430686   115.208395  6662.348190
  24 :     0.019407     0.033290     0.141295     9.030789    96.914611  1206.853624
  25 :     0.019835     0.033725     0.141856     9.012432    96.554619  1200.528441
  26 :     0.019835     0.033725     0.141855     9.012438    96.554620  1200.527043
  27 :     0.022793     0.046626     0.177471     7.003070    58.615160  2896.009631
  28 :     0.022737     0.046519     0.177351     6.997020    58.443671  2881.049757
  29 :     0.041753     0.067940     0.199162     6.823223    56.928027  2810.405894
  30 :     0.041753     0.067940     0.199162     6.823221    56.927984  2810.401696
  31 :     0.041860     0.068048     0.199281     6.817074    56.792826  2799.099888
  32 :     0.061066     0.100511     0.258990     5.459270    41.013126   411.804272
  33 :     0.061705     0.101188     0.259753     5.446514    40.838773   409.478755
  34 :     0.061705     0.101188     0.259754     5.446510    40.838705   409.477679
  35 :     0.088584     0.138417     0.308220     4.519426    27.587247  1110.211387
  36 :     0.088683     0.138602     0.308593     4.508443    27.436621  1101.287386
  37 :     0.109552     0.161197     0.329779     4.385167    26.580906  1069.601876
  38 :     0.109552     0.161197     0.329779     4.385165    26.580877  1069.600027
  39 :     0.109807     0.161529     0.330222     4.376692    26.472216  1063.319009
  40 :     0.454329     0.432911     0.542361     2.959864    14.863931   123.429246
  41 :     0.454254     0.432817     0.542265     2.959576    14.850179   123.183599
  42 :     0.454254     0.432817     0.542265     2.959575    14.850172   123.183492
  43 :     0.469951     0.482021     0.597768     2.546269    10.557611   346.805055
  44 :     0.480145     0.490832     0.604140     2.526013    10.451175   343.457637
  45 :     0.480145     0.490831     0.604140     2.526013    10.451172   343.457447
  46 :     0.469410     0.481574     0.597500     2.545725    10.544433   345.982476
  47 :     0.480000     0.490720     0.604084     2.525420    10.441655   342.882750
  48 :     0.000000     3.583585     1.143757     4.146155    36.773252   412.768515
Making the total density                ... o.k.
o.k.
Initializing the integrals              ... done
Making exponents                        ... done
Making rho(0)                           ... done (         0.000006019)
Integral calculation                    ... Two index integrals                     ... done
Solving the equation system             ... done
atomic density will be written to file 73_Ta_atom73.adf

-------
TIMINGS
-------

Total SCF time: 0 days 0 hours 0 min 15 sec 

Total time                  ....      15.626 sec
Sum of individual times     ....      14.906 sec  ( 95.4%)

Fock matrix formation       ....      13.395 sec  ( 85.7%)
Diagonalization             ....       1.376 sec  (  8.8%)
Density matrix formation    ....       0.022 sec  (  0.1%)
Population analysis         ....       0.000 sec  (  0.0%)
Initial guess               ....       0.000 sec  (  0.0%)
Orbital Transformation      ....       0.000 sec  (  0.0%)
Orbital Orthonormalization  ....       0.000 sec  (  0.0%)
DIIS solution               ....       0.113 sec  (  0.7%)

-------------------------   --------------------
FINAL SINGLE POINT ENERGY       -56.485394170517
-------------------------   --------------------


                            ***************************************
                            *     ORCA property calculations      *
                            ***************************************

                                    ---------------------
                                    Active property flags
                                    ---------------------
   (+) Dipole Moment


------------------------------------------------------------------------------
                       ORCA ELECTRIC PROPERTIES CALCULATION
------------------------------------------------------------------------------

Dipole Moment Calculation                       ... on
Quadrupole Moment Calculation                   ... off
Polarizability Calculation                      ... off
GBWName                                         ... 73_Ta_atom73.gbw
Electron density file                           ... 73_Ta_atom73.scfp
The origin for moment calculation is the CENTER OF MASS  = ( 0.000000,  0.000000  0.000000)

-------------
DIPOLE MOMENT
-------------
                                X             Y             Z
Electronic contribution:      0.00039      -0.00200      -0.00054
Nuclear contribution   :      0.00000       0.00000       0.00000
                        -----------------------------------------
Total Dipole Moment    :      0.00039      -0.00200      -0.00054
                        -----------------------------------------
Magnitude (a.u.)       :      0.00210
Magnitude (Debye)      :      0.00534



--------------------
Rotational spectrum 
--------------------
 
Rotational constants in cm-1:     0.000000     0.000000     0.000000 
Rotational constants in MHz :     0.000000     0.000000     0.000000 

 Dipole components along the rotational axes: 
x,y,z [a.u.] :     0.000388    -0.001995    -0.000537 
x,y,z [Debye]:     0.000987    -0.005071    -0.001365 

 

Timings for individual modules:

Sum of individual times         ...       20.071 sec (=   0.335 min)
GTO integral calculation        ...        4.284 sec (=   0.071 min)  21.3 %
SCF iterations                  ...       15.787 sec (=   0.263 min)  78.7 %
                             ****ORCA TERMINATED NORMALLY****
TOTAL RUN TIME: 0 days 0 hours 0 minutes 20 seconds 337 msec
