
                                 *****************
                                 * O   R   C   A *
                                 *****************

           --- An Ab Initio, DFT and Semiempirical electronic structure package ---

                  #######################################################
                  #                        -***-                        #
                  #          Department of theory and spectroscopy      #
                  #               Directorship: Frank Neese             #
                  #        Max Planck Institute fuer Kohlenforschung    #
                  #                Kaiser Wilhelm Platz 1               #
                  #                 D-45470 Muelheim/Ruhr               #
                  #                      Germany                        #
                  #                                                     #
                  #                  All rights reserved                #
                  #                        -***-                        #
                  #######################################################


                         Program Version 4.2.0 -  RELEASE  -


 With contributions from (in alphabetic order):
   Daniel Aravena         : Magnetic Suceptibility
   Michael Atanasov       : Ab Initio Ligand Field Theory (pilot matlab implementation)
   Alexander A. Auer      : GIAO ZORA, VPT2
   Ute Becker             : Parallelization
   Giovanni Bistoni       : ED, misc. LED, open-shell LED, HFLED
   Martin Brehm           : Molecular dynamics
   Dmytro Bykov           : SCF Hessian
   Vijay G. Chilkuri      : MRCI spin determinant printing, contributions to CSF-ICE
   Dipayan Datta          : RHF DLPNO-CCSD density
   Achintya Kumar Dutta   : EOM-CC, STEOM-CC
   Dmitry Ganyushin       : Spin-Orbit,Spin-Spin,Magnetic field MRCI
   Miquel Garcia          : C-PCM Hessian, Gaussian charge scheme
   Yang Guo               : DLPNO-NEVPT2, CIM, IAO-localization
   Andreas Hansen         : Spin unrestricted coupled pair/coupled cluster methods
   Benjamin Helmich-Paris : CASSCF linear response (MC-RPA)
   Lee Huntington         : MR-EOM, pCC
   Robert Izsak           : Overlap fitted RIJCOSX, COSX-SCS-MP3, EOM
   Christian Kollmar      : KDIIS, OOCD, Brueckner-CCSD(T), CCSD density
   Simone Kossmann        : Meta GGA functionals, TD-DFT gradient, OOMP2, MP2 Hessian
   Martin Krupicka        : AUTO-CI
   Lucas Lang             : DCDCAS
   Dagmar Lenk            : GEPOL surface, SMD
   Dimitrios Liakos       : Extrapolation schemes; Compound Job, initial MDCI parallelization
   Dimitrios Manganas     : Further ROCIS development; embedding schemes
   Dimitrios Pantazis     : SARC Basis sets
   Taras Petrenko         : DFT Hessian,TD-DFT gradient, ASA, ECA, R-Raman, ABS, FL, XAS/XES, NRVS
   Peter Pinski           : DLPNO-MP2, DLPNO-MP2 Gradient
   Christoph Reimann      : Effective Core Potentials
   Marius Retegan         : Local ZFS, SOC
   Christoph Riplinger    : Optimizer, TS searches, QM/MM, DLPNO-CCSD(T), (RO)-DLPNO pert. Triples
   Tobias Risthaus        : Range-separated hybrids, TD-DFT gradient, RPA, STAB
   Michael Roemelt        : Original ROCIS implementation
   Masaaki Saitow         : Open-shell DLPNO-CCSD energy and density
   Barbara Sandhoefer     : DKH picture change effects
   Avijit Sen             : IP-ROCIS
   Kantharuban Sivalingam : CASSCF convergence, NEVPT2, FIC-MRCI
   Bernardo de Souza      : ESD, SOC TD-DFT
   Georgi Stoychev        : AutoAux, RI-MP2 NMR
   Willem Van den Heuvel  : Paramagnetic NMR
   Boris Wezisla          : Elementary symmetry handling
   Frank Wennmohs         : Technical directorship


 We gratefully acknowledge several colleagues who have allowed us to
 interface, adapt or use parts of their codes:
   Stefan Grimme, W. Hujo, H. Kruse,             : VdW corrections, initial TS optimization,
                  C. Bannwarth                     DFT functionals, gCP, sTDA/sTD-DF
   Ed Valeev, F. Pavosevic, A. Kumar             : LibInt (2-el integral package), F12 methods
   Garnet Chan, S. Sharma, J. Yang, R. Olivares  : DMRG
   Ulf Ekstrom                                   : XCFun DFT Library
   Mihaly Kallay                                 : mrcc  (arbitrary order and MRCC methods)
   Andreas Klamt, Michael Diedenhofen            : otool_cosmo (COSMO solvation model)
   Jiri Pittner, Ondrej Demel                    : Mk-CCSD
   Frank Weinhold                                : gennbo (NPA and NBO analysis)
   Christopher J. Cramer and Donald G. Truhlar   : smd solvation model
   Lars Goerigk                                  : TD-DFT with DH, B97 family of functionals
   V. Asgeirsson, H. Jonsson                     : NEB implementation
   FAccTs GmbH                                   : IRC, NEB, NEB-TS, Multilevel, MM, QM/MM, CI optimization
   S Lehtola, MJT Oliveira, MAL Marques          : LibXC Library


 Your calculation uses the libint2 library for the computation of 2-el integrals
 For citations please refer to: http://libint.valeyev.net

 Your ORCA version has been built with support for libXC version: 4.2.3
 For citations please refer to: https://tddft.org/programs/libxc/

 This ORCA versions uses:
   CBLAS   interface :  Fast vector & matrix operations
   LAPACKE interface :  Fast linear algebra routines
   SCALAPACK package :  Parallel linear algebra routines


Setting NCore(Re) from 46 to 60
----- Orbital basis set information -----
Your calculation utilizes the basis: aug-cc-pVTZ-PP 
       Ca, Sr, Ba, Ra : Obtained from the Peterson Research Group Website (tyr0.chem.wsu.edu/~kipeters) Feb. 2017
                        H. Li, H. Feng, W. Sun, Y. Zhang, Q. Fan, K. A. Peterson, Y. Xie, H. F. Schaefer III, Mol. Phys. 111, 2292 (2013)
  Cu-Zn, Ag-Cd, Au-Hg : Obtained from the ccRepo (grant-hill.group.shef.ac.uk/ccrepo) Feb. 2017
                        K. A. Peterson, C. Puzzarini, Theor. Chem. Acc. 114, 283 (2005)
  Ga-Kr, In-Xe, Tl-Rn : Obtained from the ccRepo (grant-hill.group.shef.ac.uk/ccrepo) Feb. 2017
                        K. A. Peterson, J. Chem. Phys. 119, 11099 (2003)
                        K. A. Peterson, D. Figgen, E. Goll, H. Stoll, M. Dolg, J. Chem. Phys. 119, 11113 (2003)
                 Y-Pd : Obtained from the ccRepo (grant-hill.group.shef.ac.uk/ccrepo) Feb. 2017
                        K. A. Peterson, D. Figgen, M. Dolg, H. Stoll, J. Chem. Phys. 126, 124101 (2007)
                Hf-Pt : Obtained from the ccRepo (grant-hill.group.shef.ac.uk/ccrepo) Feb. 2017
                        D. Figgen, K. A. Peterson, M. Dolg, H. Stoll, J. Chem. Phys. 130, 164108 (2009)

cite the ECPs for Re [SK MCDHF RSC] as follows:
O: B. Metz and H. Stoll, private communication (KAP)
Tl: B. Metz, M. Schweizer, H. Stoll, M. Dolg, W. Liu, Theor. Chem. Acc. 104, 22 (2000)
Ga-As, In-Sb, Pb-Bi: B. Metz, H. Stoll, M. Dolg, J. Chem. Phys. 113, 2563 (2000)
Se-Kr, Te-Xe, Po-Rn: K.A. Peterson, D. Figgen, E. Goll, H. Stoll, and M. Dolg, J. Chem. Phys., in press (2003)
Cu-Zn, Ag-Cd, Au-Hg: D. Figgen, G. Rauhut, M. Dolg, and H. Stoll, Chem. Phys. 311, 227 (2005)
Y-Pd: K.A. Peterson, D. Figgen, M. Dolg, H. Stoll, J. Chem. Phys. 126, 124101 (2007)
I: K. A. Peterson, B. C. Shepler, D. Figgen, H. Stoll, J. Phys. Chem. A 110, 13877 (2006)
Hf-Pt: D. Figgen, K.A. Peterson, M. Dolg, H. Stoll, J. Chem. Phys. 130, 164108 (2009)
Ca, Sr, Ba, Ra: I.S. Lim, H. Stoll, P. Schwerdtfeger, J. Chem. Phys. 124, 034107 (2006)

ECP parameters for Re [SK MCDHF RSC] have been obtained from:
cc-pVDZ-PP  EMSL  Basis Set Exchange Library   4/7/16 5:27 AM
Ca, Sr, Ba, Ra: http://www.tc.uni-koeln.de/PP/index.en.html 3/16/17 1:54 PM

================================================================================
                                        WARNINGS
                       Please study these warnings very carefully!
================================================================================


WARNING: your system is open-shell and RHF/RKS was chosen
  ===> : WILL SWITCH to UHF/UKS


WARNING: MDCI localization with Augmented Hessian Foster-Boys
  ===> : Switching off randomization!

WARNING: Post HF methods need fully converged wavefunctions
  ===> : Setting SCFConvForced true
         You can overwrite this default with %scf ConvForced false 


INFO   : the flag for use of LIBINT has been found!

================================================================================
                                       INPUT FILE
================================================================================
NAME = 75_Re.in
|  1> #
|  2> # 75_Re CCSD(T)/aug-cc-pVTZ-PP
|  3> #
|  4> ! CCSD(T) aug-cc-pVTZ-PP tightscf slowconv
|  5> 
|  6> *xyz 0 6
|  7>  Re 0.0 0.0 0.0
|  8> *
|  9> 
| 10> %maxcore 5000 
| 11> 
| 12> %pal
| 13> nprocs 24
| 14> end
| 15> 
| 16> %method
| 17> NewNCore Re 60 end
| 18> end
| 19> 
| 20> 
| 21>                          ****END OF INPUT****
================================================================================

                       ****************************
                       * Single Point Calculation *
                       ****************************

---------------------------------
CARTESIAN COORDINATES (ANGSTROEM)
---------------------------------
  Re     0.000000    0.000000    0.000000

----------------------------
CARTESIAN COORDINATES (A.U.)
----------------------------
  NO LB      ZA    FRAG     MASS         X           Y           Z
   0 Re   15.0000*   0   186.207    0.000000    0.000000    0.000000
* core charge reduced due to ECP

--------------------------------
INTERNAL COORDINATES (ANGSTROEM)
--------------------------------
 Re     0   0   0     0.000000000000     0.00000000     0.00000000

---------------------------
INTERNAL COORDINATES (A.U.)
---------------------------
 Re     0   0   0     0.000000000000     0.00000000     0.00000000

---------------------
BASIS SET INFORMATION
---------------------
There are 1 groups of distinct atoms

 Group   1 Type Re  : 38s34p23d3f2g contracted to 6s6p5d3f2g pattern {999911/888811/77711/111/11}

Atom   0Re   basis set group =>   1
-------------------------
ECP PARAMETER INFORMATION
-------------------------

 Group 1, Type Re ECP SK MCDHF RSC (replacing 60 core electrons, lmax=5)

Atom   0Re   ECP group =>   1



           ************************************************************
           *        Program running with 24 parallel MPI-processes    *
           *              working on a common directory               *
           ************************************************************
------------------------------------------------------------------------------
                           ORCA GTO INTEGRAL CALCULATION
------------------------------------------------------------------------------

                         BASIS SET STATISTICS AND STARTUP INFO

 # of primitive gaussian shells          ...  100
 # of primitive gaussian functions       ...  294
 # of contracted shells                  ...   22
 # of contracted basis functions         ...   88
 Highest angular momentum                ...    4
 Maximum contraction depth               ...    9
 Integral package used                   ... LIBINT
 Integral threshhold            Thresh   ...  2.500e-11
 Primitive cut-off              TCut     ...  2.500e-12


------------------------------ INTEGRAL EVALUATION ----------------------------


 * One electron integrals 

   ECP integrals                         ... done
 Pre-screening matrix                    ... done
 Shell pair data                         ... done (   0.000 sec)



           ************************************************************
           *        Program running with 24 parallel MPI-processes    *
           *              working on a common directory               *
           ************************************************************
-------------------------------------------------------------------------------
                                 ORCA SCF
-------------------------------------------------------------------------------

------------
SCF SETTINGS
------------
Hamiltonian:
 Ab initio Hamiltonian  Method          .... Hartree-Fock(GTOs)


General Settings:
 Integral files         IntName         .... 75_Re
 Hartree-Fock type      HFTyp           .... UHF
 Total Charge           Charge          ....    0
 Multiplicity           Mult            ....    6
 Number of Electrons    NEL             ....   15
 Basis Dimension        Dim             ....   88
 Nuclear Repulsion      ENuc            ....      0.0000000000 Eh

Convergence Acceleration:
 DIIS                   CNVDIIS         .... on
   Start iteration      DIISMaxIt       ....     0
   Startup error        DIISStart       ....  0.200000
   # of expansion vecs  DIISMaxEq       ....     5
   Bias factor          DIISBfac        ....   1.050
   Max. coefficient     DIISMaxC        ....  10.000
 Newton-Raphson         CNVNR           .... off
 SOSCF                  CNVSOSCF        .... off
 Level Shifting         CNVShift        .... on
   Level shift para.    LevelShift      ....    0.2500
   Turn off err/grad.   ShiftErr        ....    0.0000
 Zerner damping         CNVZerner       .... off
 Static damping         CNVDamp         .... on
   Fraction old density DampFac         ....    0.8500
   Max. Damping (<1)    DampMax         ....    0.9800
   Min. Damping (>=0)   DampMin         ....    0.0000
   Turn off err/grad.   DampErr         ....    0.0300
 Fernandez-Rico         CNVRico         .... off

SCF Procedure:
 Maximum # iterations   MaxIter         ....   125
 SCF integral mode      SCFMode         .... Direct
   Integral package                     .... LIBINT
 Reset frequency        DirectResetFreq ....    20
 Integral Threshold     Thresh          ....  2.500e-11 Eh
 Primitive CutOff       TCut            ....  2.500e-12 Eh

Convergence Tolerance:
 Convergence Check Mode ConvCheckMode   .... Total+1el-Energy
 Convergence forced     ConvForced      .... 1
 Energy Change          TolE            ....  1.000e-08 Eh
 1-El. energy change                    ....  1.000e-05 Eh
 DIIS Error             TolErr          ....  5.000e-07


Diagonalization of the overlap matrix:
Smallest eigenvalue                        ... 2.167e-03
Time for diagonalization                   ...    0.002 sec
Threshold for overlap eigenvalues          ... 1.000e-08
Number of eigenvalues below threshold      ... 0
Time for construction of square roots      ...    0.013 sec
Total time needed                          ...    0.016 sec

-------------------
DFT GRID GENERATION
-------------------

General Integration Accuracy     IntAcc      ...  4.340
Radial Grid Type                 RadialGrid  ... Gauss-Chebyshev
Angular Grid (max. acc.)         AngularGrid ... Lebedev-110
Angular grid pruning method      GridPruning ... 3 (G Style)
Weight generation scheme         WeightScheme... Becke
Basis function cutoff            BFCut       ...    1.0000e-11
Integration weight cutoff        WCut        ...    1.0000e-14
Grids for H and He will be reduced by one unit

# of grid points (after initial pruning)     ...   3530 (   0.0 sec)
# of grid points (after weights+screening)   ...   3530 (   0.0 sec)
Grid point division into batches done        ...    0.0 sec
Reduced shell lists constructed in    0.0 sec

Total number of grid points                  ...     3530
Total number of batches                      ...       56
Average number of points per batch           ...       63
Average number of grid points per atom       ...     3530
Average number of shells per batch           ...    15.00 (68.18%)
Average number of basis functions per batch  ...    54.00 (61.36%)
Average number of large shells per batch     ...    12.00 (80.00%)
Average number of large basis fcns per batch ...    39.00 (72.22%)
Maximum spatial batch extension              ...  25.56, 38.92, 38.92 au
Average spatial batch extension              ...   1.31,  1.85,  2.08 au

Time for grid setup =    0.077 sec

------------------------------
INITIAL GUESS: MODEL POTENTIAL
------------------------------
Loading Hartree-Fock densities                     ... done
  calling /sw/apps/orca/orca_4_2_0_linux_x86-64_openmpi314/orca 75_Re_atom75.inp > 75_Re_atom75.out in order to generate an atomic fitting density for atom 0 (Re with ECP) on-the-fly... 
    atom 0 (Re), assumed electronic state with S=6: 1s2 2s2 2p6 3s2 3p6 4s2 3d10 4p6 5s2 4d10 5p6 6s2 4f14 5d5           ... done
Calculating cut-offs                               ... done
Setting up the integral package                    ... done
Initializing the effective Hamiltonian             ... done
Starting the Coulomb interaction                   ... done (   0.0 sec)
Reading the grid                                   ... done
Mapping shells                                     ... done
Starting the XC term evaluation                    ... done (   0.0 sec)
Transforming the Hamiltonian                       ... done (   0.0 sec)
Diagonalizing the Hamiltonian                      ... done (   0.0 sec)
Back transforming the eigenvectors                 ... done (   0.0 sec)
Now organizing SCF variables                       ... done
                      ------------------
                      INITIAL GUESS DONE (   6.1 sec)
                      ------------------
--------------
SCF ITERATIONS
--------------
ITER       Energy         Delta-E        Max-DP      RMS-DP      [F,P]     Damp
               ***  Starting incremental Fock matrix formation  ***
  0    -77.7103154803   0.000000000000 0.05272367  0.00136815  0.3204923 0.8500
  1    -77.7267995670  -0.016484086747 0.04759920  0.00122326  0.2757765 0.8500
                               ***Turning on DIIS***
  2    -77.7412504607  -0.014450893634 0.04075350  0.00104403  0.2360147 0.8500
  3    -77.8125728174  -0.071322356707 0.03513120  0.00089233  0.2021116 0.8500
  4    -77.8535678878  -0.040995070410 0.03054664  0.00076888  0.1731437 0.8500
  5    -77.8495248525   0.004043035284 0.02653463  0.00066453  0.1482115 0.8500
  6    -77.8389586966   0.010566155932 0.02293943  0.00057329  0.1266948 0.8500
  7    -77.8216807050   0.017277991587 0.01978685  0.00049430  0.1081614 0.8500
  8    -77.8179251866   0.003755518365 0.01696900  0.00042462  0.0921994 0.8500
  9    -77.8212295492  -0.003304362565 0.01449006  0.00036375  0.0785264 0.8500
 10    -77.8259153587  -0.004685809479 0.01235094  0.00031128  0.0668637 0.8500
 11    -77.8298083699  -0.003893011197 0.01052307  0.00026633  0.0569330 0.8500
 12    -77.8324907071  -0.002682337231 0.00896671  0.00022793  0.0484792 0.8500
 13    -77.8343789917  -0.001888284619 0.00764056  0.00019510  0.0412805 0.8500
 14    -77.8357800675  -0.001401075823 0.00650983  0.00016700  0.0351497 0.8500
 15    -77.8368396204  -0.001059552850 0.03697156  0.00095305  0.0299286 0.0000
 16    -77.8383750105  -0.001535390110 0.00209225  0.00002842  0.0012050 0.0000
 17    -77.8383290885   0.000045921986 0.00210577  0.00002598  0.0008123 0.0000
 18    -77.8390062140  -0.000677125485 0.00170433  0.00001934  0.0004473 0.0000
 19    -77.8387366762   0.000269537821 0.00124954  0.00001415  0.0002625 0.0000
               *** Restarting incremental Fock matrix formation ***
                                   *** Resetting DIIS ***
 20    -77.8380465923   0.000690083852 0.00066821  0.00000817  0.0001529 0.0000
 21    -77.8384542841  -0.000407691824 0.00066270  0.00000794  0.0001095 0.0000
 22    -77.8383791036   0.000075180504 0.00045661  0.00000540  0.0000676 0.0000
 23    -77.8382731766   0.000105927029 0.00026587  0.00000313  0.0000371 0.0000
 24    -77.8381647430   0.000108433630 0.00013666  0.00000162  0.0000191 0.0000
 25    -77.8381042390   0.000060503952 0.00006637  0.00000081  0.0000093 0.0000
 26    -77.8380729493   0.000031289690 0.00003116  0.00000041  0.0000045 0.0000
 27    -77.8380581478   0.000014801534 0.00001418  0.00000021  0.0000021 0.0000
                            ***DIIS convergence achieved***

               *****************************************************
               *                     SUCCESS                       *
               *           SCF CONVERGED AFTER  28 CYCLES          *
               *****************************************************


----------------
TOTAL SCF ENERGY
----------------

Total Energy       :          -77.83805154 Eh           -2118.08106 eV

Components:
Nuclear Repulsion  :            0.00000000 Eh               0.00000 eV
Electronic Energy  :          -77.83805154 Eh           -2118.08106 eV
One Electron Energy:         -133.01907678 Eh           -3619.63310 eV
Two Electron Energy:           55.18102524 Eh            1501.55203 eV

Virial components:
Potential Energy   :         -104.33815200 Eh           -2839.18546 eV
Kinetic Energy     :           26.50010045 Eh             721.10439 eV
Virial Ratio       :            3.93727383


---------------
SCF CONVERGENCE
---------------

  Last Energy change         ...    6.6031e-06  Tolerance :   1.0000e-08
  Last MAX-Density change    ...    7.3596e-06  Tolerance :   1.0000e-07
  Last RMS-Density change    ...    1.0493e-07  Tolerance :   5.0000e-09
  Last DIIS Error            ...    9.7791e-07  Tolerance :   5.0000e-07

             **** THE GBW FILE WAS UPDATED (75_Re.gbw) ****
             **** DENSITY FILE WAS UPDATED (75_Re.scfp) ****
             **** ENERGY FILE WAS UPDATED (75_Re.en.tmp) ****
----------------------
UHF SPIN CONTAMINATION
----------------------

Expectation value of <S**2>     :     8.801812
Ideal value S*(S+1) for S=2.5   :     8.750000
Deviation                       :     0.051812

             **** THE GBW FILE WAS UPDATED (75_Re.gbw) ****
             **** DENSITY FILE WAS UPDATED (75_Re.scfp) ****
----------------
ORBITAL ENERGIES
----------------
                 SPIN UP ORBITALS
  NO   OCC          E(Eh)            E(eV) 
   0   1.0000      -3.777381      -102.7878 
   1   1.0000      -2.249141       -61.2022 
   2   1.0000      -2.249141       -61.2022 
   3   1.0000      -2.249141       -61.2022 
   4   1.0000      -0.441953       -12.0262 
   5   1.0000      -0.441953       -12.0262 
   6   1.0000      -0.441953       -12.0262 
   7   1.0000      -0.441953       -12.0262 
   8   1.0000      -0.441953       -12.0262 
   9   1.0000      -0.326768        -8.8918 
  10   0.0000       0.016273         0.4428 
  11   0.0000       0.016273         0.4428 
  12   0.0000       0.016273         0.4428 
  13   0.0000       0.033539         0.9127 
  14   0.0000       0.051043         1.3889 
  15   0.0000       0.051043         1.3889 
  16   0.0000       0.051043         1.3889 
  17   0.0000       0.069208         1.8832 
  18   0.0000       0.069208         1.8832 
  19   0.0000       0.069208         1.8832 
  20   0.0000       0.069208         1.8832 
  21   0.0000       0.069208         1.8832 
  22   0.0000       0.177452         4.8287 
  23   0.0000       0.177452         4.8287 
  24   0.0000       0.177452         4.8287 
  25   0.0000       0.231523         6.3001 
  26   0.0000       0.231523         6.3001 
  27   0.0000       0.231523         6.3001 
  28   0.0000       0.231523         6.3001 
  29   0.0000       0.231523         6.3001 
  30   0.0000       0.311982         8.4895 
  31   0.0000       0.402568        10.9544 
  32   0.0000       0.402568        10.9544 
  33   0.0000       0.402568        10.9544 
  34   0.0000       0.402568        10.9544 
  35   0.0000       0.402568        10.9544 
  36   0.0000       0.402568        10.9544 
  37   0.0000       0.402568        10.9544 
  38   0.0000       0.595310        16.1992 
  39   0.0000       0.595310        16.1992 
  40   0.0000       0.595310        16.1992 
  41   0.0000       0.739368        20.1192 
  42   0.0000       0.739368        20.1192 
  43   0.0000       0.739368        20.1192 
  44   0.0000       0.739368        20.1192 
  45   0.0000       0.739368        20.1192 
  46   0.0000       1.033246        28.1161 
  47   0.0000       1.033246        28.1161 
  48   0.0000       1.033246        28.1161 
  49   0.0000       1.033246        28.1161 
  50   0.0000       1.033246        28.1161 
  51   0.0000       1.033246        28.1161 
  52   0.0000       1.033246        28.1161 
  53   0.0000       1.320678        35.9375 
  54   0.0000       1.320678        35.9375 
  55   0.0000       1.320678        35.9375 
  56   0.0000       1.320678        35.9375 
  57   0.0000       1.320678        35.9375 
  58   0.0000       1.320678        35.9375 
  59   0.0000       1.320678        35.9375 
  60   0.0000       1.320678        35.9375 
  61   0.0000       1.320678        35.9375 
  62   0.0000       1.830828        49.8194 
  63   0.0000       2.111874        57.4670 
  64   0.0000       2.111874        57.4670 
  65   0.0000       2.111874        57.4670 
  66   0.0000       2.570783        69.9546 
  67   0.0000       2.570783        69.9546 
  68   0.0000       2.570783        69.9546 
  69   0.0000       2.570783        69.9546 
  70   0.0000       2.570783        69.9546 
  71   0.0000       2.877053        78.2886 
  72   0.0000       2.877053        78.2886 
  73   0.0000       2.877053        78.2886 
  74   0.0000       2.877053        78.2886 
  75   0.0000       2.877053        78.2886 
  76   0.0000       2.877053        78.2886 
  77   0.0000       2.877053        78.2886 
  78   0.0000       3.400146        92.5227 
  79   0.0000       3.400146        92.5227 
  80   0.0000       3.400146        92.5227 
  81   0.0000       3.400146        92.5227 
  82   0.0000       3.400146        92.5227 
  83   0.0000       3.400146        92.5227 
  84   0.0000       3.400146        92.5227 
  85   0.0000       3.400146        92.5227 
  86   0.0000       3.400146        92.5227 
  87   0.0000      21.783115       592.7487 

                 SPIN DOWN ORBITALS
  NO   OCC          E(Eh)            E(eV) 
   0   1.0000      -3.564289       -96.9892 
   1   1.0000      -1.935910       -52.6788 
   2   1.0000      -1.935910       -52.6788 
   3   1.0000      -1.935910       -52.6788 
   4   1.0000      -0.223664        -6.0862 
   5   0.0000       0.018434         0.5016 
   6   0.0000       0.018434         0.5016 
   7   0.0000       0.018434         0.5016 
   8   0.0000       0.040269         1.0958 
   9   0.0000       0.062576         1.7028 
  10   0.0000       0.062576         1.7028 
  11   0.0000       0.062576         1.7028 
  12   0.0000       0.064975         1.7681 
  13   0.0000       0.064975         1.7681 
  14   0.0000       0.064975         1.7681 
  15   0.0000       0.064975         1.7681 
  16   0.0000       0.064975         1.7681 
  17   0.0000       0.133513         3.6331 
  18   0.0000       0.133513         3.6331 
  19   0.0000       0.133513         3.6331 
  20   0.0000       0.133513         3.6331 
  21   0.0000       0.133513         3.6331 
  22   0.0000       0.204576         5.5668 
  23   0.0000       0.204576         5.5668 
  24   0.0000       0.204576         5.5668 
  25   0.0000       0.277723         7.5572 
  26   0.0000       0.277723         7.5572 
  27   0.0000       0.277723         7.5572 
  28   0.0000       0.277723         7.5572 
  29   0.0000       0.277723         7.5572 
  30   0.0000       0.368596        10.0300 
  31   0.0000       0.416703        11.3391 
  32   0.0000       0.416703        11.3391 
  33   0.0000       0.416703        11.3391 
  34   0.0000       0.416703        11.3391 
  35   0.0000       0.416703        11.3391 
  36   0.0000       0.416703        11.3391 
  37   0.0000       0.416703        11.3391 
  38   0.0000       0.652256        17.7488 
  39   0.0000       0.652256        17.7488 
  40   0.0000       0.652256        17.7488 
  41   0.0000       0.818948        22.2847 
  42   0.0000       0.818948        22.2847 
  43   0.0000       0.818948        22.2847 
  44   0.0000       0.818948        22.2847 
  45   0.0000       0.818948        22.2847 
  46   0.0000       1.159857        31.5613 
  47   0.0000       1.159857        31.5613 
  48   0.0000       1.159857        31.5613 
  49   0.0000       1.159857        31.5613 
  50   0.0000       1.159857        31.5613 
  51   0.0000       1.159857        31.5613 
  52   0.0000       1.159857        31.5613 
  53   0.0000       1.358052        36.9545 
  54   0.0000       1.358052        36.9545 
  55   0.0000       1.358052        36.9545 
  56   0.0000       1.358052        36.9545 
  57   0.0000       1.358052        36.9545 
  58   0.0000       1.358052        36.9545 
  59   0.0000       1.358052        36.9545 
  60   0.0000       1.358052        36.9545 
  61   0.0000       1.358052        36.9545 
  62   0.0000       1.914994        52.1096 
  63   0.0000       2.188621        59.5554 
  64   0.0000       2.188621        59.5554 
  65   0.0000       2.188621        59.5554 
  66   0.0000       2.660711        72.4016 
  67   0.0000       2.660711        72.4016 
  68   0.0000       2.660711        72.4016 
  69   0.0000       2.660711        72.4016 
  70   0.0000       2.660711        72.4016 
  71   0.0000       3.037662        82.6590 
  72   0.0000       3.037662        82.6590 
  73   0.0000       3.037662        82.6590 
  74   0.0000       3.037662        82.6590 
  75   0.0000       3.037662        82.6590 
  76   0.0000       3.037662        82.6590 
  77   0.0000       3.037662        82.6590 
  78   0.0000       3.510554        95.5270 
  79   0.0000       3.510554        95.5270 
  80   0.0000       3.510554        95.5270 
  81   0.0000       3.510554        95.5270 
  82   0.0000       3.510554        95.5270 
  83   0.0000       3.510554        95.5270 
  84   0.0000       3.510554        95.5270 
  85   0.0000       3.510554        95.5270 
  86   0.0000       3.510554        95.5270 
  87   0.0000      21.800928       593.2334 

                    ********************************
                    * MULLIKEN POPULATION ANALYSIS *
                    ********************************

--------------------------------------------
MULLIKEN ATOMIC CHARGES AND SPIN POPULATIONS
--------------------------------------------
   0 Re:   -0.000000    5.000000
Sum of atomic charges         :   -0.0000000
Sum of atomic spin populations:    5.0000000

-----------------------------------------------------
MULLIKEN REDUCED ORBITAL CHARGES AND SPIN POPULATIONS
-----------------------------------------------------
CHARGE
  0 Res       :     4.000000  s :     4.000000
      pz      :     2.000000  p :     6.000000
      px      :     2.000000
      py      :     2.000000
      dz2     :     1.000000  d :     5.000000
      dxz     :     1.000000
      dyz     :     1.000000
      dx2y2   :     1.000000
      dxy     :     1.000000
      f0      :     0.000000  f :     0.000000
      f+1     :     0.000000
      f-1     :     0.000000
      f+2     :     0.000000
      f-2     :     0.000000
      f+3     :     0.000000
      f-3     :     0.000000
      g0      :     0.000000  g :     0.000000
      g+1     :     0.000000
      g-1     :     0.000000
      g+2     :     0.000000
      g-2     :     0.000000
      g+3     :     0.000000
      g-3     :     0.000000
      g+4     :     0.000000
      g-4     :     0.000000

SPIN
  0 Res       :     0.000000  s :     0.000000
      pz      :     0.000000  p :     0.000000
      px      :     0.000000
      py      :    -0.000000
      dz2     :     1.000000  d :     5.000000
      dxz     :     1.000000
      dyz     :     1.000000
      dx2y2   :     1.000000
      dxy     :     1.000000
      f0      :     0.000000  f :     0.000000
      f+1     :     0.000000
      f-1     :     0.000000
      f+2     :     0.000000
      f-2     :     0.000000
      f+3     :    -0.000000
      f-3     :     0.000000
      g0      :     0.000000  g :     0.000000
      g+1     :     0.000000
      g-1     :     0.000000
      g+2     :     0.000000
      g-2     :     0.000000
      g+3     :     0.000000
      g-3     :     0.000000
      g+4     :     0.000000
      g-4     :     0.000000


                     *******************************
                     * LOEWDIN POPULATION ANALYSIS *
                     *******************************

-------------------------------------------
LOEWDIN ATOMIC CHARGES AND SPIN POPULATIONS
-------------------------------------------
   0 Re:    0.000000    5.000000

----------------------------------------------------
LOEWDIN REDUCED ORBITAL CHARGES AND SPIN POPULATIONS
----------------------------------------------------
CHARGE
  0 Res       :     4.000000  s :     4.000000
      pz      :     2.000000  p :     6.000000
      px      :     2.000000
      py      :     2.000000
      dz2     :     1.000000  d :     5.000000
      dxz     :     1.000000
      dyz     :     1.000000
      dx2y2   :     1.000000
      dxy     :     1.000000
      f0      :     0.000000  f :     0.000000
      f+1     :     0.000000
      f-1     :     0.000000
      f+2     :     0.000000
      f-2     :     0.000000
      f+3     :     0.000000
      f-3     :     0.000000
      g0      :     0.000000  g :     0.000000
      g+1     :     0.000000
      g-1     :     0.000000
      g+2     :     0.000000
      g-2     :     0.000000
      g+3     :     0.000000
      g-3     :     0.000000
      g+4     :     0.000000
      g-4     :     0.000000

SPIN
  0 Res       :     0.000000  s :     0.000000
      pz      :     0.000000  p :     0.000000
      px      :     0.000000
      py      :    -0.000000
      dz2     :     1.000000  d :     5.000000
      dxz     :     1.000000
      dyz     :     1.000000
      dx2y2   :     1.000000
      dxy     :     1.000000
      f0      :     0.000000  f :     0.000000
      f+1     :     0.000000
      f-1     :     0.000000
      f+2     :     0.000000
      f-2     :     0.000000
      f+3     :     0.000000
      f-3     :     0.000000
      g0      :     0.000000  g :     0.000000
      g+1     :     0.000000
      g-1     :     0.000000
      g+2     :     0.000000
      g-2     :     0.000000
      g+3     :     0.000000
      g-3     :     0.000000
      g+4     :     0.000000
      g-4     :     0.000000


                      *****************************
                      * MAYER POPULATION ANALYSIS *
                      *****************************

  NA   - Mulliken gross atomic population
  ZA   - Total nuclear charge
  QA   - Mulliken gross atomic charge
  VA   - Mayer's total valence
  BVA  - Mayer's bonded valence
  FA   - Mayer's free valence

  ATOM       NA         ZA         QA         VA         BVA        FA
  0 Re    15.0000    15.0000     0.0000     5.1036     0.0000     5.1036

  Mayer bond orders larger than 0.100000


-------
TIMINGS
-------

Total SCF time: 0 days 0 hours 0 min 37 sec 

Total time                  ....      37.506 sec
Sum of individual times     ....      31.802 sec  ( 84.8%)

Fock matrix formation       ....      24.815 sec  ( 66.2%)
Diagonalization             ....       0.189 sec  (  0.5%)
Density matrix formation    ....       0.021 sec  (  0.1%)
Population analysis         ....       0.078 sec  (  0.2%)
Initial guess               ....       5.981 sec  ( 15.9%)
Orbital Transformation      ....       0.000 sec  (  0.0%)
Orbital Orthonormalization  ....       0.000 sec  (  0.0%)
DIIS solution               ....       0.640 sec  (  1.7%)


           ************************************************************
           *        Program running with 24 parallel MPI-processes    *
           *              working on a common directory               *
           ************************************************************


------------------------------------------------------------------------------- 
                              ORCA-MATRIX DRIVEN CI                            
------------------------------------------------------------------------------- 

--------------------------------
AUTOMATIC CHOICE OF INCORE LEVEL
--------------------------------

Memory available                           ...   2500.00 MB
Memory needed for S+T                      ...      7.66 MB
Memory needed for J+K                      ...     15.38 MB
Memory needed for DIIS                     ...    107.22 MB
Memory needed for 3-ext                    ...     36.21 MB
Memory needed for 4-ext                    ...    143.01 MB
Memory needed for triples                  ...     18.10 MB
 -> Final InCoreLevel    ... 5
 -> check shows that triples correction can be computed


Wavefunction type
-----------------
Correlation treatment                      ...      CCSD     
Single excitations                         ... ON
Orbital optimization                       ... OFF
Calculation of Z vector                    ... OFF
Calculation of Brueckner orbitals          ... OFF
Perturbative triple excitations            ... ON
Calculation of F12 correction              ... OFF
Frozen core treatment                      ... chemical core (0 el)
Reference Wavefunction                     ... UHF
  Alpha-MOs occ    :     0 ...    9 ( 10 MO's/ 10 electrons)
  Beta-MOs occ     :     0 ...    4 (  5 MO's/  5 electrons)
  Alpha-MOs virt   :    10 ...   87 ( 78 MO's              )
  Beta-MOs virt    :     5 ...   87 ( 83 MO's              )
Number of AO's                             ...     88
Number of electrons                        ...     15
Number of correlated electrons             ...     15

Algorithmic settings
--------------------
Integral transformation                    ... AO direct full transformation
K(C) Formation                             ... FULL-MO TRAFO
Maximum number of iterations               ...        50
Convergence tolerance (max. residuum)      ... 1.000e-05
Level shift for amplitude update           ... 2.000e-01
Maximum number of DIIS vectors             ...         7
DIIS turned on at iteration                ...         0
Damping before turning on DIIS             ...     0.500
Damping after turning on DIIS              ...     0.000
Pair specific amplitude update             ... OFF
Natural orbital iterations                 ... OFF
Perturbative natural orbital generation    ... OFF
Printlevel                                 ... 2

Memory handling:
----------------
Maximum memory for working arrays          ...   2500 MB
Data storage in matrix containers          ... UNCOMPRESSED
Data type for integral storage             ... DOUBLE
In-Core Storage of quantities:
   Amplitudes+Sigma Vector      ... YES
   J+K operators                ... YES
   DIIS vectors                 ... YES
   3-external integrals         ... YES
   4-external integrals         ... YES


Initializing the integral package          ... done
Warning: reference  - re-canonicalizations have been set to INT 1 VIRT 1

--------------------------
UNRESTRICTED FOCK OPERATOR
--------------------------

<ss|ss>:          231 b            0 skpd (  0.0%)    0.002 s ( 0.009 ms/b)
<ss|sp>:          756 b            0 skpd (  0.0%)    0.013 s ( 0.017 ms/b)
<ss|sd>:          630 b            0 skpd (  0.0%)    0.009 s ( 0.014 ms/b)
<ss|sf>:          378 b            0 skpd (  0.0%)    0.001 s ( 0.003 ms/b)
<ss|sg>:          252 b            0 skpd (  0.0%)    0.001 s ( 0.005 ms/b)
<ss|pp>:          441 b            0 skpd (  0.0%)    0.009 s ( 0.021 ms/b)
<ss|pd>:          630 b            0 skpd (  0.0%)    0.010 s ( 0.016 ms/b)
<ss|pf>:          378 b            0 skpd (  0.0%)    0.001 s ( 0.003 ms/b)
<ss|pg>:          252 b            0 skpd (  0.0%)    0.002 s ( 0.007 ms/b)
<ss|dd>:          315 b            0 skpd (  0.0%)    0.008 s ( 0.026 ms/b)
<ss|df>:          315 b            0 skpd (  0.0%)    0.002 s ( 0.005 ms/b)
<ss|dg>:          210 b            0 skpd (  0.0%)    0.003 s ( 0.012 ms/b)
<ss|ff>:          126 b            0 skpd (  0.0%)    0.000 s ( 0.003 ms/b)
<ss|fg>:          126 b            0 skpd (  0.0%)    0.001 s ( 0.005 ms/b)
<ss|gg>:           63 b            0 skpd (  0.0%)    0.001 s ( 0.014 ms/b)
<sp|sp>:          666 b            0 skpd (  0.0%)    0.012 s ( 0.018 ms/b)
<sp|sd>:         1080 b            0 skpd (  0.0%)    0.016 s ( 0.015 ms/b)
<sp|sf>:          648 b            0 skpd (  0.0%)    0.002 s ( 0.003 ms/b)
<sp|sg>:          432 b            0 skpd (  0.0%)    0.003 s ( 0.008 ms/b)
<sp|pp>:          756 b            0 skpd (  0.0%)    0.015 s ( 0.020 ms/b)
<sp|pd>:         1080 b            0 skpd (  0.0%)    0.021 s ( 0.019 ms/b)
<sp|pf>:          648 b            0 skpd (  0.0%)    0.004 s ( 0.006 ms/b)
<sp|pg>:          432 b            0 skpd (  0.0%)    0.005 s ( 0.012 ms/b)
<sp|dd>:          540 b            0 skpd (  0.0%)    0.024 s ( 0.045 ms/b)
<sp|df>: done
<sp|dg>: done
<sp|ff>: done
<sp|fg>: done
<sp|gg>: done
<sd|sd>:          465 b            0 skpd (  0.0%)    0.013 s ( 0.028 ms/b)
<sd|sf>:          540 b            0 skpd (  0.0%)    0.003 s ( 0.006 ms/b)
<sd|sg>:          360 b            0 skpd (  0.0%)    0.005 s ( 0.013 ms/b)
<sd|pp>:          630 b            0 skpd (  0.0%)    0.017 s ( 0.027 ms/b)
<sd|pd>:          900 b            3 skpd (  0.3%)    0.028 s ( 0.031 ms/b)
<sd|pf>: done
<sd|pg>: done
<sd|dd>:          450 b            0 skpd (  0.0%)    0.038 s ( 0.083 ms/b)
<sd|df>:          450 b            3 skpd (  0.7%)    0.010 s ( 0.022 ms/b)
<sd|dg>:          300 b            3 skpd (  1.0%)    0.015 s ( 0.051 ms/b)
<sd|ff>: done
<sd|fg>: done
<sd|gg>: done
<sf|sf>:          171 b            0 skpd (  0.0%)    0.001 s ( 0.005 ms/b)
<sf|sg>:          216 b            0 skpd (  0.0%)    0.001 s ( 0.006 ms/b)
<sf|pp>:          378 b            0 skpd (  0.0%)    0.004 s ( 0.011 ms/b)
<sf|pd>: done
<sf|pf>: done
<sf|pg>: done
<sf|dd>:          270 b            0 skpd (  0.0%)    0.011 s ( 0.042 ms/b)
<sf|df>: done
<sf|dg>: done
<sf|ff>: done
<sf|fg>: done
<sf|gg>: done
<sg|sg>:           78 b            0 skpd (  0.0%)    0.002 s ( 0.024 ms/b)
<sg|pp>:          252 b            0 skpd (  0.0%)    0.006 s ( 0.022 ms/b)
<sg|pd>: done
<sg|pf>: done
<sg|pg>: done
<sg|dd>:          180 b            0 skpd (  0.0%)    0.015 s ( 0.082 ms/b)
<sg|df>: done
<sg|dg>: done
<sg|ff>: done
<sg|fg>: done
<sg|gg>: done
<pp|pp>:          231 b            0 skpd (  0.0%)    0.014 s ( 0.060 ms/b)
<pp|pd>:          630 b            0 skpd (  0.0%)    0.025 s ( 0.039 ms/b)
<pp|pf>:          378 b            0 skpd (  0.0%)    0.005 s ( 0.013 ms/b)
<pp|pg>:          252 b            0 skpd (  0.0%)    0.008 s ( 0.033 ms/b)
<pp|dd>:          315 b            0 skpd (  0.0%)    0.032 s ( 0.103 ms/b)
<pp|df>:          315 b            0 skpd (  0.0%)    0.008 s ( 0.027 ms/b)
<pp|dg>:          210 b            0 skpd (  0.0%)    0.013 s ( 0.063 ms/b)
<pp|ff>:          126 b            0 skpd (  0.0%)    0.002 s ( 0.019 ms/b)
<pp|fg>:          126 b            0 skpd (  0.0%)    0.003 s ( 0.027 ms/b)
<pp|gg>:           63 b            0 skpd (  0.0%)    0.005 s ( 0.081 ms/b)
<pd|pd>:          465 b            0 skpd (  0.0%)    0.050 s ( 0.108 ms/b)
<pd|pf>:          540 b            0 skpd (  0.0%)    0.012 s ( 0.022 ms/b)
<pd|pg>:          360 b            0 skpd (  0.0%)    0.022 s ( 0.062 ms/b)
<pd|dd>:          450 b            0 skpd (  0.0%)    0.081 s ( 0.180 ms/b)
<pd|df>:          450 b            1 skpd (  0.2%)    0.022 s ( 0.050 ms/b)
<pd|dg>:          300 b            1 skpd (  0.3%)    0.036 s ( 0.120 ms/b)
<pd|ff>: done
<pd|fg>: done
<pd|gg>: done
<pf|pf>:          171 b            0 skpd (  0.0%)    0.003 s ( 0.019 ms/b)
<pf|pg>:          216 b            0 skpd (  0.0%)    0.006 s ( 0.030 ms/b)
<pf|dd>:          270 b            0 skpd (  0.0%)    0.021 s ( 0.077 ms/b)
<pf|df>: done
<pf|dg>: done
<pf|ff>: done
<pf|fg>: done
<pf|gg>: done
<pg|pg>:           78 b            0 skpd (  0.0%)    0.008 s ( 0.104 ms/b)
<pg|dd>:          180 b            0 skpd (  0.0%)    0.029 s ( 0.160 ms/b)
<pg|df>: done
<pg|dg>: done
<pg|ff>: done
<pg|fg>: done
<pg|gg>: done
<dd|dd>:          120 b            0 skpd (  0.0%)    0.070 s ( 0.582 ms/b)
<dd|df>:          225 b            0 skpd (  0.0%)    0.021 s ( 0.095 ms/b)
<dd|dg>:          150 b            0 skpd (  0.0%)    0.034 s ( 0.229 ms/b)
<dd|ff>:           90 b            0 skpd (  0.0%)    0.006 s ( 0.066 ms/b)
<dd|fg>:           90 b            0 skpd (  0.0%)    0.009 s ( 0.099 ms/b)
<dd|gg>:           45 b            0 skpd (  0.0%)    0.013 s ( 0.292 ms/b)
<df|df>:          120 b            1 skpd (  0.8%)    0.009 s ( 0.074 ms/b)
<df|dg>:          150 b            1 skpd (  0.7%)    0.014 s ( 0.096 ms/b)
<df|ff>: done
<df|fg>: done
<df|gg>: done
<dg|dg>:           55 b            1 skpd (  1.8%)    0.016 s ( 0.298 ms/b)
<dg|ff>: done
<dg|fg>: done
<dg|gg>: done
<ff|ff>: done
<ff|fg>: done
<ff|gg>: done
<fg|fg>: done
<fg|gg>: done
<gg|gg>: done
Recanonicalizing the internal orbitals
Recanonicalizing the virtual orbitals
Time needed for Fock operator              ...            0.988 sec
Reference energy                           ...    -77.838047070
Warning: for UHF the TrafoType has to be JK
Warning: for UHF the K(C)-option cannot be MO but must be AOX

-------------------------------
PARTIAL EXCHANGE TRANSFORMATION
-------------------------------

Transformation type                        ... two-operators
Generation of integrals (i,mue|j,nue)      ... ON
Generation of integrals (mue,kappa|nue,tau)... ON
Generation of integrals (i,mue|a,nue)      ... ON
Dimension of the basis                     ...   88
Number of internal alpha-MOs               ...   10 (   0-   9)
Number of internal beta-MOs                ...    5 (   0-   4)
Number of external alpha-MOs               ...   78 (  10-  87)
Number of external beta-MOs                ...   83 (   5-  87)
Pair cutoff                                ... 0.000e+00 Eh
Number of AO pairs in the trafo            ... 3916
Total Number of distinct AO pairs          ... 3916
Memory devoted for trafo                   ... 2500.0 MB 
Max. Number of MO pairs treated together   ... 42314      
Number Format for Storage                  ... Double (8 Byte)
Integral package used                      ... LIBINT

Starting integral evaluation:
    ... done with AO integral generation
Closing buffer AOK[aa] ( 0.00 GB; CompressionRatio= 0.00)
Closing buffer AOK[bb] ( 0.00 GB; CompressionRatio= 0.00)
Closing buffer AOK[ab] ( 0.00 GB; CompressionRatio= 0.00)
Closing buffer AOK[ba] ( 0.00 GB; CompressionRatio= 0.00)
Collecting buffer AOK 
Closing buffer IAAO1[aa] ( 0.00 GB; CompressionRatio= 0.00)
Closing buffer IAAO1[bb] ( 0.00 GB; CompressionRatio= 0.00)
Closing buffer IAAO1[ab] ( 0.00 GB; CompressionRatio= 0.00)
Closing buffer IAAO1[ba] ( 0.00 GB; CompressionRatio= 0.00)
Closing buffer IAAO2[aa] ( 0.00 GB; CompressionRatio= 0.00)
Closing buffer IAAO2[bb] ( 0.00 GB; CompressionRatio= 0.00)
Closing buffer IAAO2[ab] ( 0.00 GB; CompressionRatio= 0.00)
Closing buffer IAAO2[ba] ( 0.00 GB; CompressionRatio= 0.00)
Collecting buffer IAAO 
Closing buffer PRQS    ( 0.00 GB; CompressionRatio= 0.00)
Collecting buffer PRQS 
Number of alpha/alpha MO pairs in trafo    ...   55
Number of beta /beta  MO pairs in trafo    ...   15
Number of alpha/ beta MO pairs in trafo    ...   50
------------------------
SORTING OF (i,mue|j,nue)
------------------------

SORTING OF ALPHA/ALPHA PAIRS
IBATCH = 1 of  1
Closing buffer KAO[aa] ( 0.00 GB; CompressionRatio= 1.00)
Collecting buffer KAO 
SORTING OF BETA /BETA  PAIRS
IBATCH = 1 of  1
Closing buffer KAO[bb] ( 0.00 GB; CompressionRatio= 1.00)
Collecting buffer KAO 
SORTING OF ALPHA/BETA  PAIRS
IBATCH = 1 of  1
Closing buffer KAO[ab] ( 0.00 GB; CompressionRatio= 0.999806339165)
Collecting buffer KAO[ab] 
------------------------
SORTING OF (i,mue|a,nue)
------------------------

Number of alpha/alpha (i,a) pairs in trafo  ...  780
Number of beta /beta  (i,a) pairs in trafo  ...  415
Number of alpha/ beta (i,a) pairs in trafo  ...  830
Number of beta /alpha (i,a) pairs in trafo  ...  390
Setting up the alpha/alpha list             ... done
Setting up the beta /beta  list             ... done
Setting up the alpha/beta  list             ... done
Setting up the beta /alpha list             ... done
    ... Now sorting (i,mue|a,nue)integrals
    ... Integrals (i,b|a,c) will be made on the fly
SORTING OF ALPHA/ALPHA PAIRS
IBATCH = 1 of  1
Closing buffer IPAQ[aa]  0.00 GB; CompressionRatio= 1.00)
SORTING OF BETA /BETA  PAIRS
IBATCH = 1 of  1
Closing buffer IPAQ[bb]( 0.00 GB; CompressionRatio= 1.00)
SORTING OF ALPHA/BETA  PAIRS (NMatSort_ab=35)
IBATCH = 1 of  1
Closing buffer IPAQ[ab]( 0.00 GB; CompressionRatio= 1.00)
SORTING OF BETA/ALPHA  PAIRS
IBATCH = 1 of  1
Closing buffer IPAQ[ba]( 0.00 GB; CompressionRatio= 1.00)
N(AO-Batches) Done                         ...         0 
N(AO-Batches) Skipped                      ...         0 
N(IJ)-pairs Skipped                        ...         0 
TOTAL TIME for half transformation         ...     8.186 sec
AO-integral generation                     ...     0.000 sec
Half transformation                        ...     0.000 sec
K-integral sorting                         ...     1.381 sec
<ss|**>: 
------------------------------
PARTIAL COULOMB TRANSFORMATION
------------------------------

Transformation type                        ... two-operators
Dimension of the basis                     ...   88
Number of internal alpha-MOs               ...   10 (0-9)
Number of internal beta-MOs                ...    5 (0-4)
Pair cutoff                                ... 0.000e+00 Eh
Number of AO pairs included in the trafo   ... 3916
Total Number of distinct AO pairs          ... 3916
Memory devoted for trafo                   ... 2500.0 MB 
Max. Number of MO pairs treated together   ... 83677      
Max. Number of MOs treated per batch       ...  950      
Number Format for Storage                  ... Double (8 Byte)
AO-integral source                         ... DIRECT
Integral package used                      ... LIBINT

Starting integral evaluation:
<sp|**>:         5313 b        0 skpd     0.053 s (  0.010 ms/b)
<sd|**>:         9108 b        0 skpd     0.155 s (  0.017 ms/b)
<sf|**>:         7590 b        0 skpd     0.165 s (  0.022 ms/b)
        4554 b        0 skpd     0.049 s (  0.011 ms/b)
<sg|**>:         3036 b        0 skpd     0.138 s (  0.045 ms/b)
<pp|**>:         5313 b        0 skpd     0.151 s (  0.028 ms/b)
<pd|**>:         7590 b        0 skpd     0.328 s (  0.043 ms/b)
<pf|**>:         4554 b        0 skpd     0.102 s (  0.022 ms/b)
<pg|**>:         3036 b        0 skpd     0.157 s (  0.052 ms/b)
<dd|**>:         3795 b        0 skpd     0.436 s (  0.115 ms/b)
<df|**>:         3795 b        0 skpd     0.165 s (  0.044 ms/b)
<dg|**>:         2530 b        0 skpd     0.232 s (  0.092 ms/b)
<ff|**>:         1518 b        0 skpd     0.092 s (  0.061 ms/b)
<fg|**>:         1518 b        0 skpd     0.124 s (  0.082 ms/b)
<gg|**>:          759 b        0 skpd     0.140 s (  0.184 ms/b)
Closing buffer AOJ[aa] ( 0.00 GB; CompressionRatio= 0.97)
Closing buffer AOJ[bb] ( 0.00 GB; CompressionRatio= 0.00)
Collecting buffer AOJ 
    ... done with AO integral generation
Number of Alpha-MO pairs included          ...   55
Number of Beta-MO pairs included           ...   15
    ... Now sorting integrals
SORTING ALPHA/ALPHA PAIRS
IBATCH = 1 of  1
Closing buffer JAO[aa] ( 0.00 GB; CompressionRatio= 1.00)
SORTING BETA/BETA PAIRS
IBATCH = 1 of  1
Closing buffer JAO[bb] ( 0.00 GB; CompressionRatio= 1.00)
Collecting buffer JAO 
TOTAL TIME for half transformation         ...     2.668 sec
AO-integral generation                     ...     2.307 sec
Half transformation                        ...     0.188 sec
J-integral sorting                         ...     0.112 sec

-------------------------- SECOND HALF TRANSFORMATION -------------------------
Formation of (ij|kl),(ij|ka), (ij|ab)      ... ok (     0.145 sec)
Formation of (ik|jl),(ik|ja), (ia|jb)      ... ok (     0.243 sec)


-----------------------
SPIN UNRESTRICTED GUESS
-----------------------

Entering MDCI_UHF_Guess, Tailored=0
Spin-components of the MP2 energy:
EMP2(aa)=     -0.114717804
EMP2(bb)=     -0.030243525
EMP2(ab)=     -0.254803591

Initial guess performed in     0.019 sec
E(0)                                       ...    -77.838047070
E(MP2)                                     ...     -0.399764921
Initial E(tot)                             ...    -78.237811991
<T|T>                                      ...      0.116013198
Number of pairs included                   ... 105

------------------------------------------------
                  UHF COUPLED CLUSTER ITERATIONS
------------------------------------------------

Number of amplitudes to be optimized       ...       495627

Iter       E(tot)           E(Corr)          Delta-E          Residual     Time      <S|S>**1/2
  0    -78.237811991     -0.399764921     -0.000000000      0.029150675    1.39      0.000001797
                           *** Turning on DIIS ***
  1    -78.222453808     -0.384406738      0.015358183      0.010819361    6.30      0.034626492
  2    -78.229809100     -0.391762029     -0.007355291      0.007424410    1.40      0.046860505
  3    -78.231987043     -0.393939973     -0.002177944      0.003012044    1.40      0.059769214
  4    -78.233113312     -0.395066242     -0.001126269      0.000549895    1.40      0.068207418
  5    -78.233162107     -0.395115037     -0.000048795      0.000156960    1.39      0.069129634
  6    -78.233180858     -0.395133788     -0.000018751      0.000057044    1.41      0.069363779
  7    -78.233179076     -0.395132005      0.000001783      0.000025740    1.44      0.069309869
  8    -78.233178995     -0.395131925      0.000000080      0.000009330    1.43      0.069263929
               --- The Coupled-Cluster iterations have converged ---

----------------------
COUPLED CLUSTER ENERGY
----------------------

E(0)                                       ...    -77.838047070
E(CORR)                                    ...     -0.395131925
E(TOT)                                     ...    -78.233178995
Singles norm <S|S>**1/2                    ...      0.069263929 ( 0.031813113, 0.037450817)  
T1 diagnostic                              ...      0.017883870                              

------------------
LARGEST AMPLITUDES
------------------
   4b->  8b  -1b-> -1b       0.082931
   4b-> 30b  -1b-> -1b       0.074733
   9a-> 16a   4b-> 11b       0.037432
   9a-> 15a   4b-> 10b       0.036356
   9a-> 14a   4b->  9b       0.036346
   9a-> 14a   4b-> 23b       0.033598
   9a-> 15a   4b-> 22b       0.031821
   9a-> 16a   4b-> 24b       0.031769
   9a-> 12a   4b-> 11b       0.028856
   9a-> 10a   4b-> 10b       0.027651
   9a-> 24a   4b-> 24b       0.027573
   9a-> 11a   4b->  9b       0.027531
   9a-> 24a   4b-> 11b       0.027319
   9a-> 22a   4b-> 22b       0.026832
   9a-> 23a   4b-> 23b       0.026723
   9a-> 23a   4b->  9b       0.025910

----------------------
UHF TRIPLES CORRECTION (Algorithm 1)
----------------------

Multiplier for the singles contribution    ...      1.000000000

SPIN-CASE Alpha-Alpha-Alpha:
10% done
20% done
30% done
40% done
50% done
60% done
70% done
80% done
90% done


SPIN-CASE Beta-Beta-Beta:
10% done
20% done
30% done
40% done
50% done
60% done
70% done
80% done
90% done


SPIN-CASE Alpha-Alpha-Beta:
10% done
20% done
30% done
40% done
50% done
60% done
70% done
80% done
90% done


SPIN-CASE Beta-Beta-Alpha:
10% done
20% done
30% done
40% done
50% done
60% done
70% done
80% done
90% done


Triples Correction (T)                     ...     -0.015018998
    alpha-alpha-alpha ... -0.001831804 ( 12.2%)
    alpha-alpha-beta  ... -0.009534762 ( 63.5%)
    alpha-beta -beta  ... -0.003530482 ( 23.5%)
    beta -beta -beta  ... -0.000121950 (  0.8%)
Scaling of triples based on CCSD energies (Peterson et al. Molecular Physics 113, 1551 (2015))
E(T*) = f*E(T) where f = E(F12-CCSD)/E(CCSD) 
f = CCSD (with F12)/ CCSD (without F12)    ...      1.000000000
Scaled triples correction (T)              ...     -0.015018998

Final correlation energy                   ...     -0.410150923
E(CCSD)                                    ...    -78.233178995
E(CCSD(T))                                 ...    -78.248197993



        !!!!!!!!!!!!!!!!!!!!!!!!!!!!!!!!!!!!!!!!!!!!!!!!!!!!!!!!!!!!!!!!!!!!!!!!!! 
        !  Warning: Densities are linearized densities                           !
        !!!!!!!!!!!!!!!!!!!!!!!!!!!!!!!!!!!!!!!!!!!!!!!!!!!!!!!!!!!!!!!!!!!!!!!!!! 

NORM  =      1.139470352 sqrt=     1.067459766
W(HF) =      0.877600719
------------------------------------------------------------------------------
                           ORCA POPULATION ANALYSIS
------------------------------------------------------------------------------
Input electron density              ... 75_Re.mdcip
Input spin density                  ... 75_Re.mdcir
BaseName (.gbw .S,...)              ... 75_Re

                    ********************************
                    * MULLIKEN POPULATION ANALYSIS *
                    ********************************

------------------------------------------
MULLIKEN ATOMIC CHARGES AND SPIN DENSITIES
------------------------------------------
   0 Re:    0.000000    5.000000
Sum of atomic charges       :    0.0000000
Sum of atomic spin densities:    5.0000000

---------------------------------------------------
MULLIKEN REDUCED ORBITAL CHARGES AND SPIN DENSITIES
---------------------------------------------------
CHARGE
  0 Res       :     3.908574  s :     3.908574
      pz      :     2.018655  p :     6.055966
      px      :     2.018655
      py      :     2.018655
      dz2     :     0.993812  d :     4.969060
      dxz     :     0.993812
      dyz     :     0.993812
      dx2y2   :     0.993812
      dxy     :     0.993812
      f0      :     0.008438  f :     0.059068
      f+1     :     0.008438
      f-1     :     0.008438
      f+2     :     0.008438
      f-2     :     0.008438
      f+3     :     0.008438
      f-3     :     0.008438
      g0      :     0.000815  g :     0.007332
      g+1     :     0.000815
      g-1     :     0.000815
      g+2     :     0.000815
      g-2     :     0.000815
      g+3     :     0.000815
      g-3     :     0.000815
      g+4     :     0.000815
      g-4     :     0.000815

SPIN
  0 Res       :     0.023971  s :     0.023971
      pz      :     0.009860  p :     0.029580
      px      :     0.009860
      py      :     0.009860
      dz2     :     0.979055  d :     4.895277
      dxz     :     0.979055
      dyz     :     0.979055
      dx2y2   :     0.979055
      dxy     :     0.979055
      f0      :     0.006549  f :     0.045844
      f+1     :     0.006549
      f-1     :     0.006549
      f+2     :     0.006549
      f-2     :     0.006549
      f+3     :     0.006549
      f-3     :     0.006549
      g0      :     0.000592  g :     0.005328
      g+1     :     0.000592
      g-1     :     0.000592
      g+2     :     0.000592
      g-2     :     0.000592
      g+3     :     0.000592
      g-3     :     0.000592
      g+4     :     0.000592
      g-4     :     0.000592


                     *******************************
                     * LOEWDIN POPULATION ANALYSIS *
                     *******************************

-----------------------------------------
LOEWDIN ATOMIC CHARGES AND SPIN DENSITIES
-----------------------------------------
   0 Re:    0.000000    5.000000

--------------------------------------------------
LOEWDIN REDUCED ORBITAL CHARGES AND SPIN DENSITIES
--------------------------------------------------
CHARGE
  0 Res       :     3.908574  s :     3.908574
      pz      :     2.018655  p :     6.055966
      px      :     2.018655
      py      :     2.018655
      dz2     :     0.993812  d :     4.969060
      dxz     :     0.993812
      dyz     :     0.993812
      dx2y2   :     0.993812
      dxy     :     0.993812
      f0      :     0.008438  f :     0.059068
      f+1     :     0.008438
      f-1     :     0.008438
      f+2     :     0.008438
      f-2     :     0.008438
      f+3     :     0.008438
      f-3     :     0.008438
      g0      :     0.000815  g :     0.007332
      g+1     :     0.000815
      g-1     :     0.000815
      g+2     :     0.000815
      g-2     :     0.000815
      g+3     :     0.000815
      g-3     :     0.000815
      g+4     :     0.000815
      g-4     :     0.000815

SPIN
  0 Res       :     0.023971  s :     0.023971
      pz      :     0.009860  p :     0.029580
      px      :     0.009860
      py      :     0.009860
      dz2     :     0.979055  d :     4.895277
      dxz     :     0.979055
      dyz     :     0.979055
      dx2y2   :     0.979055
      dxy     :     0.979055
      f0      :     0.006549  f :     0.045844
      f+1     :     0.006549
      f-1     :     0.006549
      f+2     :     0.006549
      f-2     :     0.006549
      f+3     :     0.006549
      f-3     :     0.006549
      g0      :     0.000592  g :     0.005328
      g+1     :     0.000592
      g-1     :     0.000592
      g+2     :     0.000592
      g-2     :     0.000592
      g+3     :     0.000592
      g-3     :     0.000592
      g+4     :     0.000592
      g-4     :     0.000592


                      *****************************
                      * MAYER POPULATION ANALYSIS *
                      *****************************

  NA   - Mulliken gross atomic population
  ZA   - Total nuclear charge
  QA   - Mulliken gross atomic charge
  VA   - Mayer's total valence
  BVA  - Mayer's bonded valence
  FA   - Mayer's free valence

  ATOM       NA         ZA         QA         VA         BVA        FA
  0 Re    15.0000    15.0000     0.0000     5.7663     0.0000     5.7663





------------------------------------------------------------------------------- 
                                     TIMINGS                                   
------------------------------------------------------------------------------- 


Total execution time                   ...       31.445 sec

Fock Matrix Formation                  ...        0.988 sec (  3.1%)
Initial Guess                          ...        0.019 sec (  0.1%)
DIIS Solver                            ...        0.346 sec (  1.1%)
State Vector Update                    ...        0.020 sec (  0.1%)
Sigma-vector construction              ...       17.195 sec ( 54.7%)
  <0|H|D>                              ...        0.001 sec (  0.0% of sigma)
  <D|H|D>(0-ext Fock)                  ...        0.007 sec (  0.0% of sigma)
  <D|H|D>(0-ext)                       ...        0.026 sec (  0.1% of sigma)
  <D|H|D>(2-ext Fock)                  ...        0.002 sec (  0.0% of sigma)
  <D|H|D>(2-ext)                       ...        0.089 sec (  0.5% of sigma)
  <D|H|D>(4-ext)                       ...        7.524 sec ( 43.8% of sigma)
  <S|H|0>                              ...        0.138 sec (  0.8% of sigma)
  <S|H|D>(1-ext)                       ...        0.002 sec (  0.0% of sigma)
  <D|H|S>(1-ext)                       ...        0.033 sec (  0.2% of sigma)
  Fock-dressing                        ...        8.113 sec ( 47.2% of sigma)
  (ik|jl)-dressing                     ...        0.032 sec (  0.2% of sigma)
  (ij|ab),(ia|jb)-dressing             ...        0.962 sec (  5.6% of sigma)
  Pair energies                        ...        0.002 sec (  0.0% of sigma)
Total Time for computing (T)           ...        0.886 sec (  2.8% of ALL)
  I/O of integral and amplitudes       ...        0.227 sec ( 25.6% of (T))
  External N**7 contributions          ...        0.234 sec ( 26.4% of (T))
  Internal N**7 contributions          ...        0.119 sec ( 13.4% of (T))
  N**6 triples energy contributions    ...        0.278 sec ( 31.4% of (T))


-------------------------   --------------------
FINAL SINGLE POINT ENERGY       -78.248197993345
-------------------------   --------------------


                            ***************************************
                            *     ORCA property calculations      *
                            ***************************************

                                    ---------------------
                                    Active property flags
                                    ---------------------
   (+) Dipole Moment


------------------------------------------------------------------------------
                       ORCA ELECTRIC PROPERTIES CALCULATION
------------------------------------------------------------------------------

Dipole Moment Calculation                       ... on
Quadrupole Moment Calculation                   ... off
Polarizability Calculation                      ... off
GBWName                                         ... 75_Re.gbw
Electron density file                           ... 75_Re.scfp
The origin for moment calculation is the CENTER OF MASS  = ( 0.000000,  0.000000  0.000000)

-------------
DIPOLE MOMENT
-------------
                                X             Y             Z
Electronic contribution:      0.00000       0.00000      -0.00000
Nuclear contribution   :      0.00000       0.00000       0.00000
                        -----------------------------------------
Total Dipole Moment    :      0.00000       0.00000      -0.00000
                        -----------------------------------------
Magnitude (a.u.)       :      0.00000
Magnitude (Debye)      :      0.00000



--------------------
Rotational spectrum 
--------------------
 
Rotational constants in cm-1:     0.000000     0.000000     0.000000 
Rotational constants in MHz :     0.000000     0.000000     0.000000 

 Dipole components along the rotational axes: 
x,y,z [a.u.] :     0.000000     0.000000    -0.000000 
x,y,z [Debye]:     0.000000     0.000000    -0.000000 

 

                           *** MDCI DENSITY ***

------------------------------------------------------------------------------
                       ORCA ELECTRIC PROPERTIES CALCULATION
------------------------------------------------------------------------------

Dipole Moment Calculation                       ... on
Quadrupole Moment Calculation                   ... off
Polarizability Calculation                      ... off
GBWName                                         ... 75_Re.gbw
Electron density file                           ... 75_Re.mdcip
The origin for moment calculation is the CENTER OF MASS  = ( 0.000000,  0.000000  0.000000)

-------------
DIPOLE MOMENT
-------------
                                X             Y             Z
Electronic contribution:      0.00000       0.00000      -0.00000
Nuclear contribution   :      0.00000       0.00000       0.00000
                        -----------------------------------------
Total Dipole Moment    :      0.00000       0.00000      -0.00000
                        -----------------------------------------
Magnitude (a.u.)       :      0.00000
Magnitude (Debye)      :      0.00000



--------------------
Rotational spectrum 
--------------------
 
Rotational constants in cm-1:     0.000000     0.000000     0.000000 
Rotational constants in MHz :     0.000000     0.000000     0.000000 

 Dipole components along the rotational axes: 
x,y,z [a.u.] :     0.000000     0.000000    -0.000000 
x,y,z [Debye]:     0.000000     0.000000    -0.000000 

 

Timings for individual modules:

Sum of individual times         ...       71.138 sec (=   1.186 min)
GTO integral calculation        ...        1.119 sec (=   0.019 min)   1.6 %
SCF iterations                  ...       37.907 sec (=   0.632 min)  53.3 %
MDCI module                     ...       32.113 sec (=   0.535 min)  45.1 %
                             ****ORCA TERMINATED NORMALLY****
TOTAL RUN TIME: 0 days 0 hours 1 minutes 11 seconds 920 msec
