
                                 *****************
                                 * O   R   C   A *
                                 *****************

           --- An Ab Initio, DFT and Semiempirical electronic structure package ---

                  #######################################################
                  #                        -***-                        #
                  #          Department of theory and spectroscopy      #
                  #               Directorship: Frank Neese             #
                  #        Max Planck Institute fuer Kohlenforschung    #
                  #                Kaiser Wilhelm Platz 1               #
                  #                 D-45470 Muelheim/Ruhr               #
                  #                      Germany                        #
                  #                                                     #
                  #                  All rights reserved                #
                  #                        -***-                        #
                  #######################################################


                         Program Version 4.2.0 -  RELEASE  -


 With contributions from (in alphabetic order):
   Daniel Aravena         : Magnetic Suceptibility
   Michael Atanasov       : Ab Initio Ligand Field Theory (pilot matlab implementation)
   Alexander A. Auer      : GIAO ZORA, VPT2
   Ute Becker             : Parallelization
   Giovanni Bistoni       : ED, misc. LED, open-shell LED, HFLED
   Martin Brehm           : Molecular dynamics
   Dmytro Bykov           : SCF Hessian
   Vijay G. Chilkuri      : MRCI spin determinant printing, contributions to CSF-ICE
   Dipayan Datta          : RHF DLPNO-CCSD density
   Achintya Kumar Dutta   : EOM-CC, STEOM-CC
   Dmitry Ganyushin       : Spin-Orbit,Spin-Spin,Magnetic field MRCI
   Miquel Garcia          : C-PCM Hessian, Gaussian charge scheme
   Yang Guo               : DLPNO-NEVPT2, CIM, IAO-localization
   Andreas Hansen         : Spin unrestricted coupled pair/coupled cluster methods
   Benjamin Helmich-Paris : CASSCF linear response (MC-RPA)
   Lee Huntington         : MR-EOM, pCC
   Robert Izsak           : Overlap fitted RIJCOSX, COSX-SCS-MP3, EOM
   Christian Kollmar      : KDIIS, OOCD, Brueckner-CCSD(T), CCSD density
   Simone Kossmann        : Meta GGA functionals, TD-DFT gradient, OOMP2, MP2 Hessian
   Martin Krupicka        : AUTO-CI
   Lucas Lang             : DCDCAS
   Dagmar Lenk            : GEPOL surface, SMD
   Dimitrios Liakos       : Extrapolation schemes; Compound Job, initial MDCI parallelization
   Dimitrios Manganas     : Further ROCIS development; embedding schemes
   Dimitrios Pantazis     : SARC Basis sets
   Taras Petrenko         : DFT Hessian,TD-DFT gradient, ASA, ECA, R-Raman, ABS, FL, XAS/XES, NRVS
   Peter Pinski           : DLPNO-MP2, DLPNO-MP2 Gradient
   Christoph Reimann      : Effective Core Potentials
   Marius Retegan         : Local ZFS, SOC
   Christoph Riplinger    : Optimizer, TS searches, QM/MM, DLPNO-CCSD(T), (RO)-DLPNO pert. Triples
   Tobias Risthaus        : Range-separated hybrids, TD-DFT gradient, RPA, STAB
   Michael Roemelt        : Original ROCIS implementation
   Masaaki Saitow         : Open-shell DLPNO-CCSD energy and density
   Barbara Sandhoefer     : DKH picture change effects
   Avijit Sen             : IP-ROCIS
   Kantharuban Sivalingam : CASSCF convergence, NEVPT2, FIC-MRCI
   Bernardo de Souza      : ESD, SOC TD-DFT
   Georgi Stoychev        : AutoAux, RI-MP2 NMR
   Willem Van den Heuvel  : Paramagnetic NMR
   Boris Wezisla          : Elementary symmetry handling
   Frank Wennmohs         : Technical directorship


 We gratefully acknowledge several colleagues who have allowed us to
 interface, adapt or use parts of their codes:
   Stefan Grimme, W. Hujo, H. Kruse,             : VdW corrections, initial TS optimization,
                  C. Bannwarth                     DFT functionals, gCP, sTDA/sTD-DF
   Ed Valeev, F. Pavosevic, A. Kumar             : LibInt (2-el integral package), F12 methods
   Garnet Chan, S. Sharma, J. Yang, R. Olivares  : DMRG
   Ulf Ekstrom                                   : XCFun DFT Library
   Mihaly Kallay                                 : mrcc  (arbitrary order and MRCC methods)
   Andreas Klamt, Michael Diedenhofen            : otool_cosmo (COSMO solvation model)
   Jiri Pittner, Ondrej Demel                    : Mk-CCSD
   Frank Weinhold                                : gennbo (NPA and NBO analysis)
   Christopher J. Cramer and Donald G. Truhlar   : smd solvation model
   Lars Goerigk                                  : TD-DFT with DH, B97 family of functionals
   V. Asgeirsson, H. Jonsson                     : NEB implementation
   FAccTs GmbH                                   : IRC, NEB, NEB-TS, Multilevel, MM, QM/MM, CI optimization
   S Lehtola, MJT Oliveira, MAL Marques          : LibXC Library


 Your calculation uses the libint2 library for the computation of 2-el integrals
 For citations please refer to: http://libint.valeyev.net

 Your ORCA version has been built with support for libXC version: 4.2.3
 For citations please refer to: https://tddft.org/programs/libxc/

 This ORCA versions uses:
   CBLAS   interface :  Fast vector & matrix operations
   LAPACKE interface :  Fast linear algebra routines
   SCALAPACK package :  Parallel linear algebra routines


----- Orbital basis set information -----
Your calculation utilizes the basis: def2-SVP
   F. Weigend and R. Ahlrichs, Phys. Chem. Chem. Phys. 7, 3297 (2005).

----- AuxJ basis set information -----
Your calculation utilizes the auxiliary basis: def2/J
   F. Weigend, Phys. Chem. Chem. Phys. 8, 1057 (2006).

================================================================================
                                        WARNINGS
                       Please study these warnings very carefully!
================================================================================


INFO   : the flag for use of LIBINT has been found!

================================================================================
                                       INPUT FILE
================================================================================
NAME = 75_Re_atom75.inp
|  1> # input to generate an atomic fitting density for Re
|  2> # this file is use internally by ORCA
|  3> #
|  4> # atomic ground state (S=6): 1s2 2s2 2p6 3s2 3p6 4s2 3d10 4p6 5s2 4d10 5p6 6s2 4f14 5d5 
|  5> #
|  6> ! RHF AllowRHF def2-SVP def2/J  NoMulliken NoLoewdin NoMayer NoPrintMOs 
|  7> 
|  8> %output print[p_atomdensfit] 2 end
|  9> 
| 10> %scf
| 11>   guess hcore
| 12>   maxiter 1000
| 13>   maxdisk 500000
| 14>   SCFMode Conventional
| 15>   lshift 0.500000
| 16>   hftyp rohf
| 17>   rohf_case sahf
| 18>   rohf_numop   2
| 19>   rohf_norb[1] 5
| 20>   rohf_nel[1]  5
| 21> end
| 22> 
| 23> %basis
| 24>   NewECP 75
| 25>     N_core 60
| 26>     lmax h
| 27>     s 2
| 28>       1      12.1638140000    421.9703000000  2
| 29>       2       7.1075950000     50.1344390000  2
| 30>     p 4
| 31>       1       9.6845970000     88.4819100000  2
| 32>       2       9.4762140000    176.7872200000  2
| 33>       3       7.6680660000     10.4343380000  2
| 34>       4       5.0551560000     20.4587430000  2
| 35>     d 4
| 36>       1       6.5098880000     43.1624310000  2
| 37>       2       6.0912160000     64.7677590000  2
| 38>       3       4.1640060000      5.3403010000  2
| 39>       4       4.4073790000      8.2433320000  2
| 40>     f 2
| 41>       1       2.5626580000      7.2445430000  2
| 42>       2       2.5215490000      9.6592660000  2
| 43>     g 2
| 44>       1       4.0345990000     -7.9749400000  2
| 45>       2       4.0096280000     -9.8827360000  2
| 46>     h 1
| 47>       1       1.0000000000      0.0000000000  2
| 48>   end
| 49>   NewGTO 75
| 50>     s 9 
| 51>      1      30.4120000000      0.0230035483
| 52>      2      19.0142000000     -0.1977782777
| 53>      3      11.8921000000      0.5817945312
| 54>      4       7.4336100000     -0.3842804435
| 55>      5       4.1811300000     -0.6007121401
| 56>      6       1.1685700000      0.8270219428
| 57>      7       0.5539770000      0.5105963126
| 58>      8       0.1707810000      0.0365773130
| 59>      9       0.0792870000     -0.0087723106
| 60>     s 9 
| 61>      1      30.4120000000     -0.0094636703
| 62>      2      19.0142000000      0.0847700157
| 63>      3      11.8921000000     -0.2577625998
| 64>      4       7.4336100000      0.1777828370
| 65>      5       4.1811300000      0.2855956886
| 66>      6       1.1685700000     -0.5123286346
| 67>      7       0.5539770000     -0.4887869508
| 68>      8       0.1707810000      0.3507951125
| 69>      9       0.0792870000      0.8817412768
| 70>     s 9 
| 71>      1      30.4120000000      0.0008373048
| 72>      2      19.0142000000      0.0447155519
| 73>      3      11.8921000000     -0.1811798753
| 74>      4       7.4336100000      0.0201648348
| 75>      5       4.1811300000      0.5785121806
| 76>      6       1.1685700000     -1.2227768125
| 77>      7       0.5539770000     -0.0946706484
| 78>      8       0.1707810000      2.3145333162
| 79>      9       0.0792870000     -1.0842913028
| 80>     s 9 
| 81>      1      30.4120000000     -0.0072410147
| 82>      2      19.0142000000     -0.0076569826
| 83>      3      11.8921000000      0.0920655490
| 84>      4       7.4336100000      0.0624940064
| 85>      5       4.1811300000     -0.6148275281
| 86>      6       1.1685700000      1.9825168657
| 87>      7       0.5539770000     -2.0141987445
| 88>      8       0.1707810000      0.1804227617
| 89>      9       0.0792870000      1.1764038341
| 90>     s 1 
| 91>      1       0.0339090000      1.0000000000
| 92>     s 1 
| 93>      1       0.0145000000      1.0000000000
| 94>     p 8 
| 95>      1      18.3488000000     -0.0168768850
| 96>      2      11.4877000000      0.0929143667
| 97>      3       5.4325600000     -0.2913990139
| 98>      4       1.3785900000      0.4982236043
| 99>      5       0.6887660000      0.4796037312
|100>      6       0.3380830000      0.1752908053
|101>      7       0.1491600000      0.0173408818
|102>      8       0.0643210000      0.0013479908
|103>     p 8 
|104>      1      18.3488000000      0.0054842751
|105>      2      11.4877000000     -0.0319820833
|106>      3       5.4325600000      0.1058900689
|107>      4       1.3785900000     -0.2136117999
|108>      5       0.6887660000     -0.2512495419
|109>      6       0.3380830000     -0.0052105374
|110>      7       0.1491600000      0.4548865784
|111>      8       0.0643210000      0.6472753764
|112>     p 8 
|113>      1      18.3488000000      0.0073848748
|114>      2      11.4877000000     -0.0438081716
|115>      3       5.4325600000      0.1466352123
|116>      4       1.3785900000     -0.3016113546
|117>      5       0.6887660000     -0.4008637110
|118>      6       0.3380830000      0.1904995046
|119>      7       0.1491600000      0.7621333091
|120>      8       0.0643210000      0.2568080438
|121>     p 8 
|122>      1      18.3488000000      0.0149899133
|123>      2      11.4877000000     -0.0835383065
|124>      3       5.4325600000      0.2796634852
|125>      4       1.3785900000     -0.8318185487
|126>      5       0.6887660000     -0.4189907116
|127>      6       0.3380830000      1.7054281861
|128>      7       0.1491600000     -0.3002728711
|129>      8       0.0643210000     -0.7897572546
|130>     p 1 
|131>      1       0.0273440000      1.0000000000
|132>     p 1 
|133>      1       0.0116000000      1.0000000000
|134>     d 7 
|135>      1      13.8248000000     -0.0010381946
|136>      2       8.6358600000      0.0205478580
|137>      3       5.3969500000     -0.0726183356
|138>      4       1.4943200000      0.2187314315
|139>      5       0.7134790000      0.3830221482
|140>      6       0.3249100000      0.3779253702
|141>      7       0.1398360000      0.2380465614
|142>     d 7 
|143>      1      13.8248000000      0.0017904712
|144>      2       8.6358600000     -0.0289531995
|145>      3       5.3969500000      0.1011311826
|146>      4       1.4943200000     -0.3511634691
|147>      5       0.7134790000     -0.6019201448
|148>      6       0.3249100000      0.0959598146
|149>      7       0.1398360000      0.7877054531
|150>     d 7 
|151>      1      13.8248000000     -0.0010195735
|152>      2       8.6358600000      0.0363777421
|153>      3       5.3969500000     -0.1473992369
|154>      4       1.4943200000      0.7876753882
|155>      5       0.7134790000      0.2891965348
|156>      6       0.3249100000     -1.2651718307
|157>      7       0.1398360000      0.1858104110
|158>     d 1 
|159>      1       0.0555530000      1.0000000000
|160>     d 1 
|161>      1       0.0221000000      1.0000000000
|162>   end
|163>   NewAuxGTO 75
|164>     S 1
|165>      1 1310.72 1.0
|166>     S 1
|167>      1  655.36 1.0
|168>     S 1
|169>      1  327.68 1.0
|170>     S 1
|171>      1  163.84 1.0
|172>     S 1
|173>      1   81.82 1.0
|174>     S 1
|175>      1   40.96 1.0
|176>     S 1
|177>      1   20.48 1.0
|178>     S 1
|179>      1   10.24 1.0
|180>     S 1
|181>      1    5.12 1.0
|182>     S 1
|183>      1    2.56 1.0
|184>     S 1
|185>      1    1.28 1.0
|186>     S 1
|187>      1    0.64 1.0
|188>     S 1
|189>      1    0.32 1.0
|190>     S 1
|191>      1    0.16 1.0
|192>     S 1
|193>      1    0.08 1.0
|194>     S 1
|195>      1    0.04 1.0
|196>     S 1
|197>      1    0.02 1.0
|198>     S 1
|199>      1    0.01 1.0
|200>   end
|201> end
|202> 
|203> * xyz 0 6
|204> 75  0.0 0.0 0.0
|205> *
|206> 
|207> 
|208>                          ****END OF INPUT****
================================================================================

                       ****************************
                       * Single Point Calculation *
                       ****************************

---------------------------------
CARTESIAN COORDINATES (ANGSTROEM)
---------------------------------
  Re     0.000000    0.000000    0.000000

----------------------------
CARTESIAN COORDINATES (A.U.)
----------------------------
  NO LB      ZA    FRAG     MASS         X           Y           Z
   0 Re   15.0000*   0   186.207    0.000000    0.000000    0.000000
* core charge reduced due to ECP

--------------------------------
INTERNAL COORDINATES (ANGSTROEM)
--------------------------------
 Re     0   0   0     0.000000000000     0.00000000     0.00000000

---------------------------
INTERNAL COORDINATES (A.U.)
---------------------------
 Re     0   0   0     0.000000000000     0.00000000     0.00000000

---------------------
BASIS SET INFORMATION
---------------------
There are 1 groups of distinct atoms

 Group   1 Type Re  : 38s34p23d contracted to 6s6p5d pattern {999911/888811/77711}

Atom   0Re   basis set group =>   1
---------------------------------
AUXILIARY/J BASIS SET INFORMATION
---------------------------------
There are 1 groups of distinct atoms

 Group   1 Type Re  : 18s contracted to 18s pattern {111111111111111111}

Atom   0Re   basis set group =>   1
-------------------------
ECP PARAMETER INFORMATION
-------------------------

 Group 1, Type Re ECP (replacing 60 core electrons, lmax=5)

Atom   0Re   ECP group =>   1

------------------------------------------------------------------------------
                           ORCA GTO INTEGRAL CALCULATION
------------------------------------------------------------------------------

                         BASIS SET STATISTICS AND STARTUP INFO

 # of primitive gaussian shells          ...   95
 # of primitive gaussian functions       ...  255
 # of contracted shells                  ...   17
 # of contracted basis functions         ...   49
 Highest angular momentum                ...    2
 Maximum contraction depth               ...    9
 Integral package used                   ... LIBINT
 Integral threshhold            Thresh   ...  1.000e-10
 Primitive cut-off              TCut     ...  1.000e-11
 Storage cut-off                TCutStore... -1.000e+00
 Buffer length                           ... 1048576 integrals/buffer
 Generate file with integrals 4 distinct ...false


------------------------------ INTEGRAL EVALUATION ----------------------------


 * One electron integrals 

   ECP integrals                         ... done
 Pre-screening matrix                    ... done
 Shell pair data                         ... done (   0.000 sec)
 Statistics run                          ... done
 Maximum amount of storage needed        ...     8 MB
 Maximum amount of storage dedicated     ... 500000 MB
 Beginning two electron integral evaluation:
 Starting repulsion integrals
  <ss|ss>  ...          231 b.         0 skpd (  0.0%)     0.004 s. (  0.018 ms/b)
  <ss|sp>  ...          756 b.         0 skpd (  0.0%)     0.025 s. (  0.033 ms/b)
  <ss|sd>  ...          630 b.         0 skpd (  0.0%)     0.061 s. (  0.097 ms/b)
  <ss|pp>  ...          441 b.         0 skpd (  0.0%)     0.050 s. (  0.114 ms/b)
  <ss|pd>  ...          630 b.         0 skpd (  0.0%)     0.075 s. (  0.120 ms/b)
  <ss|dd>  ...          315 b.         0 skpd (  0.0%)     0.051 s. (  0.161 ms/b)
  <sp|sp>  ...          666 b.         0 skpd (  0.0%)     0.071 s. (  0.107 ms/b)
  <sp|sd>  ...         1080 b.         0 skpd (  0.0%)     0.129 s. (  0.119 ms/b)
  <sp|pp>  ...          756 b.         0 skpd (  0.0%)     0.116 s. (  0.153 ms/b)
  <sp|pd>  ...         1080 b.         0 skpd (  0.0%)     0.220 s. (  0.204 ms/b)
  <sp|dd>  ...          540 b.         0 skpd (  0.0%)     0.167 s. (  0.310 ms/b)
  <sd|sd>  ...          465 b.         0 skpd (  0.0%)     0.090 s. (  0.194 ms/b)
  <sd|pp>  ...          630 b.         0 skpd (  0.0%)     0.163 s. (  0.259 ms/b)
  <sd|pd>  ...          900 b.         0 skpd (  0.0%)     0.333 s. (  0.370 ms/b)
  <sd|dd>  ...          450 b.         0 skpd (  0.0%)     0.265 s. (  0.590 ms/b)
  <pp|pp>  ...          231 b.         0 skpd (  0.0%)     0.077 s. (  0.335 ms/b)
  <pp|pd>  ...          630 b.         0 skpd (  0.0%)     0.279 s. (  0.442 ms/b)
  <pp|dd>  ...          315 b.         0 skpd (  0.0%)     0.230 s. (  0.730 ms/b)
  <pd|pd>  ...          465 b.         0 skpd (  0.0%)     0.377 s. (  0.812 ms/b)
  <pd|dd>  ...          450 b.         0 skpd (  0.0%)     0.563 s. (  1.252 ms/b)
  <dd|dd>  ...          120 b.         0 skpd (  0.0%)     0.279 s. (  2.322 ms/b)


                                      INTEGRAL STATISTICS

Integral type statistics:
 Number of integrals retained            ...     750925 
 One   Center Integrals retained         ...     750925 (100.0%)
 Two   Center Integrals retained         ...          0 (  0.0%)
 Three Center Integrals retained         ...          0 (  0.0%)
 Four  Center Integrals retained         ...          0 (  0.0%)

Storage statistics:
 Number of char integrals                ...          0 (  0.0%)
 Number of short int integrals           ...          0 (  0.0%)
 Number of double/float integrals        ...     750925 (100.0%)
 Amount of memory used                   ...          9 MB
 Amount of memory estimated              ...          8 MB ( 95.6%)

Prescreening statistics:
 Total number of shell quadruples        ...      11781 
 Number of skipped shell quadruples      ...          0 (  0.0%)
 # of negligible batches done            ...          0 (  0.0%)

Timings:
 Total evaluation time               ...     3.960 sec (   0.066 min)
 One electron matrix time            ...     0.027 sec (   0.000 min) =  0.7%
 Schwartz matrix evaluation time     ...     0.221 sec (   0.004 min) =  5.6%
 Statistics run                      ...     0.006 sec (   0.000 min) =  0.1%
 Repulsion integral time             ...     3.627 sec (   0.060 min) = 91.6%

-------------------------------------------------------------------------------
                                 ORCA SCF
-------------------------------------------------------------------------------

------------
SCF SETTINGS
------------
Hamiltonian:
 Ab initio Hamiltonian  Method          .... Hartree-Fock(GTOs)


General Settings:
 Integral files         IntName         .... 75_Re_atom75
 Hartree-Fock type      HFTyp           .... ROHF
 Total Charge           Charge          ....    0
 Multiplicity           Mult            ....    6
 Number of Electrons    NEL             ....   15
 Basis Dimension        Dim             ....   49
 Nuclear Repulsion      ENuc            ....      0.0000000000 Eh

Convergence Acceleration:
 DIIS                   CNVDIIS         .... on
   Start iteration      DIISMaxIt       ....    12
   Startup error        DIISStart       ....  0.200000
   # of expansion vecs  DIISMaxEq       ....     5
   Bias factor          DIISBfac        ....   1.050
   Max. coefficient     DIISMaxC        ....  10.000
 Newton-Raphson         CNVNR           .... off
 SOSCF                  CNVSOSCF        .... off
 Level Shifting         CNVShift        .... on
   Level shift para.    LevelShift      ....    0.5000
   Turn off err/grad.   ShiftErr        ....    0.0010
 Zerner damping         CNVZerner       .... off
 Static damping         CNVDamp         .... on
   Fraction old density DampFac         ....    0.7000
   Max. Damping (<1)    DampMax         ....    0.9800
   Min. Damping (>=0)   DampMin         ....    0.0000
   Turn off err/grad.   DampErr         ....    0.1000
 Fernandez-Rico         CNVRico         .... off

SCF Procedure:
 Maximum # iterations   MaxIter         ....  1000
 SCF integral mode      SCFMode         .... Conventional
 Integral Threshold     Thresh          ....  1.000e-10 Eh
 Primitive CutOff       TCut            ....  1.000e-11 Eh
 Integral Buffer length BufferLength    .... 1048576
 Integral index format  IndFormat       ....     0
 Integral value format  ValFormat       ....     0
 Integral Storage       Thresh          ....  1.000e-10 Eh

Convergence Tolerance:
 Convergence Check Mode ConvCheckMode   .... Total+1el-Energy
 Convergence forced     ConvForced      .... 0
 Energy Change          TolE            ....  1.000e-06 Eh
 1-El. energy change                    ....  1.000e-03 Eh
 DIIS Error             TolErr          ....  1.000e-06


Diagonalization of the overlap matrix:
Smallest eigenvalue                        ... 2.167e-03
Time for diagonalization                   ...    0.001 sec
Threshold for overlap eigenvalues          ... 1.000e-08
Number of eigenvalues below threshold      ... 0
Time for construction of square roots      ...    0.003 sec
Total time needed                          ...    0.004 sec

--------------------
INITIAL GUESS: HCORE
--------------------
AVERAGE-CONFIGURATION (SAHF) CASE FOUND

-------------------
FINAL ROHF SETTINGS
-------------------
Number of operators             ... 2
  operator   0:   5 orbitals  10 electrons n(mue)= 2.000
  operator   1:   5 orbitals   5 electrons n(mue)= 1.000
Vector coupling coefficients a and b (Zerner convention):
   1.000    1.000           1.000    1.000 
   1.000    1.000           1.000    2.000 

                      -----------------
                      INTIAL GUESS DONE 
                      -----------------

 InCore treatment chosen:
   Memory dedicated               ...    1024 MB
   Memory needed                  ...      9 MB
   Number of tiny    integrals    ...       0
   Number of small   integrals    ...       0
   Number of regular integrals    ...  750925

--------------
SCF ITERATIONS
--------------
ITER       Energy         Delta-E        Max-DP      RMS-DP      [F,P]     Damp
  0    -70.2992798860   0.000000000000 0.85213850  0.02956300  1.1075279 0.7000
  1    -75.1656821225  -4.866402236424 0.52582893  0.01924658  0.2326114 0.7000
                            ****Activating DIIS****
  2    -74.7882681586   0.377413963885 0.73011062  0.03732721  0.0812464 0.0000
  3    -74.0961908746   0.692077283984 0.07372838  0.00169195  0.4195077 0.7000
  4    -73.8971724749   0.199018399724 0.04325724  0.00100949  0.5044287 0.7000
  5    -73.8640252930   0.033147181906 0.04049874  0.00097883  0.5070412 0.7000
  6    -73.7984046913   0.065620601702 0.02509437  0.00059330  0.5237913 0.7000
  7    -73.8237329122  -0.025328220900 0.58750461  0.02127776  0.5005515 0.7000
  8    -77.2200351601  -3.396302247979 1.53780610  0.05092655  0.0824887 0.0000
  9    -77.1952615643   0.024773595833 0.00040286  0.00001559  0.2368894 0.7000
 10    -77.1914946424   0.003766921878 0.00037848  0.00001468  0.2388505 0.7000
 11    -77.1899669817   0.001527660691 0.00047592  0.00001871  0.2393885 0.7000
 12    -77.1871863242   0.002780657546 0.00411188  0.00015920  0.2405901 0.7000
 13    -77.1508533213   0.036333002893 0.03975820  0.00192926  0.2603593 0.7000
 14    -77.5260670837  -0.375213762373 0.19163232  0.00697765  0.0956434 0.0000
 15    -77.7309029403  -0.204835856586 0.07806502  0.00278537  0.0771421 0.0000
 16    -77.7497182740  -0.018815333729 0.06078833  0.00166755  0.0190020 0.0000
 17    -77.7587263809  -0.009008106955 0.03334862  0.00090747  0.0159368 0.0000
 18    -77.7609817937  -0.002255412783 0.02647357  0.00066851  0.0142262 0.0000
 19    -77.7616700264  -0.000688232657 0.02355389  0.00055584  0.0136926 0.0000
 20    -77.7620079290  -0.000337902571 0.01735912  0.00039113  0.0135799 0.0000
 21    -77.7621680837  -0.000160154737 0.01562843  0.00034612  0.0136068 0.0000
 22    -77.7622576242  -0.000089540551 0.01319860  0.00028779  0.0136232 0.0000
 23    -77.7622977022  -0.000040077942 0.00636805  0.00013133  0.0136398 0.0000
 24    -77.7623109395  -0.000013237304 0.00152926  0.00003373  0.0136701 0.0000
 25    -77.7623170744  -0.000006134950 0.00102511  0.00002352  0.0136905 0.0000
 26    -77.7623205366  -0.000003462196 0.00050537  0.00001582  0.0137025 0.0000
 27    -77.7623223778  -0.000001841179 0.00057304  0.00001386  0.0137092 0.0000
 28    -77.7623233617  -0.000000983931 0.00040767  0.00001001  0.0137126 0.0000
                 **** Energy Check signals convergence ****

               *****************************************************
               *                     SUCCESS                       *
               *           SCF CONVERGED AFTER  29 CYCLES          *
               *****************************************************


----------------
TOTAL SCF ENERGY
----------------

Total Energy       :          -77.76232400 Eh           -2116.02041 eV

Components:
Nuclear Repulsion  :            0.00000000 Eh               0.00000 eV
Electronic Energy  :          -77.76232400 Eh           -2116.02041 eV
One Electron Energy:         -134.08957908 Eh           -3648.76295 eV
Two Electron Energy:           56.32725508 Eh            1532.74253 eV

Virial components:
Potential Energy   :         -104.63807360 Eh           -2847.34674 eV
Kinetic Energy     :           26.87574960 Eh             731.32633 eV
Virial Ratio       :            3.89340112


---------------
SCF CONVERGENCE
---------------

  Last Energy change         ...   -6.4037e-07  Tolerance :   1.0000e-06
  Last MAX-Density change    ...    3.1251e-04  Tolerance :   1.0000e-05
  Last RMS-Density change    ...    7.6757e-06  Tolerance :   1.0000e-06
  Last DIIS Error            ...    1.3715e-02  Tolerance :   1.0000e-06

             **** THE GBW FILE WAS UPDATED (75_Re_atom75.gbw) ****
             **** DENSITY FILE WAS UPDATED (75_Re_atom75.scfp) ****
             **** ENERGY FILE WAS UPDATED (75_Re_atom75.en.tmp) ****
             **** THE GBW FILE WAS UPDATED (75_Re_atom75.gbw) ****
             **** DENSITY FILE WAS UPDATED (75_Re_atom75.scfp) ****
----------------
ORBITAL ENERGIES
----------------

  NO   OCC          E(Eh)            E(eV) 
   0   2.0000      -3.575048       -97.2820 
   1   2.0000      -2.015299       -54.8391 
   2   2.0000      -2.004818       -54.5539 
   3   2.0000      -2.004818       -54.5539 
   4   2.0000      -0.259094        -7.0503 
   5   1.0000      -0.368807       -10.0358 
   6   1.0000      -0.359404        -9.7799 
   7   1.0000      -0.359404        -9.7799 
   8   1.0000      -0.340738        -9.2720 
   9   1.0000      -0.289315        -7.8727 
  10   0.0000       0.017179         0.4675 
  11   0.0000       0.019303         0.5253 
  12   0.0000       0.019303         0.5253 
  13   0.0000       0.035871         0.9761 
  14   0.0000       0.050774         1.3816 
  15   0.0000       0.068879         1.8743 
  16   0.0000       0.069201         1.8830 
  17   0.0000       0.069201         1.8830 
  18   0.0000       0.070280         1.9124 
  19   0.0000       0.070695         1.9237 
  20   0.0000       0.056648         1.5415 
  21   0.0000       0.056648         1.5415 
  22   0.0000       0.176830         4.8118 
  23   0.0000       0.186595         5.0775 
  24   0.0000       0.186595         5.0775 
  25   0.0000       0.234351         6.3770 
  26   0.0000       0.235905         6.4193 
  27   0.0000       0.235905         6.4193 
  28   0.0000       0.243550         6.6273 
  29   0.0000       0.239998         6.5307 
  30   0.0000       0.337413         9.1815 
  31   0.0000       0.607825        16.5397 
  32   0.0000       0.628150        17.0928 
  33   0.0000       0.628150        17.0928 
  34   0.0000       0.763728        20.7821 
  35   0.0000       0.767184        20.8761 
  36   0.0000       0.767184        20.8761 
  37   0.0000       0.791709        21.5435 
  38   0.0000       0.777540        21.1579 
  39   0.0000       1.898594        51.6634 
  40   0.0000       2.156323        58.6765 
  41   0.0000       2.188383        59.5489 
  42   0.0000       2.188383        59.5489 
  43   0.0000       2.630459        71.5784 
  44   0.0000       2.635276        71.7095 
  45   0.0000       2.635276        71.7095 
  46   0.0000       2.671907        72.7063 
  47   0.0000       2.650507        72.1240 
  48   0.0000      21.829398       594.0081 
CleanUpVectors: The p-vectors have cracked symmetry
CleanUpVectors: The p-vectors have cracked symmetry
CleanUpVectors: The p-vectors have cracked symmetry
CleanUpVectors: The d-vectors have cracked symmetry at i=4
CleanUpVectors: The d-vectors have cracked symmetry at i=6
CleanUpVectors: The d-vectors have cracked symmetry at i=7
CleanUpVectors: The d-vectors have cracked symmetry at i=8
CleanUpVectors: The d-vectors have cracked symmetry at i=9
CleanUpVectors: The p-vectors have cracked symmetry
CleanUpVectors: The p-vectors have cracked symmetry
CleanUpVectors: The p-vectors have cracked symmetry
CleanUpVectors: The p-vectors have cracked symmetry
CleanUpVectors: The d-vectors have cracked symmetry at i=15
CleanUpVectors: The d-vectors have cracked symmetry at i=16
CleanUpVectors: The d-vectors have cracked symmetry at i=17
CleanUpVectors: The d-vectors have cracked symmetry at i=18
CleanUpVectors: The d-vectors have cracked symmetry at i=19
CleanUpVectors: The p-vectors have cracked symmetry
CleanUpVectors: The p-vectors have cracked symmetry
CleanUpVectors: The p-vectors have cracked symmetry
CleanUpVectors: The p-vectors have cracked symmetry
CleanUpVectors: The p-vectors have cracked symmetry
CleanUpVectors: The d-vectors have cracked symmetry at i=25
CleanUpVectors: The d-vectors have cracked symmetry at i=26
CleanUpVectors: The d-vectors have cracked symmetry at i=27
CleanUpVectors: The d-vectors have cracked symmetry at i=28
CleanUpVectors: The d-vectors have cracked symmetry at i=29
CleanUpVectors: The p-vectors have cracked symmetry
CleanUpVectors: The p-vectors have cracked symmetry
CleanUpVectors: The p-vectors have cracked symmetry
CleanUpVectors: The d-vectors have cracked symmetry at i=34
CleanUpVectors: The d-vectors have cracked symmetry at i=35
CleanUpVectors: The d-vectors have cracked symmetry at i=36
CleanUpVectors: The d-vectors have cracked symmetry at i=37
CleanUpVectors: The d-vectors have cracked symmetry at i=38
CleanUpVectors: The p-vectors have cracked symmetry
CleanUpVectors: The p-vectors have cracked symmetry
CleanUpVectors: The p-vectors have cracked symmetry
CleanUpVectors: The d-vectors have cracked symmetry at i=43
CleanUpVectors: The d-vectors have cracked symmetry at i=44
--------------------------
ATOM BASIS FOR ELEMENT Re
--------------------------
 NewGTO Re
 S 38
    1         30.412000000000         0.022983412151
    2         19.014200000000        -0.197605152547
    3         11.892100000000         0.581285257542
    4          7.433610000000        -0.383944063736
    5          4.181130000000        -0.600186306919
    6          1.168570000000         0.826298009405
    7          0.553977000000         0.510149362280
    8          0.170781000000         0.036545295061
    9          0.079287000000        -0.008764631761
   10         30.412000000000         0.000045945091
   11         19.014200000000        -0.000411549215
   12         11.892100000000         0.001251409412
   13          7.433610000000        -0.000863116355
   14          4.181130000000        -0.001386536033
   15          1.168570000000         0.002487299848
   16          0.553977000000         0.002373007531
   17          0.170781000000        -0.001703072151
   18          0.079287000000        -0.004280758083
   19         30.412000000000        -0.000000149123
   20         19.014200000000        -0.000007963798
   21         11.892100000000         0.000032267965
   22          7.433610000000        -0.000003591338
   23          4.181130000000        -0.000103032475
   24          1.168570000000         0.000217775400
   25          0.553977000000         0.000016860753
   26          0.170781000000        -0.000412216207
   27          0.079287000000         0.000193111261
   28         30.412000000000         0.000000640178
   29         19.014200000000         0.000000676954
   30         11.892100000000        -0.000008139512
   31          7.433610000000        -0.000005525093
   32          4.181130000000         0.000054356882
   33          1.168570000000        -0.000175274253
   34          0.553977000000         0.000178075247
   35          0.170781000000        -0.000015951171
   36          0.079287000000        -0.000104005825
   37          0.033909000000         0.001652138884
   38          0.014500000000        -0.000591714104
 P 34
    1         18.348800000000         0.016878206646
    2         11.487700000000        -0.092921642917
    3          5.432560000000         0.291421833648
    4          1.378590000000        -0.498262620688
    5          0.688766000000        -0.479641289447
    6          0.338083000000        -0.175304532498
    7          0.149160000000        -0.017342239782
    8          0.064321000000        -0.001348096363
    9         18.348800000000        -0.000013105801
   10         11.487700000000         0.000076427750
   11          5.432560000000        -0.000253046045
   12          1.378590000000         0.000510469222
   13          0.688766000000         0.000600412328
   14          0.338083000000         0.000012451648
   15          0.149160000000        -0.001087044807
   16          0.064321000000        -0.001546797311
   17         18.348800000000         0.000033756778
   18         11.487700000000        -0.000200250208
   19          5.432560000000         0.000670279782
   20          1.378590000000        -0.001378686537
   21          0.688766000000        -0.001832375980
   22          0.338083000000         0.000870786522
   23          0.149160000000         0.003483764509
   24          0.064321000000         0.001173887479
   25         18.348800000000        -0.000000912262
   26         11.487700000000         0.000005084005
   27          5.432560000000        -0.000017019862
   28          1.378590000000         0.000050623116
   29          0.688766000000         0.000025499089
   30          0.338083000000        -0.000103789568
   31          0.149160000000         0.000018274116
   32          0.064321000000         0.000048063334
   33          0.027344000000         0.000539444977
   34          0.011600000000        -0.000187347405
 D 23
    1         13.824800000000         0.001010103144
    2          8.635860000000        -0.019991874321
    3          5.396950000000         0.070653429602
    4          1.494320000000        -0.212812999219
    5          0.713479000000        -0.372658339803
    6          0.324910000000        -0.367699470357
    7          0.139836000000        -0.231605500580
    8         13.824800000000        -0.000043484027
    9          8.635860000000         0.000703167810
   10          5.396950000000        -0.002456108252
   11          1.494320000000         0.008528482235
   12          0.713479000000         0.014618448995
   13          0.324910000000        -0.002330514550
   14          0.139836000000        -0.019130497772
   15         13.824800000000         0.000007821383
   16          8.635860000000        -0.000279062029
   17          5.396950000000         0.001130733457
   18          1.494320000000        -0.006042439118
   19          0.713479000000        -0.002218493152
   20          0.324910000000         0.009705424183
   21          0.139836000000        -0.001425394411
   22          0.055553000000        -0.086326918489
   23          0.022100000000        -0.001783526910
 D 61
    1         30.412000000000        -0.000000037339
    2         19.014200000000         0.000000513469
    3         11.892100000000        -0.000002415043
    4          7.433610000000         0.000002551892
    5          4.181130000000         0.000007092290
    6          1.168570000000        -0.000034936229
    7          0.553977000000        -0.000045498771
    8          0.170781000000        -0.000010572702
    9          0.079287000000         0.000005461674
   10         30.412000000000        -0.000007980031
   11         19.014200000000         0.000114328416
   12         11.892100000000        -0.000555841965
   13          7.433610000000         0.000613309993
   14          4.181130000000         0.001751652515
   15          1.168570000000        -0.011243043161
   16          0.553977000000        -0.022626524478
   17          0.170781000000         0.052674929438
   18          0.079287000000         0.285186633789
   19         30.412000000000        -0.000000153131
   20         19.014200000000        -0.000013079948
   21         11.892100000000         0.000084737738
   22          7.433610000000        -0.000015087607
   23          4.181130000000        -0.000769563216
   24          1.168570000000         0.005819932213
   25          0.553977000000         0.000950493348
   26          0.170781000000        -0.075378822448
   27          0.079287000000         0.076062299887
   28         30.412000000000         0.000000042593
   29         19.014200000000         0.000000072038
   30         11.892100000000        -0.000001384900
   31          7.433610000000        -0.000001503899
   32          4.181130000000         0.000026305077
   33          1.168570000000        -0.000303488402
   34          0.553977000000         0.000650414968
   35          0.170781000000        -0.000188986906
   36          0.079287000000        -0.002654204530
   37          0.033909000000         0.394623094969
   38          0.014500000000         0.061030711319
   39         13.824800000000         0.001009935335
   40          8.635860000000        -0.019988553057
   41          5.396950000000         0.070641691899
   42          1.494320000000        -0.212777644448
   43          0.713479000000        -0.372596429815
   44          0.324910000000        -0.367638384190
   45          0.139836000000        -0.231567023798
   46         13.824800000000         0.000019023889
   47          8.635860000000        -0.000307629880
   48          5.396950000000         0.001074526275
   49          1.494320000000        -0.003731137763
   50          0.713479000000        -0.006395445939
   51          0.324910000000         0.001019580109
   52          0.139836000000         0.008369428544
   53         13.824800000000        -0.000004404092
   54          8.635860000000         0.000157135228
   55          5.396950000000        -0.000636697369
   56          1.494320000000         0.003402397852
   57          0.713479000000         0.001249196920
   58          0.324910000000        -0.005464964354
   59          0.139836000000         0.000802616094
   60          0.055553000000        -0.043980763206
   61          0.022100000000         0.000763801989
 P 68
    1         18.348800000000        -0.000131552959
    2         11.487700000000         0.000724254501
    3          5.432560000000        -0.002271414581
    4          1.378590000000         0.003883583353
    5          0.688766000000         0.003738444045
    6          0.338083000000         0.001366367325
    7          0.149160000000         0.000135169750
    8          0.064321000000         0.000010507400
    9         18.348800000000         0.000094914703
   10         11.487700000000        -0.000522545455
   11          5.432560000000         0.001638812551
   12          1.378590000000        -0.002801983043
   13          0.688766000000        -0.002697265868
   14          0.338083000000        -0.000985826163
   15          0.149160000000        -0.000097524197
   16          0.064321000000        -0.000007581029
   17         18.348800000000         0.002599599068
   18         11.487700000000        -0.015159814637
   19          5.432560000000         0.050192909616
   20          1.378590000000        -0.101254044658
   21          0.688766000000        -0.119094695835
   22          0.338083000000        -0.002469844769
   23          0.149160000000         0.215620606845
   24          0.064321000000         0.306814744779
   25         18.348800000000        -0.001875595769
   26         11.487700000000         0.010937719032
   27          5.432560000000        -0.036213895480
   28          1.378590000000         0.073054210610
   29          0.688766000000         0.085926137780
   30          0.338083000000         0.001781978790
   31          0.149160000000        -0.155569027168
   32          0.064321000000        -0.221365072961
   33         18.348800000000        -0.002199659166
   34         11.487700000000         0.013048704116
   35          5.432560000000        -0.043676771442
   36          1.378590000000         0.089837972699
   37          0.688766000000         0.119401284386
   38          0.338083000000        -0.056742191673
   39          0.149160000000        -0.227009064385
   40          0.064321000000        -0.076492856372
   41         18.348800000000         0.001587041431
   42         11.487700000000        -0.009414564938
   43          5.432560000000         0.031512539282
   44          1.378590000000        -0.064817580379
   45          0.688766000000        -0.086147339655
   46          0.338083000000         0.040939164800
   47          0.149160000000         0.163785733754
   48          0.064321000000         0.055189155736
   49         18.348800000000         0.000405353243
   50         11.487700000000        -0.002259020635
   51          5.432560000000         0.007562585483
   52          1.378590000000        -0.022493815652
   53          0.688766000000        -0.011330235231
   54          0.338083000000         0.046117734794
   55          0.149160000000        -0.008119899007
   56          0.064321000000        -0.021356405339
   57         18.348800000000        -0.000292460033
   58         11.487700000000         0.001629870390
   59          5.432560000000        -0.005456361911
   60          1.378590000000         0.016229158564
   61          0.688766000000         0.008174699526
   62          0.338083000000        -0.033273680294
   63          0.149160000000         0.005858460412
   64          0.064321000000         0.015408523568
   65          0.027344000000        -0.422185852634
   66          0.027344000000         0.304604663438
   67          0.011600000000         1.049594429536
   68          0.011600000000        -0.757276341594
 D 61
    1         30.412000000000         0.000000059759
    2         19.014200000000        -0.000000821781
    3         11.892100000000         0.000003865150
    4          7.433610000000        -0.000004084170
    5          4.181130000000        -0.000011350841
    6          1.168570000000         0.000055913621
    7          0.553977000000         0.000072818421
    8          0.170781000000         0.000016921060
    9          0.079287000000        -0.000008741125
   10         30.412000000000        -0.000000854499
   11         19.014200000000         0.000012242244
   12         11.892100000000        -0.000059519352
   13          7.433610000000         0.000065673007
   14          4.181130000000         0.000187566302
   15          1.168570000000        -0.001203900896
   16          0.553977000000        -0.002422839857
   17          0.170781000000         0.005640411926
   18          0.079287000000         0.030537679074
   19         30.412000000000        -0.000000060919
   20         19.014200000000        -0.000005203466
   21         11.892100000000         0.000033710376
   22          7.433610000000        -0.000006002153
   23          4.181130000000        -0.000306147724
   24          1.168570000000         0.002315286078
   25          0.553977000000         0.000378125369
   26          0.170781000000        -0.029987211500
   27          0.079287000000         0.030259112570
   28         30.412000000000         0.000000307099
   29         19.014200000000         0.000000519402
   30         11.892100000000        -0.000009985337
   31          7.433610000000        -0.000010843331
   32          4.181130000000         0.000189663498
   33          1.168570000000        -0.002188196310
   34          0.553977000000         0.004689588222
   35          0.170781000000        -0.001362623572
   36          0.079287000000        -0.019137207645
   37          0.033909000000         0.447587831389
   38          0.014500000000        -1.423903757322
   39         13.824800000000        -0.000002010886
   40          8.635860000000         0.000039799285
   41          5.396950000000        -0.000140654944
   42          1.494320000000         0.000423662384
   43          0.713479000000         0.000741878180
   44          0.324910000000         0.000732006196
   45          0.139836000000         0.000461073989
   46         13.824800000000         0.000158767992
   47          8.635860000000        -0.002567391953
   48          5.396950000000         0.008967692307
   49          1.494320000000        -0.031139020224
   50          0.713479000000        -0.053374582528
   51          0.324910000000         0.008509127146
   52          0.139836000000         0.069848882909
   53         13.824800000000        -0.000034798779
   54          8.635860000000         0.001241598562
   55          5.396950000000        -0.005030842214
   56          1.494320000000         0.026883928824
   57          0.713479000000         0.009870486211
   58          0.324910000000        -0.043181226628
   59          0.139836000000         0.006341843276
   60          0.055553000000        -0.400168794546
   61          0.022100000000         1.228680732146
 P 68
    1         18.348800000000        -0.000901577747
    2         11.487700000000         0.004963565573
    3          5.432560000000        -0.015566786546
    4          1.378590000000         0.026615534474
    5          0.688766000000         0.025620844801
    6          0.338083000000         0.009364185942
    7          0.149160000000         0.000926364856
    8          0.064321000000         0.000072010831
    9         18.348800000000         0.002665130788
   10         11.487700000000        -0.014672668523
   11          5.432560000000         0.046016577314
   12          1.378590000000        -0.078677496879
   13          0.688766000000        -0.075737120319
   14          0.338083000000        -0.027681229207
   15          0.149160000000        -0.002738403323
   16          0.064321000000        -0.000212869364
   17         18.348800000000         0.001688689492
   18         11.487700000000        -0.009847756909
   19          5.432560000000         0.032605119806
   20          1.378590000000        -0.065774235488
   21          0.688766000000        -0.077363453437
   22          0.338083000000        -0.001604401602
   23          0.149160000000         0.140066311608
   24          0.064321000000         0.199305670627
   25         18.348800000000        -0.004991891573
   26         11.487700000000         0.029110700905
   27          5.432560000000        -0.096383156019
   28          1.378590000000         0.194433525742
   29          0.688766000000         0.228692114834
   30          0.338083000000         0.004742730309
   31          0.149160000000        -0.414046421089
   32          0.064321000000        -0.589162366584
   33         18.348800000000        -0.001860353233
   34         11.487700000000         0.011035891044
   35          5.432560000000        -0.036939460541
   36          1.378590000000         0.075980117990
   37          0.688766000000         0.100983174524
   38          0.338083000000        -0.047989489175
   39          0.149160000000        -0.191992038319
   40          0.064321000000        -0.064693537465
   41         18.348800000000         0.005499342342
   42         11.487700000000        -0.032622913661
   43          5.432560000000         0.109195789184
   44          1.378590000000        -0.224602872501
   45          0.688766000000        -0.298513764813
   46          0.338083000000         0.141860494609
   47          0.149160000000         0.567542726233
   48          0.064321000000         0.191238902114
   49         18.348800000000         0.000362791054
   50         11.487700000000        -0.002021822919
   51          5.432560000000         0.006768512166
   52          1.378590000000        -0.020131959532
   53          0.688766000000        -0.010140557774
   54          0.338083000000         0.041275361414
   55          0.149160000000        -0.007267307635
   56          0.064321000000        -0.019113977580
   57         18.348800000000        -0.001072437303
   58         11.487700000000         0.005976658726
   59          5.432560000000        -0.020008224720
   60          1.378590000000         0.059511567758
   61          0.688766000000         0.029976242009
   62          0.338083000000        -0.122013034228
   63          0.149160000000         0.021482701176
   64          0.064321000000         0.056502337491
   65          0.027344000000        -0.628077105544
   66          0.027344000000         1.856642576877
   67          0.011600000000         0.416716920442
   68          0.011600000000        -1.231846170107
 P 68
    1         18.348800000000         0.000754595298
    2         11.487700000000        -0.004154365227
    3          5.432560000000         0.013028963912
    4          1.378590000000        -0.022276456168
    5          0.688766000000        -0.021443928798
    6          0.338083000000        -0.007837561101
    7          0.149160000000        -0.000775341413
    8          0.064321000000        -0.000060271046
    9         18.348800000000        -0.004959119991
   10         11.487700000000         0.027302046163
   11          5.432560000000        -0.085624964274
   12          1.378590000000         0.146398499253
   13          0.688766000000         0.140927217976
   14          0.338083000000         0.051507617478
   15          0.149160000000         0.005095461253
   16          0.064321000000         0.000396094903
   17         18.348800000000        -0.004565869555
   18         11.487700000000         0.026626312097
   19          5.432560000000        -0.088157547340
   20          1.378590000000         0.177840023694
   21          0.688766000000         0.209174888772
   22          0.338083000000         0.004337972411
   23          0.149160000000        -0.378710539017
   24          0.064321000000        -0.538881598906
   25         18.348800000000         0.030006408811
   26         11.487700000000        -0.174985289509
   27          5.432560000000         0.579362019315
   28          1.378590000000        -1.168745709821
   29          0.688766000000        -1.374675108433
   30          0.338083000000        -0.028508693036
   31          0.149160000000         2.488845359709
   32          0.064321000000         3.541472519751
   33         18.348800000000         0.003916856789
   34         11.487700000000        -0.023235374871
   35          5.432560000000         0.077773712134
   36          1.378590000000        -0.159971362275
   37          0.688766000000        -0.212613726098
   38          0.338083000000         0.101038852811
   39          0.149160000000         0.404227167950
   40          0.064321000000         0.136208176460
   41         18.348800000000        -0.025741165984
   42         11.487700000000         0.152700410926
   43          5.432560000000        -0.511120559399
   44          1.378590000000         1.051314768575
   45          0.688766000000         1.397274781379
   46          0.338083000000        -0.664016588029
   47          0.149160000000        -2.656537929556
   48          0.064321000000        -0.895145640302
   49         18.348800000000        -0.000659911519
   50         11.487700000000         0.003677665751
   51          5.432560000000        -0.012311822736
   52          1.378590000000         0.036619734295
   53          0.688766000000         0.018445523431
   54          0.338083000000        -0.075079267144
   55          0.149160000000         0.013219124258
   56          0.064321000000         0.034768040297
   57         18.348800000000         0.004336868276
   58         11.487700000000        -0.024169227934
   59          5.432560000000         0.080911988785
   60          1.378590000000        -0.240660996680
   61          0.688766000000        -0.121222017002
   62          0.338083000000         0.493412953672
   63          0.149160000000        -0.086874677834
   64          0.064321000000        -0.228491860785
   65          0.027344000000         0.400010959194
   66          0.027344000000        -2.628829454300
   67          0.011600000000        -0.152862815630
   68          0.011600000000         1.004598156520
 D 46
    1         13.824800000000         0.000156064265
    2          8.635860000000        -0.003088810468
    3          5.396950000000         0.010916187721
    4          1.494320000000        -0.032880309731
    5          0.713479000000        -0.057576941642
    6          0.324910000000        -0.056810779970
    7          0.139836000000        -0.035783813125
    8         13.824800000000         0.000597170336
    9          8.635860000000        -0.011819143790
   10          5.396950000000         0.041770122719
   11          1.494320000000        -0.125814488320
   12          0.713479000000        -0.220314635444
   13          0.324910000000        -0.217382964802
   14          0.139836000000        -0.136924565955
   15         13.824800000000        -0.000168433839
   16          8.635860000000         0.002723695608
   17          5.396950000000        -0.009513648324
   18          1.494320000000         0.033034773878
   19          0.713479000000         0.056624044429
   20          0.324910000000        -0.009027165567
   21          0.139836000000        -0.074101305561
   22         13.824800000000        -0.000644501753
   23          8.635860000000         0.010422054174
   24          5.396950000000        -0.036403391748
   25          1.494320000000         0.126405535903
   26          0.713479000000         0.216668432709
   27          0.324910000000        -0.034541895320
   28          0.139836000000        -0.283544100382
   29         13.824800000000         0.000033551426
   30          8.635860000000        -0.001197093822
   31          5.396950000000         0.004850513135
   32          1.494320000000        -0.025920282203
   33          0.713479000000        -0.009516681499
   34          0.324910000000         0.041633408100
   35          0.139836000000        -0.006114521745
   36         13.824800000000         0.000128382475
   37          8.635860000000        -0.004580606081
   38          5.396950000000         0.018560190984
   39          1.494320000000        -0.099182369909
   40          0.713479000000        -0.036414998006
   41          0.324910000000         0.159307682315
   42          0.139836000000        -0.023396842396
   43          0.055553000000         0.438555508730
   44          0.055553000000         1.678105753322
   45          0.022100000000        -0.217015022808
   46          0.022100000000        -0.830394673151
 P 68
    1         18.348800000000         0.000133316419
    2         11.487700000000        -0.000733963091
    3          5.432560000000         0.002301862764
    4          1.378590000000        -0.003935642566
    5          0.688766000000        -0.003788557674
    6          0.338083000000        -0.001384683401
    7          0.149160000000        -0.000136981692
    8          0.064321000000        -0.000010648251
    9         18.348800000000         0.004925101318
   10         11.487700000000        -0.027114759025
   11          5.432560000000         0.085037592385
   12          1.378590000000        -0.145394231819
   13          0.688766000000        -0.139960482550
   14          0.338083000000        -0.051154284465
   15          0.149160000000        -0.005060507304
   16          0.064321000000        -0.000393377763
   17         18.348800000000        -0.001478058296
   18         11.487700000000         0.008619440614
   19          5.432560000000        -0.028538264751
   20          1.378590000000         0.057570177853
   21          0.688766000000         0.067713866085
   22          0.338083000000         0.001404283682
   23          0.149160000000        -0.122595761252
   24          0.064321000000        -0.174446161478
   25         18.348800000000        -0.054603828191
   26         11.487700000000         0.318427531415
   27          5.432560000000        -1.054287581108
   28          1.378590000000         2.126811986735
   29          0.688766000000         2.501549716003
   30          0.338083000000         0.051878376592
   31          0.149160000000        -4.529048619968
   32          0.064321000000        -6.444555169192
   33         18.348800000000         0.001825909097
   34         11.487700000000        -0.010831563326
   35          5.432560000000         0.036255532469
   36          1.378590000000        -0.074573358528
   37          0.688766000000        -0.099113487557
   38          0.338083000000         0.047100971629
   39          0.149160000000         0.188437337119
   40          0.064321000000         0.063495747196
   41         18.348800000000         0.067454461654
   42         11.487700000000        -0.400149861892
   43          5.432560000000         1.339386187721
   44          1.378590000000        -2.754959576725
   45          0.688766000000        -3.661544244731
   46          0.338083000000         1.740048663802
   47          0.149160000000         6.961430419060
   48          0.064321000000         2.345719976574
   49         18.348800000000        -0.000409177088
   50         11.487700000000         0.002280330799
   51          5.432560000000        -0.007633926103
   52          1.378590000000         0.022706008000
   53          0.688766000000         0.011437117463
   54          0.338083000000        -0.046552780167
   55          0.149160000000         0.008196496969
   56          0.064321000000         0.021557868082
   57         18.348800000000        -0.015116207165
   58         11.487700000000         0.084242138164
   59          5.432560000000        -0.282019721811
   60          1.378590000000         0.838826833378
   61          0.688766000000         0.422520815839
   62          0.338083000000        -1.719796856101
   63          0.149160000000         0.302802747075
   64          0.064321000000         0.796411162085
   65          0.027344000000         0.052833132577
   66          0.027344000000         1.951811577670
   67          0.011600000000        -0.016882540594
   68          0.011600000000        -0.623690789942
 D 46
    1         13.824800000000        -0.000608832409
    2          8.635860000000         0.012049958540
    3          5.396950000000        -0.042585846819
    4          1.494320000000         0.128271505529
    5          0.713479000000         0.224617135561
    6          0.324910000000         0.221628212648
    7          0.139836000000         0.139598550640
    8         13.824800000000         0.000597686970
    9          8.635860000000        -0.011829368977
   10          5.396950000000         0.041806259624
   11          1.494320000000        -0.125923335171
   12          0.713479000000        -0.220505237930
   13          0.324910000000        -0.217571030989
   14          0.139836000000        -0.137043024552
   15         13.824800000000         0.002403968789
   16          8.635860000000        -0.038873894162
   17          5.396950000000         0.135783366148
   18          1.494320000000        -0.471488186695
   19          0.713479000000        -0.808165605422
   20          0.324910000000         0.128840050183
   21          0.139836000000         1.057609485076
   22         13.824800000000        -0.002359961133
   23          8.635860000000         0.038162258903
   24          5.396950000000        -0.133297681784
   25          1.494320000000         0.462857005672
   26          0.713479000000         0.793371123112
   27          0.324910000000        -0.126481471904
   28          0.139836000000        -1.038248620530
   29         13.824800000000        -0.000467405323
   30          8.635860000000         0.016676728363
   31          5.396950000000        -0.067572556538
   32          1.494320000000         0.361095761565
   33          0.713479000000         0.132577003852
   34          0.324910000000        -0.579995506476
   35          0.139836000000         0.085181475608
   36         13.824800000000         0.000458848884
   37          8.635860000000        -0.016371439991
   38          5.396950000000         0.066335556366
   39          1.494320000000        -0.354485451969
   40          0.713479000000        -0.130150015961
   41          0.324910000000         0.569377963236
   42          0.139836000000        -0.083622122147
   43          0.055553000000        -0.913656769535
   44          0.055553000000         0.896931139512
   45          0.022100000000         0.322997098207
   46          0.022100000000        -0.317084232300
 P 68
    1         18.348800000000         0.000118547290
    2         11.487700000000        -0.000652652806
    3          5.432560000000         0.002046856595
    4          1.378590000000        -0.003499642145
    5          0.688766000000        -0.003368851688
    6          0.338083000000        -0.001231284677
    7          0.149160000000        -0.000121806515
    8          0.064321000000        -0.000009468611
    9         18.348800000000         0.003854482184
   10         11.487700000000        -0.021220549355
   11          5.432560000000         0.066552110035
   12          1.378590000000        -0.113788415725
   13          0.688766000000        -0.109535855544
   14          0.338083000000        -0.040034359782
   15          0.149160000000        -0.003960453600
   16          0.064321000000        -0.000307865256
   17         18.348800000000        -0.001840780531
   18         11.487700000000         0.010734690587
   19          5.432560000000        -0.035541684863
   20          1.378590000000         0.071698161630
   21          0.688766000000         0.084331157141
   22          0.338083000000         0.001748901291
   23          0.149160000000        -0.152681319274
   24          0.064321000000        -0.217256043803
   25         18.348800000000        -0.059851691031
   26         11.487700000000         0.349030953644
   27          5.432560000000        -1.155613015665
   28          1.378590000000         2.331215559952
   29          0.688766000000         2.741968570006
   30          0.338083000000         0.056864301824
   31          0.149160000000        -4.964326268848
   32          0.064321000000        -7.063928255573
   33         18.348800000000         0.002243136129
   34         11.487700000000        -0.013306615902
   35          5.432560000000         0.044540056719
   36          1.378590000000        -0.091613648797
   37          0.688766000000        -0.121761288741
   38          0.338083000000         0.057863719135
   39          0.149160000000         0.231495970730
   40          0.064321000000         0.078004762003
   41         18.348800000000         0.072934001759
   42         11.487700000000        -0.432655305749
   43          5.432560000000         1.448188780636
   44          1.378590000000        -2.978753690829
   45          0.688766000000        -3.958983110050
   46          0.338083000000         1.881398341853
   47          0.149160000000         7.526929516285
   48          0.064321000000         2.536270258520
   49         18.348800000000        -0.001281905166
   50         11.487700000000         0.007144016416
   51          5.432560000000        -0.023916220150
   52          1.378590000000         0.071135334388
   53          0.688766000000         0.035831185084
   54          0.338083000000        -0.145844552856
   55          0.149160000000         0.025678690535
   56          0.064321000000         0.067538342922
   57         18.348800000000        -0.041680249566
   58         11.487700000000         0.232282695275
   59          5.432560000000        -0.777619164597
   60          1.378590000000         2.312915625984
   61          0.688766000000         1.165025912822
   62          0.338083000000        -4.742033592288
   63          0.149160000000         0.834924655998
   64          0.064321000000         2.195961965206
   65          0.027344000000         0.036367751563
   66          0.027344000000         1.182471996442
   67          0.011600000000        -0.011394029487
   68          0.011600000000        -0.370468896652
 D 46
    1         13.824800000000         0.000766364271
    2          8.635860000000        -0.015167815561
    3          5.396950000000         0.053604688173
    4          1.494320000000        -0.161461015077
    5          0.713479000000        -0.282735519176
    6          0.324910000000        -0.278973229761
    7          0.139836000000        -0.175718867543
    8         13.824800000000         0.000473805725
    9          8.635860000000        -0.009377522046
   10          5.396950000000         0.033141169414
   11          1.494320000000        -0.099823486280
   12          0.713479000000        -0.174801608957
   13          0.324910000000        -0.172475568546
   14          0.139836000000        -0.108638422438
   15         13.824800000000        -0.001870203470
   16          8.635860000000         0.030242527316
   17          5.396950000000        -0.105634700312
   18          1.494320000000         0.366801285867
   19          0.713479000000         0.628724518720
   20          0.324910000000        -0.100233043822
   21          0.139836000000        -0.822783115289
   22         13.824800000000        -0.001156255771
   23          8.635860000000         0.018697482542
   24          5.396950000000        -0.065308793285
   25          1.494320000000         0.226775380482
   26          0.713479000000         0.388709765873
   27          0.324910000000        -0.061969212010
   28          0.139836000000        -0.508686750056
   29         13.824800000000         0.001447658026
   30          8.635860000000        -0.051651529111
   31          5.396950000000         0.209287205201
   32          1.494320000000        -1.118393718101
   33          0.713479000000        -0.410620406150
   34          0.324910000000         1.796374812480
   35          0.139836000000        -0.263825935827
   36         13.824800000000         0.000895016491
   37          8.635860000000        -0.031933626238
   38          5.396950000000         0.129392091626
   39          1.494320000000        -0.691448396512
   40          0.713479000000        -0.253866609596
   41          0.324910000000         1.110611105482
   42          0.139836000000        -0.163110734023
   43          0.055553000000         0.648442467910
   44          0.055553000000         0.400900414058
   45          0.022100000000        -0.220053809983
   46          0.022100000000        -0.136048559283
 end
  // -----------------------------------------------
  // The basis set
  // -----------------------------------------------
  BAS[ATNO] = new BFNGauss[NSH];
  // Basis function   1 L = s
  InitBFNGauss(BAS[ATNO][  0]);
  BAS[ATNO][  0].l  = 0;
  BAS[ATNO][  0].ng = 38;
  BAS[ATNO][  0].a[  0] =        30.412000000000;     BAS[ATNO][  0].d[  0] =         0.022983412151;
  BAS[ATNO][  0].a[  1] =        19.014200000000;     BAS[ATNO][  0].d[  1] =        -0.197605152547;
  BAS[ATNO][  0].a[  2] =        11.892100000000;     BAS[ATNO][  0].d[  2] =         0.581285257542;
  BAS[ATNO][  0].a[  3] =         7.433610000000;     BAS[ATNO][  0].d[  3] =        -0.383944063736;
  BAS[ATNO][  0].a[  4] =         4.181130000000;     BAS[ATNO][  0].d[  4] =        -0.600186306919;
  BAS[ATNO][  0].a[  5] =         1.168570000000;     BAS[ATNO][  0].d[  5] =         0.826298009405;
  BAS[ATNO][  0].a[  6] =         0.553977000000;     BAS[ATNO][  0].d[  6] =         0.510149362280;
  BAS[ATNO][  0].a[  7] =         0.170781000000;     BAS[ATNO][  0].d[  7] =         0.036545295061;
  BAS[ATNO][  0].a[  8] =         0.079287000000;     BAS[ATNO][  0].d[  8] =        -0.008764631761;
  BAS[ATNO][  0].a[  9] =        30.412000000000;     BAS[ATNO][  0].d[  9] =         0.000045945091;
  BAS[ATNO][  0].a[ 10] =        19.014200000000;     BAS[ATNO][  0].d[ 10] =        -0.000411549215;
  BAS[ATNO][  0].a[ 11] =        11.892100000000;     BAS[ATNO][  0].d[ 11] =         0.001251409412;
  BAS[ATNO][  0].a[ 12] =         7.433610000000;     BAS[ATNO][  0].d[ 12] =        -0.000863116355;
  BAS[ATNO][  0].a[ 13] =         4.181130000000;     BAS[ATNO][  0].d[ 13] =        -0.001386536033;
  BAS[ATNO][  0].a[ 14] =         1.168570000000;     BAS[ATNO][  0].d[ 14] =         0.002487299848;
  BAS[ATNO][  0].a[ 15] =         0.553977000000;     BAS[ATNO][  0].d[ 15] =         0.002373007531;
  BAS[ATNO][  0].a[ 16] =         0.170781000000;     BAS[ATNO][  0].d[ 16] =        -0.001703072151;
  BAS[ATNO][  0].a[ 17] =         0.079287000000;     BAS[ATNO][  0].d[ 17] =        -0.004280758083;
  BAS[ATNO][  0].a[ 18] =        30.412000000000;     BAS[ATNO][  0].d[ 18] =        -0.000000149123;
  BAS[ATNO][  0].a[ 19] =        19.014200000000;     BAS[ATNO][  0].d[ 19] =        -0.000007963798;
  BAS[ATNO][  0].a[ 20] =        11.892100000000;     BAS[ATNO][  0].d[ 20] =         0.000032267965;
  BAS[ATNO][  0].a[ 21] =         7.433610000000;     BAS[ATNO][  0].d[ 21] =        -0.000003591338;
  BAS[ATNO][  0].a[ 22] =         4.181130000000;     BAS[ATNO][  0].d[ 22] =        -0.000103032475;
  BAS[ATNO][  0].a[ 23] =         1.168570000000;     BAS[ATNO][  0].d[ 23] =         0.000217775400;
  BAS[ATNO][  0].a[ 24] =         0.553977000000;     BAS[ATNO][  0].d[ 24] =         0.000016860753;
  BAS[ATNO][  0].a[ 25] =         0.170781000000;     BAS[ATNO][  0].d[ 25] =        -0.000412216207;
  BAS[ATNO][  0].a[ 26] =         0.079287000000;     BAS[ATNO][  0].d[ 26] =         0.000193111261;
  BAS[ATNO][  0].a[ 27] =        30.412000000000;     BAS[ATNO][  0].d[ 27] =         0.000000640178;
  BAS[ATNO][  0].a[ 28] =        19.014200000000;     BAS[ATNO][  0].d[ 28] =         0.000000676954;
  BAS[ATNO][  0].a[ 29] =        11.892100000000;     BAS[ATNO][  0].d[ 29] =        -0.000008139512;
  BAS[ATNO][  0].a[ 30] =         7.433610000000;     BAS[ATNO][  0].d[ 30] =        -0.000005525093;
  BAS[ATNO][  0].a[ 31] =         4.181130000000;     BAS[ATNO][  0].d[ 31] =         0.000054356882;
  BAS[ATNO][  0].a[ 32] =         1.168570000000;     BAS[ATNO][  0].d[ 32] =        -0.000175274253;
  BAS[ATNO][  0].a[ 33] =         0.553977000000;     BAS[ATNO][  0].d[ 33] =         0.000178075247;
  BAS[ATNO][  0].a[ 34] =         0.170781000000;     BAS[ATNO][  0].d[ 34] =        -0.000015951171;
  BAS[ATNO][  0].a[ 35] =         0.079287000000;     BAS[ATNO][  0].d[ 35] =        -0.000104005825;
  BAS[ATNO][  0].a[ 36] =         0.033909000000;     BAS[ATNO][  0].d[ 36] =         0.001652138884;
  BAS[ATNO][  0].a[ 37] =         0.014500000000;     BAS[ATNO][  0].d[ 37] =        -0.000591714104;

  // Basis function   2 L = p
  InitBFNGauss(BAS[ATNO][  1]);
  BAS[ATNO][  1].l  = 1;
  BAS[ATNO][  1].ng = 34;
  BAS[ATNO][  1].a[  0] =        18.348800000000;     BAS[ATNO][  1].d[  0] =        -0.016878206646;
  BAS[ATNO][  1].a[  1] =        11.487700000000;     BAS[ATNO][  1].d[  1] =         0.092921642917;
  BAS[ATNO][  1].a[  2] =         5.432560000000;     BAS[ATNO][  1].d[  2] =        -0.291421833648;
  BAS[ATNO][  1].a[  3] =         1.378590000000;     BAS[ATNO][  1].d[  3] =         0.498262620688;
  BAS[ATNO][  1].a[  4] =         0.688766000000;     BAS[ATNO][  1].d[  4] =         0.479641289447;
  BAS[ATNO][  1].a[  5] =         0.338083000000;     BAS[ATNO][  1].d[  5] =         0.175304532498;
  BAS[ATNO][  1].a[  6] =         0.149160000000;     BAS[ATNO][  1].d[  6] =         0.017342239782;
  BAS[ATNO][  1].a[  7] =         0.064321000000;     BAS[ATNO][  1].d[  7] =         0.001348096363;
  BAS[ATNO][  1].a[  8] =        18.348800000000;     BAS[ATNO][  1].d[  8] =         0.000013105801;
  BAS[ATNO][  1].a[  9] =        11.487700000000;     BAS[ATNO][  1].d[  9] =        -0.000076427750;
  BAS[ATNO][  1].a[ 10] =         5.432560000000;     BAS[ATNO][  1].d[ 10] =         0.000253046045;
  BAS[ATNO][  1].a[ 11] =         1.378590000000;     BAS[ATNO][  1].d[ 11] =        -0.000510469222;
  BAS[ATNO][  1].a[ 12] =         0.688766000000;     BAS[ATNO][  1].d[ 12] =        -0.000600412328;
  BAS[ATNO][  1].a[ 13] =         0.338083000000;     BAS[ATNO][  1].d[ 13] =        -0.000012451648;
  BAS[ATNO][  1].a[ 14] =         0.149160000000;     BAS[ATNO][  1].d[ 14] =         0.001087044807;
  BAS[ATNO][  1].a[ 15] =         0.064321000000;     BAS[ATNO][  1].d[ 15] =         0.001546797311;
  BAS[ATNO][  1].a[ 16] =        18.348800000000;     BAS[ATNO][  1].d[ 16] =        -0.000033756778;
  BAS[ATNO][  1].a[ 17] =        11.487700000000;     BAS[ATNO][  1].d[ 17] =         0.000200250208;
  BAS[ATNO][  1].a[ 18] =         5.432560000000;     BAS[ATNO][  1].d[ 18] =        -0.000670279782;
  BAS[ATNO][  1].a[ 19] =         1.378590000000;     BAS[ATNO][  1].d[ 19] =         0.001378686537;
  BAS[ATNO][  1].a[ 20] =         0.688766000000;     BAS[ATNO][  1].d[ 20] =         0.001832375980;
  BAS[ATNO][  1].a[ 21] =         0.338083000000;     BAS[ATNO][  1].d[ 21] =        -0.000870786522;
  BAS[ATNO][  1].a[ 22] =         0.149160000000;     BAS[ATNO][  1].d[ 22] =        -0.003483764509;
  BAS[ATNO][  1].a[ 23] =         0.064321000000;     BAS[ATNO][  1].d[ 23] =        -0.001173887479;
  BAS[ATNO][  1].a[ 24] =        18.348800000000;     BAS[ATNO][  1].d[ 24] =         0.000000912262;
  BAS[ATNO][  1].a[ 25] =        11.487700000000;     BAS[ATNO][  1].d[ 25] =        -0.000005084005;
  BAS[ATNO][  1].a[ 26] =         5.432560000000;     BAS[ATNO][  1].d[ 26] =         0.000017019862;
  BAS[ATNO][  1].a[ 27] =         1.378590000000;     BAS[ATNO][  1].d[ 27] =        -0.000050623116;
  BAS[ATNO][  1].a[ 28] =         0.688766000000;     BAS[ATNO][  1].d[ 28] =        -0.000025499089;
  BAS[ATNO][  1].a[ 29] =         0.338083000000;     BAS[ATNO][  1].d[ 29] =         0.000103789568;
  BAS[ATNO][  1].a[ 30] =         0.149160000000;     BAS[ATNO][  1].d[ 30] =        -0.000018274116;
  BAS[ATNO][  1].a[ 31] =         0.064321000000;     BAS[ATNO][  1].d[ 31] =        -0.000048063334;
  BAS[ATNO][  1].a[ 32] =         0.027344000000;     BAS[ATNO][  1].d[ 32] =        -0.000539444977;
  BAS[ATNO][  1].a[ 33] =         0.011600000000;     BAS[ATNO][  1].d[ 33] =         0.000187347405;

  // Basis function   3 L = d
  InitBFNGauss(BAS[ATNO][  2]);
  BAS[ATNO][  2].l  = 2;
  BAS[ATNO][  2].ng = 23;
  BAS[ATNO][  2].a[  0] =        13.824800000000;     BAS[ATNO][  2].d[  0] =        -0.001010103144;
  BAS[ATNO][  2].a[  1] =         8.635860000000;     BAS[ATNO][  2].d[  1] =         0.019991874321;
  BAS[ATNO][  2].a[  2] =         5.396950000000;     BAS[ATNO][  2].d[  2] =        -0.070653429602;
  BAS[ATNO][  2].a[  3] =         1.494320000000;     BAS[ATNO][  2].d[  3] =         0.212812999219;
  BAS[ATNO][  2].a[  4] =         0.713479000000;     BAS[ATNO][  2].d[  4] =         0.372658339803;
  BAS[ATNO][  2].a[  5] =         0.324910000000;     BAS[ATNO][  2].d[  5] =         0.367699470357;
  BAS[ATNO][  2].a[  6] =         0.139836000000;     BAS[ATNO][  2].d[  6] =         0.231605500580;
  BAS[ATNO][  2].a[  7] =        13.824800000000;     BAS[ATNO][  2].d[  7] =         0.000043484027;
  BAS[ATNO][  2].a[  8] =         8.635860000000;     BAS[ATNO][  2].d[  8] =        -0.000703167810;
  BAS[ATNO][  2].a[  9] =         5.396950000000;     BAS[ATNO][  2].d[  9] =         0.002456108252;
  BAS[ATNO][  2].a[ 10] =         1.494320000000;     BAS[ATNO][  2].d[ 10] =        -0.008528482235;
  BAS[ATNO][  2].a[ 11] =         0.713479000000;     BAS[ATNO][  2].d[ 11] =        -0.014618448995;
  BAS[ATNO][  2].a[ 12] =         0.324910000000;     BAS[ATNO][  2].d[ 12] =         0.002330514550;
  BAS[ATNO][  2].a[ 13] =         0.139836000000;     BAS[ATNO][  2].d[ 13] =         0.019130497772;
  BAS[ATNO][  2].a[ 14] =        13.824800000000;     BAS[ATNO][  2].d[ 14] =        -0.000007821383;
  BAS[ATNO][  2].a[ 15] =         8.635860000000;     BAS[ATNO][  2].d[ 15] =         0.000279062029;
  BAS[ATNO][  2].a[ 16] =         5.396950000000;     BAS[ATNO][  2].d[ 16] =        -0.001130733457;
  BAS[ATNO][  2].a[ 17] =         1.494320000000;     BAS[ATNO][  2].d[ 17] =         0.006042439118;
  BAS[ATNO][  2].a[ 18] =         0.713479000000;     BAS[ATNO][  2].d[ 18] =         0.002218493152;
  BAS[ATNO][  2].a[ 19] =         0.324910000000;     BAS[ATNO][  2].d[ 19] =        -0.009705424183;
  BAS[ATNO][  2].a[ 20] =         0.139836000000;     BAS[ATNO][  2].d[ 20] =         0.001425394411;
  BAS[ATNO][  2].a[ 21] =         0.055553000000;     BAS[ATNO][  2].d[ 21] =         0.086326918489;
  BAS[ATNO][  2].a[ 22] =         0.022100000000;     BAS[ATNO][  2].d[ 22] =         0.001783526910;

  // Basis function   4 L = d
  InitBFNGauss(BAS[ATNO][  3]);
  BAS[ATNO][  3].l  = 2;
  BAS[ATNO][  3].ng = 61;
  BAS[ATNO][  3].a[  0] =        30.412000000000;     BAS[ATNO][  3].d[  0] =        -0.000000037339;
  BAS[ATNO][  3].a[  1] =        19.014200000000;     BAS[ATNO][  3].d[  1] =         0.000000513469;
  BAS[ATNO][  3].a[  2] =        11.892100000000;     BAS[ATNO][  3].d[  2] =        -0.000002415043;
  BAS[ATNO][  3].a[  3] =         7.433610000000;     BAS[ATNO][  3].d[  3] =         0.000002551892;
[...]
  BAS[ATNO][ 10].a[ 43] =         0.055553000000;     BAS[ATNO][ 10].d[ 43] =         0.896931139512;
  BAS[ATNO][ 10].a[ 44] =         0.022100000000;     BAS[ATNO][ 10].d[ 44] =         0.322997098207;
  BAS[ATNO][ 10].a[ 45] =         0.022100000000;     BAS[ATNO][ 10].d[ 45] =        -0.317084232300;

  // Basis function  12 L = p
  InitBFNGauss(BAS[ATNO][ 11]);
  BAS[ATNO][ 11].l  = 1;
  BAS[ATNO][ 11].ng = 68;
  BAS[ATNO][ 11].a[  0] =        18.348800000000;     BAS[ATNO][ 11].d[  0] =         0.000118547290;
  BAS[ATNO][ 11].a[  1] =        11.487700000000;     BAS[ATNO][ 11].d[  1] =        -0.000652652806;
  BAS[ATNO][ 11].a[  2] =         5.432560000000;     BAS[ATNO][ 11].d[  2] =         0.002046856595;
  BAS[ATNO][ 11].a[  3] =         1.378590000000;     BAS[ATNO][ 11].d[  3] =        -0.003499642145;
  BAS[ATNO][ 11].a[  4] =         0.688766000000;     BAS[ATNO][ 11].d[  4] =        -0.003368851688;
  BAS[ATNO][ 11].a[  5] =         0.338083000000;     BAS[ATNO][ 11].d[  5] =        -0.001231284677;
  BAS[ATNO][ 11].a[  6] =         0.149160000000;     BAS[ATNO][ 11].d[  6] =        -0.000121806515;
  BAS[ATNO][ 11].a[  7] =         0.064321000000;     BAS[ATNO][ 11].d[  7] =        -0.000009468611;
  BAS[ATNO][ 11].a[  8] =        18.348800000000;     BAS[ATNO][ 11].d[  8] =         0.003854482184;
  BAS[ATNO][ 11].a[  9] =        11.487700000000;     BAS[ATNO][ 11].d[  9] =        -0.021220549355;
  BAS[ATNO][ 11].a[ 10] =         5.432560000000;     BAS[ATNO][ 11].d[ 10] =         0.066552110035;
  BAS[ATNO][ 11].a[ 11] =         1.378590000000;     BAS[ATNO][ 11].d[ 11] =        -0.113788415725;
  BAS[ATNO][ 11].a[ 12] =         0.688766000000;     BAS[ATNO][ 11].d[ 12] =        -0.109535855544;
  BAS[ATNO][ 11].a[ 13] =         0.338083000000;     BAS[ATNO][ 11].d[ 13] =        -0.040034359782;
  BAS[ATNO][ 11].a[ 14] =         0.149160000000;     BAS[ATNO][ 11].d[ 14] =        -0.003960453600;
  BAS[ATNO][ 11].a[ 15] =         0.064321000000;     BAS[ATNO][ 11].d[ 15] =        -0.000307865256;
  BAS[ATNO][ 11].a[ 16] =        18.348800000000;     BAS[ATNO][ 11].d[ 16] =        -0.001840780531;
  BAS[ATNO][ 11].a[ 17] =        11.487700000000;     BAS[ATNO][ 11].d[ 17] =         0.010734690587;
  BAS[ATNO][ 11].a[ 18] =         5.432560000000;     BAS[ATNO][ 11].d[ 18] =        -0.035541684863;
  BAS[ATNO][ 11].a[ 19] =         1.378590000000;     BAS[ATNO][ 11].d[ 19] =         0.071698161630;
  BAS[ATNO][ 11].a[ 20] =         0.688766000000;     BAS[ATNO][ 11].d[ 20] =         0.084331157141;
  BAS[ATNO][ 11].a[ 21] =         0.338083000000;     BAS[ATNO][ 11].d[ 21] =         0.001748901291;
  BAS[ATNO][ 11].a[ 22] =         0.149160000000;     BAS[ATNO][ 11].d[ 22] =        -0.152681319274;
  BAS[ATNO][ 11].a[ 23] =         0.064321000000;     BAS[ATNO][ 11].d[ 23] =        -0.217256043803;
  BAS[ATNO][ 11].a[ 24] =        18.348800000000;     BAS[ATNO][ 11].d[ 24] =        -0.059851691031;
  BAS[ATNO][ 11].a[ 25] =        11.487700000000;     BAS[ATNO][ 11].d[ 25] =         0.349030953644;
  BAS[ATNO][ 11].a[ 26] =         5.432560000000;     BAS[ATNO][ 11].d[ 26] =        -1.155613015665;
  BAS[ATNO][ 11].a[ 27] =         1.378590000000;     BAS[ATNO][ 11].d[ 27] =         2.331215559952;
  BAS[ATNO][ 11].a[ 28] =         0.688766000000;     BAS[ATNO][ 11].d[ 28] =         2.741968570006;
  BAS[ATNO][ 11].a[ 29] =         0.338083000000;     BAS[ATNO][ 11].d[ 29] =         0.056864301824;
  BAS[ATNO][ 11].a[ 30] =         0.149160000000;     BAS[ATNO][ 11].d[ 30] =        -4.964326268848;
  BAS[ATNO][ 11].a[ 31] =         0.064321000000;     BAS[ATNO][ 11].d[ 31] =        -7.063928255573;
  BAS[ATNO][ 11].a[ 32] =        18.348800000000;     BAS[ATNO][ 11].d[ 32] =         0.002243136129;
  BAS[ATNO][ 11].a[ 33] =        11.487700000000;     BAS[ATNO][ 11].d[ 33] =        -0.013306615902;
  BAS[ATNO][ 11].a[ 34] =         5.432560000000;     BAS[ATNO][ 11].d[ 34] =         0.044540056719;
  BAS[ATNO][ 11].a[ 35] =         1.378590000000;     BAS[ATNO][ 11].d[ 35] =        -0.091613648797;
  BAS[ATNO][ 11].a[ 36] =         0.688766000000;     BAS[ATNO][ 11].d[ 36] =        -0.121761288741;
  BAS[ATNO][ 11].a[ 37] =         0.338083000000;     BAS[ATNO][ 11].d[ 37] =         0.057863719135;
  BAS[ATNO][ 11].a[ 38] =         0.149160000000;     BAS[ATNO][ 11].d[ 38] =         0.231495970730;
  BAS[ATNO][ 11].a[ 39] =         0.064321000000;     BAS[ATNO][ 11].d[ 39] =         0.078004762003;
  BAS[ATNO][ 11].a[ 40] =        18.348800000000;     BAS[ATNO][ 11].d[ 40] =         0.072934001759;
  BAS[ATNO][ 11].a[ 41] =        11.487700000000;     BAS[ATNO][ 11].d[ 41] =        -0.432655305749;
  BAS[ATNO][ 11].a[ 42] =         5.432560000000;     BAS[ATNO][ 11].d[ 42] =         1.448188780636;
  BAS[ATNO][ 11].a[ 43] =         1.378590000000;     BAS[ATNO][ 11].d[ 43] =        -2.978753690829;
  BAS[ATNO][ 11].a[ 44] =         0.688766000000;     BAS[ATNO][ 11].d[ 44] =        -3.958983110050;
  BAS[ATNO][ 11].a[ 45] =         0.338083000000;     BAS[ATNO][ 11].d[ 45] =         1.881398341853;
  BAS[ATNO][ 11].a[ 46] =         0.149160000000;     BAS[ATNO][ 11].d[ 46] =         7.526929516285;
  BAS[ATNO][ 11].a[ 47] =         0.064321000000;     BAS[ATNO][ 11].d[ 47] =         2.536270258520;
  BAS[ATNO][ 11].a[ 48] =        18.348800000000;     BAS[ATNO][ 11].d[ 48] =        -0.001281905166;
  BAS[ATNO][ 11].a[ 49] =        11.487700000000;     BAS[ATNO][ 11].d[ 49] =         0.007144016416;
  BAS[ATNO][ 11].a[ 50] =         5.432560000000;     BAS[ATNO][ 11].d[ 50] =        -0.023916220150;
  BAS[ATNO][ 11].a[ 51] =         1.378590000000;     BAS[ATNO][ 11].d[ 51] =         0.071135334388;
  BAS[ATNO][ 11].a[ 52] =         0.688766000000;     BAS[ATNO][ 11].d[ 52] =         0.035831185084;
  BAS[ATNO][ 11].a[ 53] =         0.338083000000;     BAS[ATNO][ 11].d[ 53] =        -0.145844552856;
  BAS[ATNO][ 11].a[ 54] =         0.149160000000;     BAS[ATNO][ 11].d[ 54] =         0.025678690535;
  BAS[ATNO][ 11].a[ 55] =         0.064321000000;     BAS[ATNO][ 11].d[ 55] =         0.067538342922;
  BAS[ATNO][ 11].a[ 56] =        18.348800000000;     BAS[ATNO][ 11].d[ 56] =        -0.041680249566;
  BAS[ATNO][ 11].a[ 57] =        11.487700000000;     BAS[ATNO][ 11].d[ 57] =         0.232282695275;
  BAS[ATNO][ 11].a[ 58] =         5.432560000000;     BAS[ATNO][ 11].d[ 58] =        -0.777619164597;
  BAS[ATNO][ 11].a[ 59] =         1.378590000000;     BAS[ATNO][ 11].d[ 59] =         2.312915625984;
  BAS[ATNO][ 11].a[ 60] =         0.688766000000;     BAS[ATNO][ 11].d[ 60] =         1.165025912822;
  BAS[ATNO][ 11].a[ 61] =         0.338083000000;     BAS[ATNO][ 11].d[ 61] =        -4.742033592288;
  BAS[ATNO][ 11].a[ 62] =         0.149160000000;     BAS[ATNO][ 11].d[ 62] =         0.834924655998;
  BAS[ATNO][ 11].a[ 63] =         0.064321000000;     BAS[ATNO][ 11].d[ 63] =         2.195961965206;
  BAS[ATNO][ 11].a[ 64] =         0.027344000000;     BAS[ATNO][ 11].d[ 64] =         0.036367751563;
  BAS[ATNO][ 11].a[ 65] =         0.027344000000;     BAS[ATNO][ 11].d[ 65] =         1.182471996442;
  BAS[ATNO][ 11].a[ 66] =         0.011600000000;     BAS[ATNO][ 11].d[ 66] =        -0.011394029487;
  BAS[ATNO][ 11].a[ 67] =         0.011600000000;     BAS[ATNO][ 11].d[ 67] =        -0.370468896652;

  // Basis function  13 L = d
  InitBFNGauss(BAS[ATNO][ 12]);
  BAS[ATNO][ 12].l  = 2;
  BAS[ATNO][ 12].ng = 46;
  BAS[ATNO][ 12].a[  0] =        13.824800000000;     BAS[ATNO][ 12].d[  0] =         0.000766364271;
  BAS[ATNO][ 12].a[  1] =         8.635860000000;     BAS[ATNO][ 12].d[  1] =        -0.015167815561;
  BAS[ATNO][ 12].a[  2] =         5.396950000000;     BAS[ATNO][ 12].d[  2] =         0.053604688173;
  BAS[ATNO][ 12].a[  3] =         1.494320000000;     BAS[ATNO][ 12].d[  3] =        -0.161461015077;
  BAS[ATNO][ 12].a[  4] =         0.713479000000;     BAS[ATNO][ 12].d[  4] =        -0.282735519176;
  BAS[ATNO][ 12].a[  5] =         0.324910000000;     BAS[ATNO][ 12].d[  5] =        -0.278973229761;
  BAS[ATNO][ 12].a[  6] =         0.139836000000;     BAS[ATNO][ 12].d[  6] =        -0.175718867543;
  BAS[ATNO][ 12].a[  7] =        13.824800000000;     BAS[ATNO][ 12].d[  7] =         0.000473805725;
  BAS[ATNO][ 12].a[  8] =         8.635860000000;     BAS[ATNO][ 12].d[  8] =        -0.009377522046;
  BAS[ATNO][ 12].a[  9] =         5.396950000000;     BAS[ATNO][ 12].d[  9] =         0.033141169414;
  BAS[ATNO][ 12].a[ 10] =         1.494320000000;     BAS[ATNO][ 12].d[ 10] =        -0.099823486280;
  BAS[ATNO][ 12].a[ 11] =         0.713479000000;     BAS[ATNO][ 12].d[ 11] =        -0.174801608957;
  BAS[ATNO][ 12].a[ 12] =         0.324910000000;     BAS[ATNO][ 12].d[ 12] =        -0.172475568546;
  BAS[ATNO][ 12].a[ 13] =         0.139836000000;     BAS[ATNO][ 12].d[ 13] =        -0.108638422438;
  BAS[ATNO][ 12].a[ 14] =        13.824800000000;     BAS[ATNO][ 12].d[ 14] =        -0.001870203470;
  BAS[ATNO][ 12].a[ 15] =         8.635860000000;     BAS[ATNO][ 12].d[ 15] =         0.030242527316;
  BAS[ATNO][ 12].a[ 16] =         5.396950000000;     BAS[ATNO][ 12].d[ 16] =        -0.105634700312;
  BAS[ATNO][ 12].a[ 17] =         1.494320000000;     BAS[ATNO][ 12].d[ 17] =         0.366801285867;
  BAS[ATNO][ 12].a[ 18] =         0.713479000000;     BAS[ATNO][ 12].d[ 18] =         0.628724518720;
  BAS[ATNO][ 12].a[ 19] =         0.324910000000;     BAS[ATNO][ 12].d[ 19] =        -0.100233043822;
  BAS[ATNO][ 12].a[ 20] =         0.139836000000;     BAS[ATNO][ 12].d[ 20] =        -0.822783115289;
  BAS[ATNO][ 12].a[ 21] =        13.824800000000;     BAS[ATNO][ 12].d[ 21] =        -0.001156255771;
  BAS[ATNO][ 12].a[ 22] =         8.635860000000;     BAS[ATNO][ 12].d[ 22] =         0.018697482542;
  BAS[ATNO][ 12].a[ 23] =         5.396950000000;     BAS[ATNO][ 12].d[ 23] =        -0.065308793285;
  BAS[ATNO][ 12].a[ 24] =         1.494320000000;     BAS[ATNO][ 12].d[ 24] =         0.226775380482;
  BAS[ATNO][ 12].a[ 25] =         0.713479000000;     BAS[ATNO][ 12].d[ 25] =         0.388709765873;
  BAS[ATNO][ 12].a[ 26] =         0.324910000000;     BAS[ATNO][ 12].d[ 26] =        -0.061969212010;
  BAS[ATNO][ 12].a[ 27] =         0.139836000000;     BAS[ATNO][ 12].d[ 27] =        -0.508686750056;
  BAS[ATNO][ 12].a[ 28] =        13.824800000000;     BAS[ATNO][ 12].d[ 28] =         0.001447658026;
  BAS[ATNO][ 12].a[ 29] =         8.635860000000;     BAS[ATNO][ 12].d[ 29] =        -0.051651529111;
  BAS[ATNO][ 12].a[ 30] =         5.396950000000;     BAS[ATNO][ 12].d[ 30] =         0.209287205201;
  BAS[ATNO][ 12].a[ 31] =         1.494320000000;     BAS[ATNO][ 12].d[ 31] =        -1.118393718101;
  BAS[ATNO][ 12].a[ 32] =         0.713479000000;     BAS[ATNO][ 12].d[ 32] =        -0.410620406150;
  BAS[ATNO][ 12].a[ 33] =         0.324910000000;     BAS[ATNO][ 12].d[ 33] =         1.796374812480;
  BAS[ATNO][ 12].a[ 34] =         0.139836000000;     BAS[ATNO][ 12].d[ 34] =        -0.263825935827;
  BAS[ATNO][ 12].a[ 35] =        13.824800000000;     BAS[ATNO][ 12].d[ 35] =         0.000895016491;
  BAS[ATNO][ 12].a[ 36] =         8.635860000000;     BAS[ATNO][ 12].d[ 36] =        -0.031933626238;
  BAS[ATNO][ 12].a[ 37] =         5.396950000000;     BAS[ATNO][ 12].d[ 37] =         0.129392091626;
  BAS[ATNO][ 12].a[ 38] =         1.494320000000;     BAS[ATNO][ 12].d[ 38] =        -0.691448396512;
  BAS[ATNO][ 12].a[ 39] =         0.713479000000;     BAS[ATNO][ 12].d[ 39] =        -0.253866609596;
  BAS[ATNO][ 12].a[ 40] =         0.324910000000;     BAS[ATNO][ 12].d[ 40] =         1.110611105482;
  BAS[ATNO][ 12].a[ 41] =         0.139836000000;     BAS[ATNO][ 12].d[ 41] =        -0.163110734023;
  BAS[ATNO][ 12].a[ 42] =         0.055553000000;     BAS[ATNO][ 12].d[ 42] =         0.648442467910;
  BAS[ATNO][ 12].a[ 43] =         0.055553000000;     BAS[ATNO][ 12].d[ 43] =         0.400900414058;
  BAS[ATNO][ 12].a[ 44] =         0.022100000000;     BAS[ATNO][ 12].d[ 44] =        -0.220053809983;
  BAS[ATNO][ 12].a[ 45] =         0.022100000000;     BAS[ATNO][ 12].d[ 45] =        -0.136048559283;

-------------------------------------------
RADIAL EXPECTATION VALUES <R**-3> TO <R**3>
-------------------------------------------
   0 :     0.000000     1.122190     1.014607     1.076151     1.266239     1.630357
   1 :     0.936178     0.868490     0.887166     1.246975     1.724391     2.649571
   2 :     0.933369     0.866430     0.885900     1.249662     1.733682     2.676559
   3 :     0.933369     0.866430     0.885900     1.249662     1.733682     2.676559
   4 :     0.341284     0.414862     0.590569     2.047217     5.125548    78.604693
   5 :     0.000000     0.176194     0.360332     3.196462    11.929014    50.314279
   6 :     0.000000     0.020211     0.120169     9.334030    93.535821   991.771297
   7 :     0.000000     0.128393     0.286991     4.985381    33.888428   297.140569
   8 :     0.000000     0.578043     0.622852     2.952254    17.357016   160.209948
   9 :     0.355761     0.430790     0.604614     1.974869     4.705040    62.031284
  10 :     0.360646     0.434722     0.608622     1.947879     4.526471    62.736568
  11 :     0.360646     0.434722     0.608622     1.947879     4.526471    62.736568
  12 :     0.357252     0.431312     0.605605     1.963264     4.614768    64.947202
  13 :     0.004104     0.015378     0.108412    10.654072   125.040240  1579.116616
  14 :     0.003632     0.014321     0.105476    10.837881   128.603926  1636.140719
  15 :     0.003632     0.014321     0.105476    10.837881   128.603926  1636.140719
  16 :     0.017837     0.042030     0.170109     8.073704    85.228331  1081.688975
  17 :     0.003050     0.014619     0.112598     9.470356    94.189298  4889.548677
  18 :     0.003049     0.014594     0.112505     9.476214    94.289365  4903.082291
  19 :     0.003049     0.014594     0.112505     9.476214    94.289365  4903.082291
  20 :     0.003087     0.014579     0.112279     9.494764    94.618802  4925.937658
  21 :     0.004420     0.016093     0.113955     9.472411    94.355788  4911.570455
  22 :     0.017397     0.041458     0.169802     7.994725    83.267786  1046.800215
  23 :     0.017397     0.041458     0.169802     7.994725    83.267786  1046.800215
  24 :     0.053848     0.080065     0.223026     6.483868    57.194092   637.184013
  25 :     0.054672     0.081024     0.224767     6.414104    56.043095   620.574078
  26 :     0.054672     0.081024     0.224767     6.414104    56.043095   620.574078
  27 :     0.031207     0.057658     0.196878     6.278234    46.626345  2030.567657
  28 :     0.031726     0.057984     0.197158     6.274173    46.552001  2026.889573
  29 :     0.031726     0.057984     0.197158     6.274173    46.552001  2026.889573
  30 :     0.041985     0.068578     0.207252     6.199848    45.946686  2002.091340
  31 :     0.032468     0.058731     0.197861     6.262315    46.347218  2011.875405
  32 :     0.106252     0.155205     0.329012     4.378280    28.222197   259.483697
  33 :     0.107462     0.156585     0.330727     4.348493    27.842263   254.826444
  34 :     0.107462     0.156585     0.330727     4.348493    27.842263   254.826444
  35 :     0.136093     0.192010     0.368237     3.766996    19.346144   668.832573
  36 :     0.136740     0.192619     0.368878     3.760702    19.283194   665.864929
  37 :     0.136740     0.192619     0.368878     3.760702    19.283194   665.864929
  38 :     0.146634     0.202162     0.376657     3.735137    19.202411   665.903116
  39 :     0.138282     0.194370     0.370685     3.742831    19.103581   657.184092
  40 :     0.667107     0.575721     0.634205     2.549928    11.633753    92.352982
  41 :     0.668794     0.577071     0.635258     2.541962    11.552253    91.457838
  42 :     0.668794     0.577071     0.635258     2.541962    11.552253    91.457838
  43 :     0.708362     0.644354     0.698675     2.160226     7.778292   228.988112
  44 :     0.708860     0.644663     0.698924     2.158795     7.766935   228.538762
  45 :     0.708860     0.644663     0.698924     2.158795     7.766935   228.538762
  46 :     0.706698     0.642888     0.697654     2.163151     7.787532   228.942520
  47 :     0.709933     0.645590     0.699655     2.154590     7.733597   227.167767
  48 :     0.000000     3.332564     1.057071     4.332610    37.245345   400.184927
Making the total density                ... o.k.
o.k.
Initializing the integrals              ... done
Making exponents                        ... done
Making rho(0)                           ... done (         0.000005745)
Integral calculation                    ... Two index integrals                     ... done
Solving the equation system             ... done
atomic density will be written to file 75_Re_atom75.adf

-------
TIMINGS
-------

Total SCF time: 0 days 0 hours 0 min 1 sec 

Total time                  ....       1.510 sec
Sum of individual times     ....       0.879 sec  ( 58.2%)

Fock matrix formation       ....       0.761 sec  ( 50.4%)
Diagonalization             ....       0.054 sec  (  3.6%)
Density matrix formation    ....       0.001 sec  (  0.1%)
Population analysis         ....       0.000 sec  (  0.0%)
Initial guess               ....       0.001 sec  (  0.0%)
Orbital Transformation      ....       0.000 sec  (  0.0%)
Orbital Orthonormalization  ....       0.000 sec  (  0.0%)
DIIS solution               ....       0.062 sec  (  4.1%)

-------------------------   --------------------
FINAL SINGLE POINT ENERGY       -77.762324002116
-------------------------   --------------------


                            ***************************************
                            *     ORCA property calculations      *
                            ***************************************

                                    ---------------------
                                    Active property flags
                                    ---------------------
   (+) Dipole Moment


------------------------------------------------------------------------------
                       ORCA ELECTRIC PROPERTIES CALCULATION
------------------------------------------------------------------------------

Dipole Moment Calculation                       ... on
Quadrupole Moment Calculation                   ... off
Polarizability Calculation                      ... off
GBWName                                         ... 75_Re_atom75.gbw
Electron density file                           ... 75_Re_atom75.scfp
The origin for moment calculation is the CENTER OF MASS  = ( 0.000000,  0.000000  0.000000)

-------------
DIPOLE MOMENT
-------------
                                X             Y             Z
Electronic contribution:     -0.00000       0.00000      -0.00000
Nuclear contribution   :      0.00000       0.00000       0.00000
                        -----------------------------------------
Total Dipole Moment    :     -0.00000       0.00000      -0.00000
                        -----------------------------------------
Magnitude (a.u.)       :      0.00000
Magnitude (Debye)      :      0.00000



--------------------
Rotational spectrum 
--------------------
 
Rotational constants in cm-1:     0.000000     0.000000     0.000000 
Rotational constants in MHz :     0.000000     0.000000     0.000000 

 Dipole components along the rotational axes: 
x,y,z [a.u.] :    -0.000000     0.000000    -0.000000 
x,y,z [Debye]:    -0.000000     0.000000    -0.000000 

 

Timings for individual modules:

Sum of individual times         ...        5.606 sec (=   0.093 min)
GTO integral calculation        ...        4.073 sec (=   0.068 min)  72.7 %
SCF iterations                  ...        1.533 sec (=   0.026 min)  27.3 %
                             ****ORCA TERMINATED NORMALLY****
TOTAL RUN TIME: 0 days 0 hours 0 minutes 5 seconds 834 msec
