
                                 *****************
                                 * O   R   C   A *
                                 *****************

           --- An Ab Initio, DFT and Semiempirical electronic structure package ---

                  #######################################################
                  #                        -***-                        #
                  #          Department of theory and spectroscopy      #
                  #               Directorship: Frank Neese             #
                  #        Max Planck Institute fuer Kohlenforschung    #
                  #                Kaiser Wilhelm Platz 1               #
                  #                 D-45470 Muelheim/Ruhr               #
                  #                      Germany                        #
                  #                                                     #
                  #                  All rights reserved                #
                  #                        -***-                        #
                  #######################################################


                         Program Version 4.2.0 -  RELEASE  -


 With contributions from (in alphabetic order):
   Daniel Aravena         : Magnetic Suceptibility
   Michael Atanasov       : Ab Initio Ligand Field Theory (pilot matlab implementation)
   Alexander A. Auer      : GIAO ZORA, VPT2
   Ute Becker             : Parallelization
   Giovanni Bistoni       : ED, misc. LED, open-shell LED, HFLED
   Martin Brehm           : Molecular dynamics
   Dmytro Bykov           : SCF Hessian
   Vijay G. Chilkuri      : MRCI spin determinant printing, contributions to CSF-ICE
   Dipayan Datta          : RHF DLPNO-CCSD density
   Achintya Kumar Dutta   : EOM-CC, STEOM-CC
   Dmitry Ganyushin       : Spin-Orbit,Spin-Spin,Magnetic field MRCI
   Miquel Garcia          : C-PCM Hessian, Gaussian charge scheme
   Yang Guo               : DLPNO-NEVPT2, CIM, IAO-localization
   Andreas Hansen         : Spin unrestricted coupled pair/coupled cluster methods
   Benjamin Helmich-Paris : CASSCF linear response (MC-RPA)
   Lee Huntington         : MR-EOM, pCC
   Robert Izsak           : Overlap fitted RIJCOSX, COSX-SCS-MP3, EOM
   Christian Kollmar      : KDIIS, OOCD, Brueckner-CCSD(T), CCSD density
   Simone Kossmann        : Meta GGA functionals, TD-DFT gradient, OOMP2, MP2 Hessian
   Martin Krupicka        : AUTO-CI
   Lucas Lang             : DCDCAS
   Dagmar Lenk            : GEPOL surface, SMD
   Dimitrios Liakos       : Extrapolation schemes; Compound Job, initial MDCI parallelization
   Dimitrios Manganas     : Further ROCIS development; embedding schemes
   Dimitrios Pantazis     : SARC Basis sets
   Taras Petrenko         : DFT Hessian,TD-DFT gradient, ASA, ECA, R-Raman, ABS, FL, XAS/XES, NRVS
   Peter Pinski           : DLPNO-MP2, DLPNO-MP2 Gradient
   Christoph Reimann      : Effective Core Potentials
   Marius Retegan         : Local ZFS, SOC
   Christoph Riplinger    : Optimizer, TS searches, QM/MM, DLPNO-CCSD(T), (RO)-DLPNO pert. Triples
   Tobias Risthaus        : Range-separated hybrids, TD-DFT gradient, RPA, STAB
   Michael Roemelt        : Original ROCIS implementation
   Masaaki Saitow         : Open-shell DLPNO-CCSD energy and density
   Barbara Sandhoefer     : DKH picture change effects
   Avijit Sen             : IP-ROCIS
   Kantharuban Sivalingam : CASSCF convergence, NEVPT2, FIC-MRCI
   Bernardo de Souza      : ESD, SOC TD-DFT
   Georgi Stoychev        : AutoAux, RI-MP2 NMR
   Willem Van den Heuvel  : Paramagnetic NMR
   Boris Wezisla          : Elementary symmetry handling
   Frank Wennmohs         : Technical directorship


 We gratefully acknowledge several colleagues who have allowed us to
 interface, adapt or use parts of their codes:
   Stefan Grimme, W. Hujo, H. Kruse,             : VdW corrections, initial TS optimization,
                  C. Bannwarth                     DFT functionals, gCP, sTDA/sTD-DF
   Ed Valeev, F. Pavosevic, A. Kumar             : LibInt (2-el integral package), F12 methods
   Garnet Chan, S. Sharma, J. Yang, R. Olivares  : DMRG
   Ulf Ekstrom                                   : XCFun DFT Library
   Mihaly Kallay                                 : mrcc  (arbitrary order and MRCC methods)
   Andreas Klamt, Michael Diedenhofen            : otool_cosmo (COSMO solvation model)
   Jiri Pittner, Ondrej Demel                    : Mk-CCSD
   Frank Weinhold                                : gennbo (NPA and NBO analysis)
   Christopher J. Cramer and Donald G. Truhlar   : smd solvation model
   Lars Goerigk                                  : TD-DFT with DH, B97 family of functionals
   V. Asgeirsson, H. Jonsson                     : NEB implementation
   FAccTs GmbH                                   : IRC, NEB, NEB-TS, Multilevel, MM, QM/MM, CI optimization
   S Lehtola, MJT Oliveira, MAL Marques          : LibXC Library


 Your calculation uses the libint2 library for the computation of 2-el integrals
 For citations please refer to: http://libint.valeyev.net

 Your ORCA version has been built with support for libXC version: 4.2.3
 For citations please refer to: https://tddft.org/programs/libxc/

 This ORCA versions uses:
   CBLAS   interface :  Fast vector & matrix operations
   LAPACKE interface :  Fast linear algebra routines
   SCALAPACK package :  Parallel linear algebra routines


Setting NCore(Os) from 46 to 60
----- Orbital basis set information -----
Your calculation utilizes the basis: aug-cc-pVTZ-PP 
       Ca, Sr, Ba, Ra : Obtained from the Peterson Research Group Website (tyr0.chem.wsu.edu/~kipeters) Feb. 2017
                        H. Li, H. Feng, W. Sun, Y. Zhang, Q. Fan, K. A. Peterson, Y. Xie, H. F. Schaefer III, Mol. Phys. 111, 2292 (2013)
  Cu-Zn, Ag-Cd, Au-Hg : Obtained from the ccRepo (grant-hill.group.shef.ac.uk/ccrepo) Feb. 2017
                        K. A. Peterson, C. Puzzarini, Theor. Chem. Acc. 114, 283 (2005)
  Ga-Kr, In-Xe, Tl-Rn : Obtained from the ccRepo (grant-hill.group.shef.ac.uk/ccrepo) Feb. 2017
                        K. A. Peterson, J. Chem. Phys. 119, 11099 (2003)
                        K. A. Peterson, D. Figgen, E. Goll, H. Stoll, M. Dolg, J. Chem. Phys. 119, 11113 (2003)
                 Y-Pd : Obtained from the ccRepo (grant-hill.group.shef.ac.uk/ccrepo) Feb. 2017
                        K. A. Peterson, D. Figgen, M. Dolg, H. Stoll, J. Chem. Phys. 126, 124101 (2007)
                Hf-Pt : Obtained from the ccRepo (grant-hill.group.shef.ac.uk/ccrepo) Feb. 2017
                        D. Figgen, K. A. Peterson, M. Dolg, H. Stoll, J. Chem. Phys. 130, 164108 (2009)

cite the ECPs for Os [SK MCDHF RSC] as follows:
O: B. Metz and H. Stoll, private communication (KAP)
Tl: B. Metz, M. Schweizer, H. Stoll, M. Dolg, W. Liu, Theor. Chem. Acc. 104, 22 (2000)
Ga-As, In-Sb, Pb-Bi: B. Metz, H. Stoll, M. Dolg, J. Chem. Phys. 113, 2563 (2000)
Se-Kr, Te-Xe, Po-Rn: K.A. Peterson, D. Figgen, E. Goll, H. Stoll, and M. Dolg, J. Chem. Phys., in press (2003)
Cu-Zn, Ag-Cd, Au-Hg: D. Figgen, G. Rauhut, M. Dolg, and H. Stoll, Chem. Phys. 311, 227 (2005)
Y-Pd: K.A. Peterson, D. Figgen, M. Dolg, H. Stoll, J. Chem. Phys. 126, 124101 (2007)
I: K. A. Peterson, B. C. Shepler, D. Figgen, H. Stoll, J. Phys. Chem. A 110, 13877 (2006)
Hf-Pt: D. Figgen, K.A. Peterson, M. Dolg, H. Stoll, J. Chem. Phys. 130, 164108 (2009)
Ca, Sr, Ba, Ra: I.S. Lim, H. Stoll, P. Schwerdtfeger, J. Chem. Phys. 124, 034107 (2006)

ECP parameters for Os [SK MCDHF RSC] have been obtained from:
cc-pVDZ-PP  EMSL  Basis Set Exchange Library   4/7/16 5:27 AM
Ca, Sr, Ba, Ra: http://www.tc.uni-koeln.de/PP/index.en.html 3/16/17 1:54 PM

================================================================================
                                        WARNINGS
                       Please study these warnings very carefully!
================================================================================


WARNING: your system is open-shell and RHF/RKS was chosen
  ===> : WILL SWITCH to UHF/UKS


WARNING: MDCI localization with Augmented Hessian Foster-Boys
  ===> : Switching off randomization!

WARNING: Post HF methods need fully converged wavefunctions
  ===> : Setting SCFConvForced true
         You can overwrite this default with %scf ConvForced false 


INFO   : the flag for use of LIBINT has been found!

================================================================================
                                       INPUT FILE
================================================================================
NAME = 76_Os.in
|  1> #
|  2> # 76_Os CCSD(T)/aug-cc-pVTZ-PP
|  3> #
|  4> ! CCSD(T) aug-cc-pVTZ-PP tightscf slowconv
|  5> 
|  6> *xyz 0 5
|  7>  Os 0.0 0.0 0.0
|  8> *
|  9> 
| 10> %maxcore 5000 
| 11> 
| 12> %pal
| 13> nprocs 24
| 14> end
| 15> 
| 16> %method
| 17> NewNCore Os 60 end
| 18> end
| 19> 
| 20> 
| 21>                          ****END OF INPUT****
================================================================================

                       ****************************
                       * Single Point Calculation *
                       ****************************

---------------------------------
CARTESIAN COORDINATES (ANGSTROEM)
---------------------------------
  Os     0.000000    0.000000    0.000000

----------------------------
CARTESIAN COORDINATES (A.U.)
----------------------------
  NO LB      ZA    FRAG     MASS         X           Y           Z
   0 Os   16.0000*   0   190.200    0.000000    0.000000    0.000000
* core charge reduced due to ECP

--------------------------------
INTERNAL COORDINATES (ANGSTROEM)
--------------------------------
 Os     0   0   0     0.000000000000     0.00000000     0.00000000

---------------------------
INTERNAL COORDINATES (A.U.)
---------------------------
 Os     0   0   0     0.000000000000     0.00000000     0.00000000

---------------------
BASIS SET INFORMATION
---------------------
There are 1 groups of distinct atoms

 Group   1 Type Os  : 38s34p23d3f2g contracted to 6s6p5d3f2g pattern {999911/888811/77711/111/11}

Atom   0Os   basis set group =>   1
-------------------------
ECP PARAMETER INFORMATION
-------------------------

 Group 1, Type Os ECP SK MCDHF RSC (replacing 60 core electrons, lmax=5)

Atom   0Os   ECP group =>   1



           ************************************************************
           *        Program running with 24 parallel MPI-processes    *
           *              working on a common directory               *
           ************************************************************
------------------------------------------------------------------------------
                           ORCA GTO INTEGRAL CALCULATION
------------------------------------------------------------------------------

                         BASIS SET STATISTICS AND STARTUP INFO

 # of primitive gaussian shells          ...  100
 # of primitive gaussian functions       ...  294
 # of contracted shells                  ...   22
 # of contracted basis functions         ...   88
 Highest angular momentum                ...    4
 Maximum contraction depth               ...    9
 Integral package used                   ... LIBINT
 Integral threshhold            Thresh   ...  2.500e-11
 Primitive cut-off              TCut     ...  2.500e-12


------------------------------ INTEGRAL EVALUATION ----------------------------


 * One electron integrals 

   ECP integrals                         ... done
 Pre-screening matrix                    ... done
 Shell pair data                         ... done (   0.000 sec)



           ************************************************************
           *        Program running with 24 parallel MPI-processes    *
           *              working on a common directory               *
           ************************************************************
-------------------------------------------------------------------------------
                                 ORCA SCF
-------------------------------------------------------------------------------

------------
SCF SETTINGS
------------
Hamiltonian:
 Ab initio Hamiltonian  Method          .... Hartree-Fock(GTOs)


General Settings:
 Integral files         IntName         .... 76_Os
 Hartree-Fock type      HFTyp           .... UHF
 Total Charge           Charge          ....    0
 Multiplicity           Mult            ....    5
 Number of Electrons    NEL             ....   16
 Basis Dimension        Dim             ....   88
 Nuclear Repulsion      ENuc            ....      0.0000000000 Eh

Convergence Acceleration:
 DIIS                   CNVDIIS         .... on
   Start iteration      DIISMaxIt       ....     0
   Startup error        DIISStart       ....  0.200000
   # of expansion vecs  DIISMaxEq       ....     5
   Bias factor          DIISBfac        ....   1.050
   Max. coefficient     DIISMaxC        ....  10.000
 Newton-Raphson         CNVNR           .... off
 SOSCF                  CNVSOSCF        .... off
 Level Shifting         CNVShift        .... on
   Level shift para.    LevelShift      ....    0.2500
   Turn off err/grad.   ShiftErr        ....    0.0000
 Zerner damping         CNVZerner       .... off
 Static damping         CNVDamp         .... on
   Fraction old density DampFac         ....    0.8500
   Max. Damping (<1)    DampMax         ....    0.9800
   Min. Damping (>=0)   DampMin         ....    0.0000
   Turn off err/grad.   DampErr         ....    0.0300
 Fernandez-Rico         CNVRico         .... off

SCF Procedure:
 Maximum # iterations   MaxIter         ....   125
 SCF integral mode      SCFMode         .... Direct
   Integral package                     .... LIBINT
 Reset frequency        DirectResetFreq ....    20
 Integral Threshold     Thresh          ....  2.500e-11 Eh
 Primitive CutOff       TCut            ....  2.500e-12 Eh

Convergence Tolerance:
 Convergence Check Mode ConvCheckMode   .... Total+1el-Energy
 Convergence forced     ConvForced      .... 1
 Energy Change          TolE            ....  1.000e-08 Eh
 1-El. energy change                    ....  1.000e-05 Eh
 DIIS Error             TolErr          ....  5.000e-07


Diagonalization of the overlap matrix:
Smallest eigenvalue                        ... 3.658e-03
Time for diagonalization                   ...    0.002 sec
Threshold for overlap eigenvalues          ... 1.000e-08
Number of eigenvalues below threshold      ... 0
Time for construction of square roots      ...    0.017 sec
Total time needed                          ...    0.019 sec

-------------------
DFT GRID GENERATION
-------------------

General Integration Accuracy     IntAcc      ...  4.340
Radial Grid Type                 RadialGrid  ... Gauss-Chebyshev
Angular Grid (max. acc.)         AngularGrid ... Lebedev-110
Angular grid pruning method      GridPruning ... 3 (G Style)
Weight generation scheme         WeightScheme... Becke
Basis function cutoff            BFCut       ...    1.0000e-11
Integration weight cutoff        WCut        ...    1.0000e-14
Grids for H and He will be reduced by one unit

# of grid points (after initial pruning)     ...   3554 (   0.0 sec)
# of grid points (after weights+screening)   ...   3554 (   0.0 sec)
Grid point division into batches done        ...    0.0 sec
Reduced shell lists constructed in    0.0 sec

Total number of grid points                  ...     3554
Total number of batches                      ...       56
Average number of points per batch           ...       63
Average number of grid points per atom       ...     3554
Average number of shells per batch           ...    13.50 (61.36%)
Average number of basis functions per batch  ...    42.00 (47.73%)
Average number of large shells per batch     ...    12.00 (88.89%)
Average number of large basis fcns per batch ...    39.00 (92.86%)
Maximum spatial batch extension              ...  25.56, 38.92, 38.92 au
Average spatial batch extension              ...   1.31,  1.85,  2.08 au

Time for grid setup =    0.085 sec

------------------------------
INITIAL GUESS: MODEL POTENTIAL
------------------------------
Loading Hartree-Fock densities                     ... done
  calling /sw/apps/orca/orca_4_2_0_linux_x86-64_openmpi314/orca 76_Os_atom76.inp > 76_Os_atom76.out in order to generate an atomic fitting density for atom 0 (Os with ECP) on-the-fly... 
    atom 0 (Os), assumed electronic state with S=5: 1s2 2s2 2p6 3s2 3p6 4s2 3d10 4p6 5s2 4d10 5p6 6s2 4f14 5d6           ... done
Calculating cut-offs                               ... done
Setting up the integral package                    ... done
Initializing the effective Hamiltonian             ... done
Starting the Coulomb interaction                   ... done (   0.0 sec)
Reading the grid                                   ... done
Mapping shells                                     ... done
Starting the XC term evaluation                    ... done (   0.0 sec)
Transforming the Hamiltonian                       ... done (   0.0 sec)
Diagonalizing the Hamiltonian                      ... done (   0.0 sec)
Back transforming the eigenvectors                 ... done (   0.0 sec)
Now organizing SCF variables                       ... done
                      ------------------
                      INITIAL GUESS DONE (   6.2 sec)
                      ------------------
--------------
SCF ITERATIONS
--------------
ITER       Energy         Delta-E        Max-DP      RMS-DP      [F,P]     Damp
               ***  Starting incremental Fock matrix formation  ***
  0    -89.9365620813   0.000000000000 0.03887371  0.00095816  0.4010315 0.8500
  1    -89.9554814003  -0.018919319055 0.03480868  0.00085255  0.3435287 0.8500
                               ***Turning on DIIS***
  2    -89.9715786639  -0.016097263518 0.02967161  0.00072571  0.2927014 0.8500
  3    -90.1033665371  -0.131787873265 0.02532170  0.00061693  0.2496019 0.8500
  4    -90.1730449780  -0.069678440905 0.02182676  0.00053021  0.2133503 0.8500
  5    -90.1655814927   0.007463485362 0.01889332  0.00045836  0.1825419 0.8500
  6    -90.1445295049   0.021051987748 0.01631482  0.00039575  0.1560648 0.8500
  7    -90.1107228477   0.033806657243 0.01408851  0.00034185  0.1332713 0.8500
  8    -90.0964353746   0.014287473067 0.01208418  0.00029389  0.1135896 0.8500
  9    -90.0928873096   0.003548064961 0.01031506  0.00025183  0.0967151 0.8500
 10    -90.0920214074   0.000865902254 0.00878976  0.00021555  0.0823271 0.8500
 11    -90.0909019409   0.001119466505 0.00748879  0.00018450  0.0700836 0.8500
 12    -90.0890056240   0.001896316890 0.00638273  0.00015799  0.0596660 0.8500
 13    -90.0869148480   0.002090776043 0.00544070  0.00013531  0.0507969 0.8500
 14    -90.0849743793   0.001940468651 0.00463737  0.00011591  0.0432444 0.8500
 15    -90.0832588527   0.001715526623 0.00395224  0.00009930  0.0368133 0.8500
 16    -90.0817424133   0.001516439336 0.00336819  0.00008508  0.0313379 0.8500
 17    -90.0803909898   0.001351423511 0.01913659  0.00048620  0.0266765 0.0000
 18    -90.0713154049   0.009075584978 0.00137936  0.00001830  0.0011113 0.0000
 19    -90.0708662534   0.000449151441 0.00166785  0.00001894  0.0010107 0.0000
               *** Restarting incremental Fock matrix formation ***
                                   *** Resetting DIIS ***
 20    -90.0710131887  -0.000146935321 0.00108286  0.00001178  0.0008978 0.0000
 21    -90.0710735365  -0.000060347759 0.00155119  0.00001535  0.0008224 0.0000
 22    -90.0717421455  -0.000668608991 0.00289848  0.00002707  0.0007193 0.0000
 23    -90.0713294186   0.000412726885 0.00228379  0.00002089  0.0005269 0.0000
 24    -90.0711505232   0.000178895390 0.00229834  0.00002076  0.0003772 0.0000
 25    -90.0708123619   0.000338161359 0.00166770  0.00001507  0.0002425 0.0000
 26    -90.0707882328   0.000024129088 0.00118121  0.00001076  0.0001408 0.0000
 27    -90.0708006037  -0.000012370942 0.00063559  0.00000587  0.0000942 0.0000
 28    -90.0709224377  -0.000121834030 0.00020839  0.00000210  0.0000622 0.0000
 29    -90.0709889691  -0.000066531414 0.00003358  0.00000058  0.0000304 0.0000
 30    -90.0710307597  -0.000041790539 0.00002394  0.00000035  0.0000114 0.0000
 31    -90.0710355080  -0.000004748345 0.00002642  0.00000027  0.0000052 0.0000
 32    -90.0710390775  -0.000003569499 0.00001773  0.00000018  0.0000026 0.0000
 33    -90.0710356838   0.000003393741 0.00000862  0.00000009  0.0000012 0.0000
 34    -90.0710342130   0.000001470769 0.00000343  0.00000005  0.0000011 0.0000
 35    -90.0710330768   0.000001136268 0.00000233  0.00000003  0.0000011 0.0000
 36    -90.0710325507   0.000000526006 0.00000151  0.00000001  0.0000011 0.0000
 37    -90.0710323686   0.000000182132 0.00000122  0.00000001  0.0000011 0.0000
 38    -90.0710322708   0.000000097782 0.00000087  0.00000001  0.0000010 0.0000
 39    -90.0710322491   0.000000021777 0.00000064  0.00000001  0.0000010 0.0000
               *** Restarting incremental Fock matrix formation ***
                                   *** Resetting DIIS ***
 40    -90.0710323279  -0.000000078882 0.00000141  0.00000001  0.0000010 0.0000
                 **** Energy Check signals convergence ****

               *****************************************************
               *                     SUCCESS                       *
               *           SCF CONVERGED AFTER  41 CYCLES          *
               *****************************************************


----------------
TOTAL SCF ENERGY
----------------

Total Energy       :          -90.07103234 Eh           -2450.95739 eV

Components:
Nuclear Repulsion  :            0.00000000 Eh               0.00000 eV
Electronic Energy  :          -90.07103234 Eh           -2450.95739 eV
One Electron Energy:         -155.24919149 Eh           -4224.54527 eV
Two Electron Energy:           65.17815915 Eh            1773.58788 eV

Virial components:
Potential Energy   :         -120.58318324 Eh           -3281.23523 eV
Kinetic Energy     :           30.51215090 Eh             830.27784 eV
Virial Ratio       :            3.95197256


---------------
SCF CONVERGENCE
---------------

  Last Energy change         ...   -7.8695e-09  Tolerance :   1.0000e-08
  Last MAX-Density change    ...    1.6974e-06  Tolerance :   1.0000e-07
  Last RMS-Density change    ...    1.3843e-08  Tolerance :   5.0000e-09
  Last DIIS Error            ...    1.0467e-06  Tolerance :   5.0000e-07

             **** THE GBW FILE WAS UPDATED (76_Os.gbw) ****
             **** DENSITY FILE WAS UPDATED (76_Os.scfp) ****
             **** ENERGY FILE WAS UPDATED (76_Os.en.tmp) ****
----------------------
UHF SPIN CONTAMINATION
----------------------

Expectation value of <S**2>     :     6.031665
Ideal value S*(S+1) for S=2.0   :     6.000000
Deviation                       :     0.031665

             **** THE GBW FILE WAS UPDATED (76_Os.gbw) ****
             **** DENSITY FILE WAS UPDATED (76_Os.scfp) ****
----------------
ORBITAL ENERGIES
----------------
                 SPIN UP ORBITALS
  NO   OCC          E(Eh)            E(eV) 
   0   1.0000      -4.041992      -109.9882 
   1   1.0000      -2.449477       -66.6537 
   2   1.0000      -2.399702       -65.2992 
   3   1.0000      -2.399484       -65.2933 
   4   1.0000      -0.502408       -13.6712 
   5   1.0000      -0.494954       -13.4684 
   6   1.0000      -0.494880       -13.4664 
   7   1.0000      -0.475877       -12.9493 
   8   1.0000      -0.439679       -11.9643 
   9   1.0000      -0.325886        -8.8678 
  10   0.0000       0.015458         0.4206 
  11   0.0000       0.018844         0.5128 
  12   0.0000       0.018852         0.5130 
  13   0.0000       0.036105         0.9825 
  14   0.0000       0.049827         1.3559 
  15   0.0000       0.056699         1.5429 
  16   0.0000       0.056721         1.5435 
  17   0.0000       0.075934         2.0663 
  18   0.0000       0.076230         2.0743 
  19   0.0000       0.076232         2.0744 
  20   0.0000       0.077190         2.1004 
  21   0.0000       0.077546         2.1101 
  22   0.0000       0.178154         4.8478 
  23   0.0000       0.187572         5.1041 
  24   0.0000       0.187605         5.1050 
  25   0.0000       0.252490         6.8706 
  26   0.0000       0.253849         6.9076 
  27   0.0000       0.253860         6.9079 
  28   0.0000       0.257607         7.0098 
  29   0.0000       0.260944         7.1006 
  30   0.0000       0.364832         9.9276 
  31   0.0000       0.461796        12.5661 
  32   0.0000       0.462598        12.5879 
  33   0.0000       0.462611        12.5883 
  34   0.0000       0.464366        12.6361 
  35   0.0000       0.467503        12.7214 
  36   0.0000       0.472650        12.8615 
  37   0.0000       0.472656        12.8616 
  38   0.0000       0.625800        17.0289 
  39   0.0000       0.645657        17.5692 
  40   0.0000       0.645733        17.5713 
  41   0.0000       0.823963        22.4212 
  42   0.0000       0.827202        22.5093 
  43   0.0000       0.827237        22.5103 
  44   0.0000       0.837293        22.7839 
  45   0.0000       0.851588        23.1729 
  46   0.0000       1.161139        31.5962 
  47   0.0000       1.162708        31.6389 
  48   0.0000       1.162737        31.6397 
  49   0.0000       1.165767        31.7221 
  50   0.0000       1.179759        32.1029 
  51   0.0000       1.194205        32.4960 
  52   0.0000       1.194241        32.4970 
  53   0.0000       1.534183        41.7472 
  54   0.0000       1.534765        41.7631 
  55   0.0000       1.534777        41.7634 
  56   0.0000       1.535664        41.7875 
  57   0.0000       1.543738        42.0072 
  58   0.0000       1.548121        42.1265 
  59   0.0000       1.548154        42.1274 
  60   0.0000       1.559499        42.4361 
  61   0.0000       1.559995        42.4496 
  62   0.0000       2.197782        59.8047 
  63   0.0000       2.305904        62.7468 
  64   0.0000       2.338527        63.6346 
  65   0.0000       2.338665        63.6383 
  66   0.0000       2.891276        78.6756 
  67   0.0000       2.895643        78.7945 
  68   0.0000       2.895702        78.7961 
  69   0.0000       2.910117        79.1883 
  70   0.0000       2.934406        79.8493 
  71   0.0000       3.185890        86.6925 
  72   0.0000       3.187602        86.7391 
  73   0.0000       3.187637        86.7400 
  74   0.0000       3.190862        86.8278 
  75   0.0000       3.211582        87.3916 
  76   0.0000       3.230296        87.9008 
  77   0.0000       3.230351        87.9023 
  78   0.0000       3.841378       104.5292 
  79   0.0000       3.841706       104.5381 
  80   0.0000       3.841713       104.5383 
  81   0.0000       3.842154       104.5503 
  82   0.0000       3.860430       105.0476 
  83   0.0000       3.867368       105.2364 
  84   0.0000       3.867448       105.2386 
  85   0.0000       3.887623       105.7876 
  86   0.0000       3.888989       105.8248 
  87   0.0000      15.747353       428.5073 

                 SPIN DOWN ORBITALS
  NO   OCC          E(Eh)            E(eV) 
   0   1.0000      -3.850786      -104.7852 
   1   1.0000      -2.154000       -58.6133 
   2   1.0000      -2.153842       -58.6090 
   3   1.0000      -2.119307       -57.6693 
   4   1.0000      -0.342440        -9.3183 
   5   1.0000      -0.248157        -6.7527 
   6   0.0000       0.018444         0.5019 
   7   0.0000       0.019266         0.5243 
   8   0.0000       0.019272         0.5244 
   9   0.0000       0.041116         1.1188 
  10   0.0000       0.061699         1.6789 
  11   0.0000       0.062549         1.7021 
  12   0.0000       0.062560         1.7024 
  13   0.0000       0.066770         1.8169 
  14   0.0000       0.068389         1.8610 
  15   0.0000       0.068409         1.8615 
  16   0.0000       0.071757         1.9526 
  17   0.0000       0.077365         2.1052 
  18   0.0000       0.106109         2.8874 
  19   0.0000       0.112324         3.0565 
  20   0.0000       0.112408         3.0588 
  21   0.0000       0.130731         3.5574 
  22   0.0000       0.204162         5.5555 
  23   0.0000       0.204963         5.5773 
  24   0.0000       0.204974         5.5776 
  25   0.0000       0.263512         7.1705 
  26   0.0000       0.286046         7.7837 
  27   0.0000       0.289092         7.8666 
  28   0.0000       0.289130         7.8676 
  29   0.0000       0.298680         8.1275 
  30   0.0000       0.412802        11.2329 
  31   0.0000       0.477851        13.0030 
  32   0.0000       0.477852        13.0030 
  33   0.0000       0.478035        13.0080 
  34   0.0000       0.478343        13.0164 
  35   0.0000       0.481494        13.1021 
  36   0.0000       0.481501        13.1023 
  37   0.0000       0.481873        13.1124 
  38   0.0000       0.682561        18.5734 
  39   0.0000       0.687473        18.7071 
  40   0.0000       0.687496        18.7077 
  41   0.0000       0.874413        23.7940 
  42   0.0000       0.897708        24.4279 
  43   0.0000       0.902324        24.5535 
  44   0.0000       0.902381        24.5550 
  45   0.0000       0.916119        24.9289 
  46   0.0000       1.271812        34.6078 
  47   0.0000       1.271885        34.6098 
  48   0.0000       1.275603        34.7109 
  49   0.0000       1.290104        35.1055 
  50   0.0000       1.295631        35.2559 
  51   0.0000       1.295704        35.2579 
  52   0.0000       1.301244        35.4087 
  53   0.0000       1.573662        42.8215 
  54   0.0000       1.574302        42.8389 
  55   0.0000       1.574333        42.8398 
  56   0.0000       1.575663        42.8760 
  57   0.0000       1.577450        42.9246 
  58   0.0000       1.580036        42.9950 
  59   0.0000       1.580041        42.9951 
  60   0.0000       1.584148        43.1068 
  61   0.0000       1.584309        43.1112 
  62   0.0000       2.268701        61.7345 
  63   0.0000       2.383267        64.8520 
  64   0.0000       2.397611        65.2423 
  65   0.0000       2.397670        65.2439 
  66   0.0000       2.969611        80.8072 
  67   0.0000       2.976193        80.9863 
  68   0.0000       2.982016        81.1448 
  69   0.0000       2.982090        81.1468 
  70   0.0000       2.999681        81.6255 
  71   0.0000       3.324436        90.4625 
  72   0.0000       3.324497        90.4642 
  73   0.0000       3.325917        90.5028 
  74   0.0000       3.337151        90.8085 
  75   0.0000       3.345761        91.0428 
  76   0.0000       3.345849        91.0452 
  77   0.0000       3.352305        91.2209 
  78   0.0000       3.948445       107.4426 
  79   0.0000       3.948927       107.4558 
  80   0.0000       3.948973       107.4570 
  81   0.0000       3.949624       107.4747 
  82   0.0000       3.956022       107.6488 
  83   0.0000       3.957910       107.7002 
  84   0.0000       3.957917       107.7004 
  85   0.0000       3.960930       107.7824 
  86   0.0000       3.961707       107.8035 
  87   0.0000      15.760005       428.8515 

                    ********************************
                    * MULLIKEN POPULATION ANALYSIS *
                    ********************************

--------------------------------------------
MULLIKEN ATOMIC CHARGES AND SPIN POPULATIONS
--------------------------------------------
   0 Os:    0.000000    4.000000
Sum of atomic charges         :    0.0000000
Sum of atomic spin populations:    4.0000000

-----------------------------------------------------
MULLIKEN REDUCED ORBITAL CHARGES AND SPIN POPULATIONS
-----------------------------------------------------
CHARGE
  0 Oss       :     3.997873  s :     3.997873
      pz      :     1.999940  p :     5.999114
      px      :     1.999588
      py      :     1.999586
      dz2     :     1.001903  d :     6.001622
      dxz     :     1.000265
      dyz     :     1.003959
      dx2y2   :     0.999967
      dxy     :     1.995529
      f0      :     0.000058  f :     0.000886
      f+1     :     0.000062
      f-1     :     0.000060
      f+2     :     0.000001
      f-2     :     0.000004
      f+3     :     0.000351
      f-3     :     0.000349
      g0      :     0.000093  g :     0.000505
      g+1     :     0.000084
      g-1     :     0.000083
      g+2     :     0.000032
      g-2     :     0.000087
      g+3     :     0.000011
      g-3     :     0.000010
      g+4     :     0.000104
      g-4     :     0.000000

SPIN
  0 Oss       :     0.002473  s :     0.002473
      pz      :    -0.000045  p :     0.000501
      px      :     0.000272
      py      :     0.000273
      dz2     :     0.997465  d :     3.997131
      dxz     :     0.999544
      dyz     :     0.995854
      dx2y2   :     0.999967
      dxy     :     0.004302
      f0      :     0.000046  f :    -0.000501
      f+1     :     0.000040
      f-1     :     0.000040
      f+2     :    -0.000001
      f-2     :    -0.000002
      f+3     :    -0.000312
      f-3     :    -0.000312
      g0      :     0.000091  g :     0.000396
      g+1     :     0.000084
      g-1     :     0.000083
      g+2     :     0.000032
      g-2     :     0.000081
      g+3     :     0.000010
      g-3     :     0.000010
      g+4     :     0.000004
      g-4     :     0.000000


                     *******************************
                     * LOEWDIN POPULATION ANALYSIS *
                     *******************************

-------------------------------------------
LOEWDIN ATOMIC CHARGES AND SPIN POPULATIONS
-------------------------------------------
   0 Os:   -0.000000    4.000000

----------------------------------------------------
LOEWDIN REDUCED ORBITAL CHARGES AND SPIN POPULATIONS
----------------------------------------------------
CHARGE
  0 Oss       :     3.997873  s :     3.997873
      pz      :     1.999940  p :     5.999114
      px      :     1.999588
      py      :     1.999586
      dz2     :     1.001903  d :     6.001622
      dxz     :     1.000265
      dyz     :     1.003959
      dx2y2   :     0.999967
      dxy     :     1.995529
      f0      :     0.000058  f :     0.000886
      f+1     :     0.000062
      f-1     :     0.000060
      f+2     :     0.000001
      f-2     :     0.000004
      f+3     :     0.000351
      f-3     :     0.000349
      g0      :     0.000093  g :     0.000505
      g+1     :     0.000084
      g-1     :     0.000083
      g+2     :     0.000032
      g-2     :     0.000087
      g+3     :     0.000011
      g-3     :     0.000010
      g+4     :     0.000104
      g-4     :     0.000000

SPIN
  0 Oss       :     0.002473  s :     0.002473
      pz      :    -0.000045  p :     0.000501
      px      :     0.000272
      py      :     0.000273
      dz2     :     0.997465  d :     3.997131
      dxz     :     0.999544
      dyz     :     0.995854
      dx2y2   :     0.999967
      dxy     :     0.004302
      f0      :     0.000046  f :    -0.000501
      f+1     :     0.000040
      f-1     :     0.000040
      f+2     :    -0.000001
      f-2     :    -0.000002
      f+3     :    -0.000312
      f-3     :    -0.000312
      g0      :     0.000091  g :     0.000396
      g+1     :     0.000084
      g-1     :     0.000083
      g+2     :     0.000032
      g-2     :     0.000081
      g+3     :     0.000010
      g-3     :     0.000010
      g+4     :     0.000004
      g-4     :     0.000000


                      *****************************
                      * MAYER POPULATION ANALYSIS *
                      *****************************

  NA   - Mulliken gross atomic population
  ZA   - Total nuclear charge
  QA   - Mulliken gross atomic charge
  VA   - Mayer's total valence
  BVA  - Mayer's bonded valence
  FA   - Mayer's free valence

  ATOM       NA         ZA         QA         VA         BVA        FA
  0 Os    16.0000    16.0000    -0.0000     4.0633     0.0000     4.0633

  Mayer bond orders larger than 0.100000


-------
TIMINGS
-------

Total SCF time: 0 days 0 hours 0 min 32 sec 

Total time                  ....      32.082 sec
Sum of individual times     ....      31.302 sec  ( 97.6%)

Fock matrix formation       ....      23.865 sec  ( 74.4%)
Diagonalization             ....       0.311 sec  (  1.0%)
Density matrix formation    ....       0.030 sec  (  0.1%)
Population analysis         ....       0.071 sec  (  0.2%)
Initial guess               ....       6.067 sec  ( 18.9%)
Orbital Transformation      ....       0.000 sec  (  0.0%)
Orbital Orthonormalization  ....       0.000 sec  (  0.0%)
DIIS solution               ....       0.874 sec  (  2.7%)


           ************************************************************
           *        Program running with 24 parallel MPI-processes    *
           *              working on a common directory               *
           ************************************************************


------------------------------------------------------------------------------- 
                              ORCA-MATRIX DRIVEN CI                            
------------------------------------------------------------------------------- 

--------------------------------
AUTOMATIC CHOICE OF INCORE LEVEL
--------------------------------

Memory available                           ...   2500.00 MB
Memory needed for S+T                      ...      7.66 MB
Memory needed for J+K                      ...     15.38 MB
Memory needed for DIIS                     ...    107.22 MB
Memory needed for 3-ext                    ...     36.21 MB
Memory needed for 4-ext                    ...    143.01 MB
Memory needed for triples                  ...     18.10 MB
 -> Final InCoreLevel    ... 5
 -> check shows that triples correction can be computed


Wavefunction type
-----------------
Correlation treatment                      ...      CCSD     
Single excitations                         ... ON
Orbital optimization                       ... OFF
Calculation of Z vector                    ... OFF
Calculation of Brueckner orbitals          ... OFF
Perturbative triple excitations            ... ON
Calculation of F12 correction              ... OFF
Frozen core treatment                      ... chemical core (0 el)
Reference Wavefunction                     ... UHF
  Alpha-MOs occ    :     0 ...    9 ( 10 MO's/ 10 electrons)
  Beta-MOs occ     :     0 ...    5 (  6 MO's/  6 electrons)
  Alpha-MOs virt   :    10 ...   87 ( 78 MO's              )
  Beta-MOs virt    :     6 ...   87 ( 82 MO's              )
Number of AO's                             ...     88
Number of electrons                        ...     16
Number of correlated electrons             ...     16

Algorithmic settings
--------------------
Integral transformation                    ... AO direct full transformation
K(C) Formation                             ... FULL-MO TRAFO
Maximum number of iterations               ...        50
Convergence tolerance (max. residuum)      ... 1.000e-05
Level shift for amplitude update           ... 2.000e-01
Maximum number of DIIS vectors             ...         7
DIIS turned on at iteration                ...         0
Damping before turning on DIIS             ...     0.500
Damping after turning on DIIS              ...     0.000
Pair specific amplitude update             ... OFF
Natural orbital iterations                 ... OFF
Perturbative natural orbital generation    ... OFF
Printlevel                                 ... 2

Memory handling:
----------------
Maximum memory for working arrays          ...   2500 MB
Data storage in matrix containers          ... UNCOMPRESSED
Data type for integral storage             ... DOUBLE
In-Core Storage of quantities:
   Amplitudes+Sigma Vector      ... YES
   J+K operators                ... YES
   DIIS vectors                 ... YES
   3-external integrals         ... YES
   4-external integrals         ... YES


Initializing the integral package          ... done
Warning: reference  - re-canonicalizations have been set to INT 1 VIRT 1

--------------------------
UNRESTRICTED FOCK OPERATOR
--------------------------

<ss|ss>:          231 b            0 skpd (  0.0%)    0.002 s ( 0.008 ms/b)
<ss|sp>:          756 b            0 skpd (  0.0%)    0.014 s ( 0.018 ms/b)
<ss|sd>:          630 b            0 skpd (  0.0%)    0.010 s ( 0.015 ms/b)
<ss|sf>:          378 b            0 skpd (  0.0%)    0.002 s ( 0.006 ms/b)
<ss|sg>:          252 b            0 skpd (  0.0%)    0.001 s ( 0.005 ms/b)
<ss|pp>:          441 b            0 skpd (  0.0%)    0.009 s ( 0.021 ms/b)
<ss|pd>:          630 b            0 skpd (  0.0%)    0.011 s ( 0.018 ms/b)
<ss|pf>:          378 b            0 skpd (  0.0%)    0.001 s ( 0.003 ms/b)
<ss|pg>:          252 b            0 skpd (  0.0%)    0.002 s ( 0.007 ms/b)
<ss|dd>:          315 b            0 skpd (  0.0%)    0.009 s ( 0.028 ms/b)
<ss|df>:          315 b            0 skpd (  0.0%)    0.002 s ( 0.005 ms/b)
<ss|dg>:          210 b            0 skpd (  0.0%)    0.003 s ( 0.012 ms/b)
<ss|ff>:          126 b            0 skpd (  0.0%)    0.000 s ( 0.003 ms/b)
<ss|fg>:          126 b            0 skpd (  0.0%)    0.001 s ( 0.005 ms/b)
<ss|gg>:           63 b            0 skpd (  0.0%)    0.001 s ( 0.014 ms/b)
<sp|sp>:          666 b            0 skpd (  0.0%)    0.013 s ( 0.019 ms/b)
<sp|sd>:         1080 b            0 skpd (  0.0%)    0.015 s ( 0.014 ms/b)
<sp|sf>:          648 b            0 skpd (  0.0%)    0.002 s ( 0.003 ms/b)
<sp|sg>:          432 b            0 skpd (  0.0%)    0.003 s ( 0.008 ms/b)
<sp|pp>:          756 b            0 skpd (  0.0%)    0.015 s ( 0.020 ms/b)
<sp|pd>:         1080 b            0 skpd (  0.0%)    0.020 s ( 0.019 ms/b)
<sp|pf>:          648 b            0 skpd (  0.0%)    0.004 s ( 0.006 ms/b)
<sp|pg>:          432 b            0 skpd (  0.0%)    0.005 s ( 0.012 ms/b)
<sp|dd>:          540 b            0 skpd (  0.0%)    0.025 s ( 0.046 ms/b)
<sp|df>:          540 b            0 skpd (  0.0%)    0.005 s ( 0.010 ms/b)
<sp|dg>:          360 b            0 skpd (  0.0%)    0.008 s ( 0.021 ms/b)
<sp|ff>:          216 b            0 skpd (  0.0%)    0.001 s ( 0.006 ms/b)
<sp|fg>:          216 b            0 skpd (  0.0%)    0.002 s ( 0.009 ms/b)
<sp|gg>:          108 b            0 skpd (  0.0%)    0.003 s ( 0.029 ms/b)
<sd|sd>:          465 b            0 skpd (  0.0%)    0.013 s ( 0.028 ms/b)
<sd|sf>:          540 b            0 skpd (  0.0%)    0.003 s ( 0.006 ms/b)
<sd|sg>:          360 b            0 skpd (  0.0%)    0.005 s ( 0.013 ms/b)
<sd|pp>:          630 b            0 skpd (  0.0%)    0.017 s ( 0.027 ms/b)
<sd|pd>:          900 b            0 skpd (  0.0%)    0.028 s ( 0.031 ms/b)
<sd|pf>:          540 b            0 skpd (  0.0%)    0.006 s ( 0.010 ms/b)
<sd|pg>:          360 b            0 skpd (  0.0%)    0.010 s ( 0.027 ms/b)
<sd|dd>:          450 b            0 skpd (  0.0%)    0.038 s ( 0.084 ms/b)
<sd|df>:          450 b            0 skpd (  0.0%)    0.010 s ( 0.022 ms/b)
<sd|dg>:          300 b            0 skpd (  0.0%)    0.015 s ( 0.051 ms/b)
<sd|ff>:          180 b            0 skpd (  0.0%)    0.003 s ( 0.015 ms/b)
<sd|fg>:          180 b            0 skpd (  0.0%)    0.004 s ( 0.022 ms/b)
<sd|gg>:           90 b            0 skpd (  0.0%)    0.006 s ( 0.063 ms/b)
<sf|sf>:          171 b            0 skpd (  0.0%)    0.001 s ( 0.005 ms/b)
<sf|sg>:          216 b            0 skpd (  0.0%)    0.001 s ( 0.006 ms/b)
<sf|pp>:          378 b            0 skpd (  0.0%)    0.004 s ( 0.011 ms/b)
<sf|pd>:          540 b            0 skpd (  0.0%)    0.008 s ( 0.014 ms/b)
<sf|pf>:          324 b            0 skpd (  0.0%)    0.002 s ( 0.005 ms/b)
<sf|pg>:          216 b            0 skpd (  0.0%)    0.003 s ( 0.015 ms/b)
<sf|dd>:          270 b            0 skpd (  0.0%)    0.011 s ( 0.042 ms/b)
<sf|df>:          270 b            0 skpd (  0.0%)    0.003 s ( 0.012 ms/b)
<sf|dg>:          180 b            0 skpd (  0.0%)    0.005 s ( 0.029 ms/b)
<sf|ff>:          108 b            0 skpd (  0.0%)    0.001 s ( 0.011 ms/b)
<sf|fg>:          108 b            0 skpd (  0.0%)    0.002 s ( 0.015 ms/b)
<sf|gg>:           54 b            0 skpd (  0.0%)    0.002 s ( 0.042 ms/b)
<sg|sg>:           78 b            0 skpd (  0.0%)    0.002 s ( 0.024 ms/b)
<sg|pp>:          252 b            0 skpd (  0.0%)    0.006 s ( 0.022 ms/b)
<sg|pd>:          360 b            0 skpd (  0.0%)    0.010 s ( 0.029 ms/b)
<sg|pf>:          216 b            0 skpd (  0.0%)    0.002 s ( 0.010 ms/b)
<sg|pg>:          144 b            0 skpd (  0.0%)    0.004 s ( 0.031 ms/b)
<sg|dd>:          180 b            0 skpd (  0.0%)    0.015 s ( 0.082 ms/b)
<sg|df>:          180 b            0 skpd (  0.0%)    0.004 s ( 0.025 ms/b)
<sg|dg>:          120 b            0 skpd (  0.0%)    0.007 s ( 0.060 ms/b)
<sg|ff>:           72 b            0 skpd (  0.0%)    0.001 s ( 0.018 ms/b)
<sg|fg>:           72 b            0 skpd (  0.0%)    0.002 s ( 0.028 ms/b)
<sg|gg>:           36 b            0 skpd (  0.0%)    0.003 s ( 0.088 ms/b)
<pp|pp>:          231 b            0 skpd (  0.0%)    0.014 s ( 0.061 ms/b)
<pp|pd>:          630 b            0 skpd (  0.0%)    0.025 s ( 0.039 ms/b)
<pp|pf>:          378 b            0 skpd (  0.0%)    0.005 s ( 0.013 ms/b)
<pp|pg>:          252 b            0 skpd (  0.0%)    0.008 s ( 0.033 ms/b)
<pp|dd>:          315 b            0 skpd (  0.0%)    0.033 s ( 0.103 ms/b)
<pp|df>:          315 b            0 skpd (  0.0%)    0.008 s ( 0.027 ms/b)
<pp|dg>:          210 b            0 skpd (  0.0%)    0.013 s ( 0.063 ms/b)
<pp|ff>:          126 b            0 skpd (  0.0%)    0.002 s ( 0.019 ms/b)
<pp|fg>:          126 b            0 skpd (  0.0%)    0.003 s ( 0.027 ms/b)
<pp|gg>:           63 b            0 skpd (  0.0%)    0.005 s ( 0.081 ms/b)
<pd|pd>:          465 b            0 skpd (  0.0%)    0.050 s ( 0.108 ms/b)
<pd|pf>:          540 b            0 skpd (  0.0%)    0.012 s ( 0.022 ms/b)
<pd|pg>:          360 b            0 skpd (  0.0%)    0.022 s ( 0.061 ms/b)
<pd|dd>:          450 b            0 skpd (  0.0%)    0.081 s ( 0.181 ms/b)
<pd|df>:          450 b            0 skpd (  0.0%)    0.023 s ( 0.052 ms/b)
<pd|dg>:          300 b            0 skpd (  0.0%)    0.036 s ( 0.119 ms/b)
<pd|ff>:          180 b            0 skpd (  0.0%)    0.006 s ( 0.036 ms/b)
<pd|fg>:          180 b            0 skpd (  0.0%)    0.010 s ( 0.053 ms/b)
<pd|gg>:           90 b            0 skpd (  0.0%)    0.014 s ( 0.157 ms/b)
<pf|pf>:          171 b            0 skpd (  0.0%)    0.003 s ( 0.020 ms/b)
<pf|pg>:          216 b            0 skpd (  0.0%)    0.007 s ( 0.032 ms/b)
<pf|dd>:          270 b            0 skpd (  0.0%)    0.022 s ( 0.080 ms/b)
<pf|df>:          270 b            0 skpd (  0.0%)    0.006 s ( 0.024 ms/b)
<pf|dg>:          180 b            0 skpd (  0.0%)    0.011 s ( 0.058 ms/b)
<pf|ff>:          108 b            0 skpd (  0.0%)    0.003 s ( 0.024 ms/b)
<pf|fg>:          108 b            0 skpd (  0.0%)    0.004 s ( 0.034 ms/b)
<pf|gg>:           54 b            0 skpd (  0.0%)    0.005 s ( 0.094 ms/b)
<pg|pg>:           78 b            0 skpd (  0.0%)    0.008 s ( 0.106 ms/b)
<pg|dd>:          180 b            0 skpd (  0.0%)    0.029 s ( 0.161 ms/b)
<pg|df>:          180 b            0 skpd (  0.0%)    0.008 s ( 0.046 ms/b)
<pg|dg>:          120 b            0 skpd (  0.0%)    0.013 s ( 0.112 ms/b)
<pg|ff>:           72 b            0 skpd (  0.0%)    0.003 s ( 0.036 ms/b)
<pg|fg>:           72 b            0 skpd (  0.0%)    0.004 s ( 0.058 ms/b)
<pg|gg>:           36 b            0 skpd (  0.0%)    0.006 s ( 0.177 ms/b)
<dd|dd>:          120 b            0 skpd (  0.0%)    0.070 s ( 0.587 ms/b)
<dd|df>:          225 b            0 skpd (  0.0%)    0.021 s ( 0.092 ms/b)
<dd|dg>:          150 b            0 skpd (  0.0%)    0.034 s ( 0.229 ms/b)
<dd|ff>:           90 b            0 skpd (  0.0%)    0.006 s ( 0.067 ms/b)
<dd|fg>:           90 b            0 skpd (  0.0%)    0.009 s ( 0.100 ms/b)
<dd|gg>:           45 b            0 skpd (  0.0%)    0.013 s ( 0.293 ms/b)
<df|df>:          120 b            0 skpd (  0.0%)    0.009 s ( 0.074 ms/b)
<df|dg>:          150 b            0 skpd (  0.0%)    0.014 s ( 0.095 ms/b)
<df|ff>:           90 b            0 skpd (  0.0%)    0.004 s ( 0.045 ms/b)
<df|fg>:           90 b            0 skpd (  0.0%)    0.005 s ( 0.058 ms/b)
<df|gg>:           45 b            0 skpd (  0.0%)    0.007 s ( 0.163 ms/b)
<dg|dg>:           55 b            0 skpd (  0.0%)    0.016 s ( 0.293 ms/b)
<dg|ff>:           60 b            0 skpd (  0.0%)    0.004 s ( 0.058 ms/b)
<dg|fg>:           60 b            0 skpd (  0.0%)    0.005 s ( 0.090 ms/b)
<dg|gg>:           30 b            0 skpd (  0.0%)    0.008 s ( 0.282 ms/b)
<ff|ff>:           21 b            0 skpd (  0.0%)    0.001 s ( 0.051 ms/b)
<ff|fg>:           36 b            0 skpd (  0.0%)    0.002 s ( 0.063 ms/b)
<ff|gg>:           18 b            0 skpd (  0.0%)    0.003 s ( 0.159 ms/b)
<fg|fg>:           21 b            0 skpd (  0.0%)    0.003 s ( 0.130 ms/b)
<fg|gg>:           18 b            0 skpd (  0.0%)    0.005 s ( 0.273 ms/b)
<gg|gg>:            6 b            0 skpd (  0.0%)    0.004 s ( 0.725 ms/b)
Recanonicalizing the internal orbitals
Recanonicalizing the virtual orbitals
Time needed for Fock operator              ...            1.248 sec
Reference energy                           ...    -90.071032328
Warning: for UHF the TrafoType has to be JK
Warning: for UHF the K(C)-option cannot be MO but must be AOX

-------------------------------
PARTIAL EXCHANGE TRANSFORMATION
-------------------------------

Transformation type                        ... two-operators
Generation of integrals (i,mue|j,nue)      ... ON
Generation of integrals (mue,kappa|nue,tau)... ON
Generation of integrals (i,mue|a,nue)      ... ON
Dimension of the basis                     ...   88
Number of internal alpha-MOs               ...   10 (   0-   9)
Number of internal beta-MOs                ...    6 (   0-   5)
Number of external alpha-MOs               ...   78 (  10-  87)
Number of external beta-MOs                ...   82 (   6-  87)
Pair cutoff                                ... 0.000e+00 Eh
Number of AO pairs in the trafo            ... 3916
Total Number of distinct AO pairs          ... 3916
Memory devoted for trafo                   ... 2500.0 MB 
Max. Number of MO pairs treated together   ... 42314      
Number Format for Storage                  ... Double (8 Byte)
Integral package used                      ... LIBINT

Starting integral evaluation:
    ... done with AO integral generation
Closing buffer AOK[aa] ( 0.00 GB; CompressionRatio= 0.00)
Closing buffer AOK[bb] ( 0.00 GB; CompressionRatio= 0.00)
Closing buffer AOK[ab] ( 0.00 GB; CompressionRatio= 0.00)
Closing buffer AOK[ba] ( 0.00 GB; CompressionRatio= 0.00)
Collecting buffer AOK 
Closing buffer IAAO1[aa] ( 0.00 GB; CompressionRatio= 0.00)
Closing buffer IAAO1[bb] ( 0.00 GB; CompressionRatio= 0.00)
Closing buffer IAAO1[ab] ( 0.00 GB; CompressionRatio= 0.00)
Closing buffer IAAO1[ba] ( 0.00 GB; CompressionRatio= 0.00)
Closing buffer IAAO2[aa] ( 0.00 GB; CompressionRatio= 0.00)
Closing buffer IAAO2[bb] ( 0.00 GB; CompressionRatio= 0.00)
Closing buffer IAAO2[ab] ( 0.00 GB; CompressionRatio= 0.00)
Closing buffer IAAO2[ba] ( 0.00 GB; CompressionRatio= 0.00)
Collecting buffer IAAO 
Closing buffer PRQS    ( 0.00 GB; CompressionRatio= 0.00)
Collecting buffer PRQS 
Number of alpha/alpha MO pairs in trafo    ...   55
Number of beta /beta  MO pairs in trafo    ...   21
Number of alpha/ beta MO pairs in trafo    ...   60
------------------------
SORTING OF (i,mue|j,nue)
------------------------

SORTING OF ALPHA/ALPHA PAIRS
IBATCH = 1 of  1
Closing buffer KAO[aa] ( 0.00 GB; CompressionRatio= 1.00)
Collecting buffer KAO 
SORTING OF BETA /BETA  PAIRS
IBATCH = 1 of  1
Closing buffer KAO[bb] ( 0.00 GB; CompressionRatio= 1.00)
Collecting buffer KAO 
SORTING OF ALPHA/BETA  PAIRS
IBATCH = 1 of  1
Closing buffer KAO[ab] ( 0.00 GB; CompressionRatio= 0.999806339165)
Collecting buffer KAO[ab] 
------------------------
SORTING OF (i,mue|a,nue)
------------------------

Number of alpha/alpha (i,a) pairs in trafo  ...  780
Number of beta /beta  (i,a) pairs in trafo  ...  492
Number of alpha/ beta (i,a) pairs in trafo  ...  820
Number of beta /alpha (i,a) pairs in trafo  ...  468
Setting up the alpha/alpha list             ... done
Setting up the beta /beta  list             ... done
Setting up the alpha/beta  list             ... done
Setting up the beta /alpha list             ... done
    ... Now sorting (i,mue|a,nue)integrals
    ... Integrals (i,b|a,c) will be made on the fly
SORTING OF ALPHA/ALPHA PAIRS
IBATCH = 1 of  1
Closing buffer IPAQ[aa]  0.00 GB; CompressionRatio= 1.00)
SORTING OF BETA /BETA  PAIRS
IBATCH = 1 of  1
Closing buffer IPAQ[bb]( 0.00 GB; CompressionRatio= 1.00)
SORTING OF ALPHA/BETA  PAIRS (NMatSort_ab=35)
IBATCH = 1 of  1
Closing buffer IPAQ[ab]( 0.00 GB; CompressionRatio= 1.00)
SORTING OF BETA/ALPHA  PAIRS
IBATCH = 1 of  1
Closing buffer IPAQ[ba]( 0.00 GB; CompressionRatio= 1.00)
N(AO-Batches) Done                         ...         0 
N(AO-Batches) Skipped                      ...         0 
N(IJ)-pairs Skipped                        ...         0 
TOTAL TIME for half transformation         ...     7.865 sec
AO-integral generation                     ...     0.000 sec
Half transformation                        ...     0.000 sec
K-integral sorting                         ...     1.373 sec
<ss|**>: 
------------------------------
PARTIAL COULOMB TRANSFORMATION
------------------------------

Transformation type                        ... two-operators
Dimension of the basis                     ...   88
Number of internal alpha-MOs               ...   10 (0-9)
Number of internal beta-MOs                ...    6 (0-5)
Pair cutoff                                ... 0.000e+00 Eh
Number of AO pairs included in the trafo   ... 3916
Total Number of distinct AO pairs          ... 3916
Memory devoted for trafo                   ... 2500.0 MB 
Max. Number of MO pairs treated together   ... 83677      
Max. Number of MOs treated per batch       ...  950      
Number Format for Storage                  ... Double (8 Byte)
AO-integral source                         ... DIRECT
Integral package used                      ... LIBINT

Starting integral evaluation:
<sp|**>:         5313 b        0 skpd     0.052 s (  0.010 ms/b)
<sd|**>:         9108 b        0 skpd     0.172 s (  0.019 ms/b)
        7590 b        0 skpd     0.159 s (  0.021 ms/b)
<sf|**>:         4554 b        0 skpd     0.057 s (  0.013 ms/b)
<sg|**>: <pp|**>:         3036 b        0 skpd     0.082 s (  0.027 ms/b)
        5313 b        0 skpd     0.150 s (  0.028 ms/b)
<pd|**>:         7590 b        0 skpd     0.325 s (  0.043 ms/b)
<pf|**>:         4554 b        0 skpd     0.102 s (  0.022 ms/b)
<pg|**>:         3036 b        0 skpd     0.158 s (  0.052 ms/b)
<dd|**>:         3795 b        0 skpd     0.438 s (  0.116 ms/b)
<df|**>:         3795 b        0 skpd     0.161 s (  0.042 ms/b)
<dg|**>:         2530 b        0 skpd     0.236 s (  0.093 ms/b)
<ff|**>:         1518 b        0 skpd     0.093 s (  0.061 ms/b)
<fg|**>:         1518 b        0 skpd     0.124 s (  0.082 ms/b)
<gg|**>:          759 b        0 skpd     0.140 s (  0.185 ms/b)
Closing buffer AOJ[aa] ( 0.00 GB; CompressionRatio= 0.97)
Closing buffer AOJ[bb] ( 0.00 GB; CompressionRatio= 0.00)
Collecting buffer AOJ 
    ... done with AO integral generation
Number of Alpha-MO pairs included          ...   55
Number of Beta-MO pairs included           ...   21
    ... Now sorting integrals
SORTING ALPHA/ALPHA PAIRS
IBATCH = 1 of  1
Closing buffer JAO[aa] ( 0.00 GB; CompressionRatio= 1.00)
SORTING BETA/BETA PAIRS
IBATCH = 1 of  1
Closing buffer JAO[bb] ( 0.00 GB; CompressionRatio= 1.00)
Collecting buffer JAO 
TOTAL TIME for half transformation         ...     2.618 sec
AO-integral generation                     ...     2.277 sec
Half transformation                        ...     0.183 sec
J-integral sorting                         ...     0.106 sec

-------------------------- SECOND HALF TRANSFORMATION -------------------------
Formation of (ij|kl),(ij|ka), (ij|ab)      ... ok (     0.159 sec)
Formation of (ik|jl),(ik|ja), (ia|jb)      ... ok (     0.261 sec)


-----------------------
SPIN UNRESTRICTED GUESS
-----------------------

Entering MDCI_UHF_Guess, Tailored=0
Spin-components of the MP2 energy:
EMP2(aa)=     -0.115451031
EMP2(bb)=     -0.041210261
EMP2(ab)=     -0.309930980

Initial guess performed in     0.023 sec
E(0)                                       ...    -90.071032328
E(MP2)                                     ...     -0.466592272
Initial E(tot)                             ...    -90.537624600
<T|T>                                      ...      0.129164006
Number of pairs included                   ... 120

------------------------------------------------
                  UHF COUPLED CLUSTER ITERATIONS
------------------------------------------------

Number of amplitudes to be optimized       ...       571716

Iter       E(tot)           E(Corr)          Delta-E          Residual     Time      <S|S>**1/2
  0    -90.537624600     -0.466592272     -0.000000000      0.028327085    1.56      0.000000953
                           *** Turning on DIIS ***
  1    -90.515433856     -0.444401528      0.022190744      0.009509341    1.66      0.036952249
  2    -90.524458529     -0.453426201     -0.009024673      0.006575097    1.66      0.047791301
  3    -90.526612641     -0.455580313     -0.002154112      0.002593456    1.64      0.059585200
  4    -90.527592980     -0.456560652     -0.000980340      0.000740954    1.65      0.066554186
  5    -90.527667990     -0.456635662     -0.000075010      0.000682447    1.65      0.067725076
  6    -90.527685587     -0.456653259     -0.000017597      0.000620444    1.66      0.068148566
  7    -90.527692517     -0.456660189     -0.000006930      0.000521373    1.67      0.068444008
  8    -90.527696108     -0.456663781     -0.000003591      0.000339163    1.68      0.069045639
  9    -90.527713648     -0.456681320     -0.000017539      0.000105794    1.69      0.070262266
 10    -90.527714602     -0.456682274     -0.000000954      0.000036173    1.68      0.070828629
 11    -90.527717538     -0.456685210     -0.000002936      0.000013938    1.67      0.071033220
 12    -90.527716711     -0.456684383      0.000000826      0.000004875    1.66      0.071057009
               --- The Coupled-Cluster iterations have converged ---

----------------------
COUPLED CLUSTER ENERGY
----------------------

E(0)                                       ...    -90.071032328
E(CORR)                                    ...     -0.456684383
E(TOT)                                     ...    -90.527716711
Singles norm <S|S>**1/2                    ...      0.071057009 ( 0.032090770, 0.038966240)  
T1 diagnostic                              ...      0.017764252                              

------------------
LARGEST AMPLITUDES
------------------
   5b->  9b  -1b-> -1b       0.064597
   5b-> 30b  -1b-> -1b       0.063009
   9a-> 16a   5b-> 12b       0.037220
   9a-> 15a   5b-> 11b       0.037217
   5b-> 18b  -1b-> -1b       0.035729
   9a-> 14a   5b-> 10b       0.034678
   9a-> 16a   5b-> 24b       0.033581
   9a-> 15a   5b-> 23b       0.033577
   9a-> 14a   5b-> 22b       0.031492
   9a-> 24a   5b-> 12b       0.030545
   9a-> 23a   5b-> 11b       0.030536
   9a-> 24a   5b-> 24b       0.029281
   9a-> 23a   5b-> 23b       0.029271
   9a-> 10a   5b-> 10b       0.027751
   9a-> 22a   5b-> 10b       0.027417
   9a-> 22a   5b-> 22b       0.026485

----------------------
UHF TRIPLES CORRECTION (Algorithm 1)
----------------------

Multiplier for the singles contribution    ...      1.000000000

SPIN-CASE Alpha-Alpha-Alpha:
10% done
20% done
30% done
40% done
50% done
60% done
70% done
80% done
90% done


SPIN-CASE Beta-Beta-Beta:
10% done
20% done
30% done
40% done
50% done
60% done
70% done
80% done
90% done


SPIN-CASE Alpha-Alpha-Beta:
10% done
20% done
30% done
40% done
50% done
60% done
70% done
80% done
90% done


SPIN-CASE Beta-Beta-Alpha:
10% done
20% done
30% done
40% done
50% done
60% done
70% done
80% done
90% done


Triples Correction (T)                     ...     -0.018082550
    alpha-alpha-alpha ... -0.001553729 (  8.6%)
    alpha-alpha-beta  ... -0.010907837 ( 60.3%)
    alpha-beta -beta  ... -0.005421374 ( 30.0%)
    beta -beta -beta  ... -0.000199609 (  1.1%)
Scaling of triples based on CCSD energies (Peterson et al. Molecular Physics 113, 1551 (2015))
E(T*) = f*E(T) where f = E(F12-CCSD)/E(CCSD) 
f = CCSD (with F12)/ CCSD (without F12)    ...      1.000000000
Scaled triples correction (T)              ...     -0.018082550

Final correlation energy                   ...     -0.474766933
E(CCSD)                                    ...    -90.527716711
E(CCSD(T))                                 ...    -90.545799261



        !!!!!!!!!!!!!!!!!!!!!!!!!!!!!!!!!!!!!!!!!!!!!!!!!!!!!!!!!!!!!!!!!!!!!!!!!! 
        !  Warning: Densities are linearized densities                           !
        !!!!!!!!!!!!!!!!!!!!!!!!!!!!!!!!!!!!!!!!!!!!!!!!!!!!!!!!!!!!!!!!!!!!!!!!!! 

NORM  =      1.146750539 sqrt=     1.070864389
W(HF) =      0.872029239
------------------------------------------------------------------------------
                           ORCA POPULATION ANALYSIS
------------------------------------------------------------------------------
Input electron density              ... 76_Os.mdcip
Input spin density                  ... 76_Os.mdcir
BaseName (.gbw .S,...)              ... 76_Os

                    ********************************
                    * MULLIKEN POPULATION ANALYSIS *
                    ********************************

------------------------------------------
MULLIKEN ATOMIC CHARGES AND SPIN DENSITIES
------------------------------------------
   0 Os:   -0.000000    4.000000
Sum of atomic charges       :   -0.0000000
Sum of atomic spin densities:    4.0000000

---------------------------------------------------
MULLIKEN REDUCED ORBITAL CHARGES AND SPIN DENSITIES
---------------------------------------------------
CHARGE
  0 Oss       :     3.913229  s :     3.913229
      pz      :     2.016581  p :     6.062721
      px      :     2.023058
      py      :     2.023082
      dz2     :     0.995088  d :     5.943675
      dxz     :     0.995291
      dyz     :     0.998897
      dx2y2   :     0.994048
      dxy     :     1.960350
      f0      :     0.008628  f :     0.070512
      f+1     :     0.008844
      f-1     :     0.008859
      f+2     :     0.008396
      f-2     :     0.011166
      f+3     :     0.012309
      f-3     :     0.012309
      g0      :     0.001019  g :     0.009863
      g+1     :     0.001021
      g-1     :     0.001022
      g+2     :     0.000890
      g-2     :     0.001185
      g+3     :     0.001100
      g-3     :     0.001100
      g+4     :     0.001266
      g-4     :     0.001260

SPIN
  0 Oss       :     0.015402  s :     0.015402
      pz      :     0.009980  p :     0.023010
      px      :     0.006521
      py      :     0.006508
      dz2     :     0.978424  d :     3.920660
      dxz     :     0.978470
      dyz     :     0.974850
      dx2y2   :     0.979882
      dxy     :     0.009034
      f0      :     0.006437  f :     0.035588
      f+1     :     0.006224
      f-1     :     0.006210
      f+2     :     0.006523
      f-2     :     0.004139
      f+3     :     0.003027
      f-3     :     0.003028
      g0      :     0.000733  g :     0.005341
      g+1     :     0.000713
      g-1     :     0.000712
      g+2     :     0.000656
      g-2     :     0.000644
      g+3     :     0.000545
      g-3     :     0.000545
      g+4     :     0.000396
      g-4     :     0.000397


                     *******************************
                     * LOEWDIN POPULATION ANALYSIS *
                     *******************************

-----------------------------------------
LOEWDIN ATOMIC CHARGES AND SPIN DENSITIES
-----------------------------------------
   0 Os:   -0.000000    4.000000

--------------------------------------------------
LOEWDIN REDUCED ORBITAL CHARGES AND SPIN DENSITIES
--------------------------------------------------
CHARGE
  0 Oss       :     3.913229  s :     3.913229
      pz      :     2.016581  p :     6.062721
      px      :     2.023058
      py      :     2.023082
      dz2     :     0.995088  d :     5.943675
      dxz     :     0.995291
      dyz     :     0.998897
      dx2y2   :     0.994048
      dxy     :     1.960350
      f0      :     0.008628  f :     0.070512
      f+1     :     0.008844
      f-1     :     0.008859
      f+2     :     0.008396
      f-2     :     0.011166
      f+3     :     0.012309
      f-3     :     0.012309
      g0      :     0.001019  g :     0.009863
      g+1     :     0.001021
      g-1     :     0.001022
      g+2     :     0.000890
      g-2     :     0.001185
      g+3     :     0.001100
      g-3     :     0.001100
      g+4     :     0.001266
      g-4     :     0.001260

SPIN
  0 Oss       :     0.015402  s :     0.015402
      pz      :     0.009980  p :     0.023010
      px      :     0.006521
      py      :     0.006508
      dz2     :     0.978424  d :     3.920660
      dxz     :     0.978470
      dyz     :     0.974850
      dx2y2   :     0.979882
      dxy     :     0.009034
      f0      :     0.006437  f :     0.035588
      f+1     :     0.006224
      f-1     :     0.006210
      f+2     :     0.006523
      f-2     :     0.004139
      f+3     :     0.003027
      f-3     :     0.003028
      g0      :     0.000733  g :     0.005341
      g+1     :     0.000713
      g-1     :     0.000712
      g+2     :     0.000656
      g-2     :     0.000644
      g+3     :     0.000545
      g-3     :     0.000545
      g+4     :     0.000396
      g-4     :     0.000397


                      *****************************
                      * MAYER POPULATION ANALYSIS *
                      *****************************

  NA   - Mulliken gross atomic population
  ZA   - Total nuclear charge
  QA   - Mulliken gross atomic charge
  VA   - Mayer's total valence
  BVA  - Mayer's bonded valence
  FA   - Mayer's free valence

  ATOM       NA         ZA         QA         VA         BVA        FA
  0 Os    16.0000    16.0000    -0.0000     4.8787     0.0000     4.8787





------------------------------------------------------------------------------- 
                                     TIMINGS                                   
------------------------------------------------------------------------------- 


Total execution time                   ...       35.489 sec

Fock Matrix Formation                  ...        1.248 sec (  3.5%)
Initial Guess                          ...        0.023 sec (  0.1%)
DIIS Solver                            ...        0.603 sec (  1.7%)
State Vector Update                    ...        0.029 sec (  0.1%)
Sigma-vector construction              ...       20.910 sec ( 58.9%)
  <0|H|D>                              ...        0.002 sec (  0.0% of sigma)
  <D|H|D>(0-ext Fock)                  ...        0.010 sec (  0.0% of sigma)
  <D|H|D>(0-ext)                       ...        0.037 sec (  0.2% of sigma)
  <D|H|D>(2-ext Fock)                  ...        0.003 sec (  0.0% of sigma)
  <D|H|D>(2-ext)                       ...        0.132 sec (  0.6% of sigma)
  <D|H|D>(4-ext)                       ...        3.733 sec ( 17.9% of sigma)
  <S|H|0>                              ...        0.260 sec (  1.2% of sigma)
  <S|H|S>                              ...        0.001 sec (  0.0% of sigma)
  <S|H|D>(1-ext)                       ...        0.003 sec (  0.0% of sigma)
  <D|H|S>(1-ext)                       ...        0.051 sec (  0.2% of sigma)
  Fock-dressing                        ...       14.761 sec ( 70.6% of sigma)
  (ik|jl)-dressing                     ...        0.046 sec (  0.2% of sigma)
  (ij|ab),(ia|jb)-dressing             ...        1.484 sec (  7.1% of sigma)
  Pair energies                        ...        0.003 sec (  0.0% of sigma)
Total Time for computing (T)           ...        0.918 sec (  2.6% of ALL)
  I/O of integral and amplitudes       ...        0.200 sec ( 21.8% of (T))
  External N**7 contributions          ...        0.250 sec ( 27.2% of (T))
  Internal N**7 contributions          ...        0.135 sec ( 14.7% of (T))
  N**6 triples energy contributions    ...        0.304 sec ( 33.1% of (T))


-------------------------   --------------------
FINAL SINGLE POINT ENERGY       -90.545799261032
-------------------------   --------------------


                            ***************************************
                            *     ORCA property calculations      *
                            ***************************************

                                    ---------------------
                                    Active property flags
                                    ---------------------
   (+) Dipole Moment


------------------------------------------------------------------------------
                       ORCA ELECTRIC PROPERTIES CALCULATION
------------------------------------------------------------------------------

Dipole Moment Calculation                       ... on
Quadrupole Moment Calculation                   ... off
Polarizability Calculation                      ... off
GBWName                                         ... 76_Os.gbw
Electron density file                           ... 76_Os.scfp
The origin for moment calculation is the CENTER OF MASS  = ( 0.000000,  0.000000  0.000000)

-------------
DIPOLE MOMENT
-------------
                                X             Y             Z
Electronic contribution:      0.00000      -0.00000      -0.00000
Nuclear contribution   :      0.00000       0.00000       0.00000
                        -----------------------------------------
Total Dipole Moment    :      0.00000      -0.00000      -0.00000
                        -----------------------------------------
Magnitude (a.u.)       :      0.00000
Magnitude (Debye)      :      0.00000



--------------------
Rotational spectrum 
--------------------
 
Rotational constants in cm-1:     0.000000     0.000000     0.000000 
Rotational constants in MHz :     0.000000     0.000000     0.000000 

 Dipole components along the rotational axes: 
x,y,z [a.u.] :     0.000000    -0.000000    -0.000000 
x,y,z [Debye]:     0.000000    -0.000000    -0.000000 

 

                           *** MDCI DENSITY ***

------------------------------------------------------------------------------
                       ORCA ELECTRIC PROPERTIES CALCULATION
------------------------------------------------------------------------------

Dipole Moment Calculation                       ... on
Quadrupole Moment Calculation                   ... off
Polarizability Calculation                      ... off
GBWName                                         ... 76_Os.gbw
Electron density file                           ... 76_Os.mdcip
The origin for moment calculation is the CENTER OF MASS  = ( 0.000000,  0.000000  0.000000)

-------------
DIPOLE MOMENT
-------------
                                X             Y             Z
Electronic contribution:     -0.00000       0.00000       0.00000
Nuclear contribution   :      0.00000       0.00000       0.00000
                        -----------------------------------------
Total Dipole Moment    :     -0.00000       0.00000       0.00000
                        -----------------------------------------
Magnitude (a.u.)       :      0.00000
Magnitude (Debye)      :      0.00000



--------------------
Rotational spectrum 
--------------------
 
Rotational constants in cm-1:     0.000000     0.000000     0.000000 
Rotational constants in MHz :     0.000000     0.000000     0.000000 

 Dipole components along the rotational axes: 
x,y,z [a.u.] :    -0.000000     0.000000     0.000000 
x,y,z [Debye]:    -0.000000     0.000000     0.000000 

 

Timings for individual modules:

Sum of individual times         ...       69.745 sec (=   1.162 min)
GTO integral calculation        ...        1.124 sec (=   0.019 min)   1.6 %
SCF iterations                  ...       32.462 sec (=   0.541 min)  46.5 %
MDCI module                     ...       36.160 sec (=   0.603 min)  51.8 %
                             ****ORCA TERMINATED NORMALLY****
TOTAL RUN TIME: 0 days 0 hours 1 minutes 10 seconds 566 msec
