
                                 *****************
                                 * O   R   C   A *
                                 *****************

           --- An Ab Initio, DFT and Semiempirical electronic structure package ---

                  #######################################################
                  #                        -***-                        #
                  #          Department of theory and spectroscopy      #
                  #               Directorship: Frank Neese             #
                  #        Max Planck Institute fuer Kohlenforschung    #
                  #                Kaiser Wilhelm Platz 1               #
                  #                 D-45470 Muelheim/Ruhr               #
                  #                      Germany                        #
                  #                                                     #
                  #                  All rights reserved                #
                  #                        -***-                        #
                  #######################################################


                         Program Version 4.2.0 -  RELEASE  -


 With contributions from (in alphabetic order):
   Daniel Aravena         : Magnetic Suceptibility
   Michael Atanasov       : Ab Initio Ligand Field Theory (pilot matlab implementation)
   Alexander A. Auer      : GIAO ZORA, VPT2
   Ute Becker             : Parallelization
   Giovanni Bistoni       : ED, misc. LED, open-shell LED, HFLED
   Martin Brehm           : Molecular dynamics
   Dmytro Bykov           : SCF Hessian
   Vijay G. Chilkuri      : MRCI spin determinant printing, contributions to CSF-ICE
   Dipayan Datta          : RHF DLPNO-CCSD density
   Achintya Kumar Dutta   : EOM-CC, STEOM-CC
   Dmitry Ganyushin       : Spin-Orbit,Spin-Spin,Magnetic field MRCI
   Miquel Garcia          : C-PCM Hessian, Gaussian charge scheme
   Yang Guo               : DLPNO-NEVPT2, CIM, IAO-localization
   Andreas Hansen         : Spin unrestricted coupled pair/coupled cluster methods
   Benjamin Helmich-Paris : CASSCF linear response (MC-RPA)
   Lee Huntington         : MR-EOM, pCC
   Robert Izsak           : Overlap fitted RIJCOSX, COSX-SCS-MP3, EOM
   Christian Kollmar      : KDIIS, OOCD, Brueckner-CCSD(T), CCSD density
   Simone Kossmann        : Meta GGA functionals, TD-DFT gradient, OOMP2, MP2 Hessian
   Martin Krupicka        : AUTO-CI
   Lucas Lang             : DCDCAS
   Dagmar Lenk            : GEPOL surface, SMD
   Dimitrios Liakos       : Extrapolation schemes; Compound Job, initial MDCI parallelization
   Dimitrios Manganas     : Further ROCIS development; embedding schemes
   Dimitrios Pantazis     : SARC Basis sets
   Taras Petrenko         : DFT Hessian,TD-DFT gradient, ASA, ECA, R-Raman, ABS, FL, XAS/XES, NRVS
   Peter Pinski           : DLPNO-MP2, DLPNO-MP2 Gradient
   Christoph Reimann      : Effective Core Potentials
   Marius Retegan         : Local ZFS, SOC
   Christoph Riplinger    : Optimizer, TS searches, QM/MM, DLPNO-CCSD(T), (RO)-DLPNO pert. Triples
   Tobias Risthaus        : Range-separated hybrids, TD-DFT gradient, RPA, STAB
   Michael Roemelt        : Original ROCIS implementation
   Masaaki Saitow         : Open-shell DLPNO-CCSD energy and density
   Barbara Sandhoefer     : DKH picture change effects
   Avijit Sen             : IP-ROCIS
   Kantharuban Sivalingam : CASSCF convergence, NEVPT2, FIC-MRCI
   Bernardo de Souza      : ESD, SOC TD-DFT
   Georgi Stoychev        : AutoAux, RI-MP2 NMR
   Willem Van den Heuvel  : Paramagnetic NMR
   Boris Wezisla          : Elementary symmetry handling
   Frank Wennmohs         : Technical directorship


 We gratefully acknowledge several colleagues who have allowed us to
 interface, adapt or use parts of their codes:
   Stefan Grimme, W. Hujo, H. Kruse,             : VdW corrections, initial TS optimization,
                  C. Bannwarth                     DFT functionals, gCP, sTDA/sTD-DF
   Ed Valeev, F. Pavosevic, A. Kumar             : LibInt (2-el integral package), F12 methods
   Garnet Chan, S. Sharma, J. Yang, R. Olivares  : DMRG
   Ulf Ekstrom                                   : XCFun DFT Library
   Mihaly Kallay                                 : mrcc  (arbitrary order and MRCC methods)
   Andreas Klamt, Michael Diedenhofen            : otool_cosmo (COSMO solvation model)
   Jiri Pittner, Ondrej Demel                    : Mk-CCSD
   Frank Weinhold                                : gennbo (NPA and NBO analysis)
   Christopher J. Cramer and Donald G. Truhlar   : smd solvation model
   Lars Goerigk                                  : TD-DFT with DH, B97 family of functionals
   V. Asgeirsson, H. Jonsson                     : NEB implementation
   FAccTs GmbH                                   : IRC, NEB, NEB-TS, Multilevel, MM, QM/MM, CI optimization
   S Lehtola, MJT Oliveira, MAL Marques          : LibXC Library


 Your calculation uses the libint2 library for the computation of 2-el integrals
 For citations please refer to: http://libint.valeyev.net

 Your ORCA version has been built with support for libXC version: 4.2.3
 For citations please refer to: https://tddft.org/programs/libxc/

 This ORCA versions uses:
   CBLAS   interface :  Fast vector & matrix operations
   LAPACKE interface :  Fast linear algebra routines
   SCALAPACK package :  Parallel linear algebra routines


----- Orbital basis set information -----
Your calculation utilizes the basis: def2-SVP
   F. Weigend and R. Ahlrichs, Phys. Chem. Chem. Phys. 7, 3297 (2005).

----- AuxJ basis set information -----
Your calculation utilizes the auxiliary basis: def2/J
   F. Weigend, Phys. Chem. Chem. Phys. 8, 1057 (2006).

================================================================================
                                        WARNINGS
                       Please study these warnings very carefully!
================================================================================


INFO   : the flag for use of LIBINT has been found!

================================================================================
                                       INPUT FILE
================================================================================
NAME = 77_Ir_atom77.inp
|  1> # input to generate an atomic fitting density for Ir
|  2> # this file is use internally by ORCA
|  3> #
|  4> # atomic ground state (S=4): 1s2 2s2 2p6 3s2 3p6 4s2 3d10 4p6 5s2 4d10 5p6 6s2 4f14 5d7 
|  5> #
|  6> ! RHF AllowRHF def2-SVP def2/J  NoMulliken NoLoewdin NoMayer NoPrintMOs 
|  7> 
|  8> %output print[p_atomdensfit] 2 end
|  9> 
| 10> %scf
| 11>   guess hcore
| 12>   maxiter 1000
| 13>   maxdisk 500000
| 14>   SCFMode Conventional
| 15>   lshift 1.000000
| 16>   hftyp rohf
| 17>   rohf_case sahf
| 18>   rohf_numop   2
| 19>   rohf_norb[1] 5
| 20>   rohf_nel[1]  7
| 21> end
| 22> 
| 23> %basis
| 24>   NewECP 77
| 25>     N_core 60
| 26>     lmax h
| 27>     s 2
| 28>       1      13.8314740000    426.9581490000  2
| 29>       2       7.0479140000     65.3388130000  2
| 30>     p 4
| 31>       1      11.1064330000     88.0754420000  2
| 32>       2      10.4565520000    176.1247700000  2
| 33>       3       6.3796140000     12.6822600000  2
| 34>       4       5.0647260000     24.6359490000  2
| 35>     d 4
| 36>       1       7.5487540000     46.4332580000  2
| 37>       2       7.2653080000     69.6380740000  2
| 38>       3       3.8009690000      6.1502480000  2
| 39>       4       3.7182800000      9.4635600000  2
| 40>     f 2
| 41>       1       3.0987060000      9.4836100000  2
| 42>       2       3.0494610000     12.6427420000  2
| 43>     g 2
| 44>       1       4.9697900000    -10.4106970000  2
| 45>       2       4.9356140000    -12.8631960000  2
| 46>     h 1
| 47>       1       1.0000000000      0.0000000000  2
| 48>   end
| 49>   NewGTO 77
| 50>     s 9 
| 51>      1      34.2048000000      0.0173430148
| 52>      2      21.3768000000     -0.1533180548
| 53>      3      13.3624000000      0.4422648898
| 54>      4       8.3483500000     -0.1888337069
| 55>      5       4.7316300000     -0.7127598779
| 56>      6       1.3078500000      0.8535455280
| 57>      7       0.6243340000      0.5001213071
| 58>      8       0.1938710000      0.0352754718
| 59>      9       0.0879490000     -0.0070833155
| 60>     s 9 
| 61>      1      34.2048000000     -0.0079013542
| 62>      2      21.3768000000      0.0709489203
| 63>      3      13.3624000000     -0.2114603043
| 64>      4       8.3483500000      0.1058539194
| 65>      5       4.7316300000      0.3391670441
| 66>      6       1.3078500000     -0.5579414665
| 67>      7       0.6243340000     -0.4586682784
| 68>      8       0.1938710000      0.3687092344
| 69>      9       0.0879490000      0.8618374765
| 70>     s 9 
| 71>      1      34.2048000000      0.0060504308
| 72>      2      21.3768000000      0.0198347984
| 73>      3      13.3624000000     -0.1166374460
| 74>      4       8.3483500000     -0.1339905062
| 75>      5       4.7316300000      0.8360623332
| 76>      6       1.3078500000     -1.8074515749
| 77>      7       0.6243340000      0.4652823778
| 78>      8       0.1938710000      2.2295391839
| 79>      9       0.0879490000     -1.3076000074
| 80>     s 9 
| 81>      1      34.2048000000     -0.0078972077
| 82>      2      21.3768000000      0.0084418427
| 83>      3      13.3624000000      0.0249442836
| 84>      4       8.3483500000      0.1487398222
| 85>      5       4.7316300000     -0.6078126752
| 86>      6       1.3078500000      1.7571559444
| 87>      7       0.6243340000     -1.6872792722
| 88>      8       0.1938710000     -0.1048967036
| 89>      9       0.0879490000      1.3314692178
| 90>     s 1 
| 91>      1       0.0375390000      1.0000000000
| 92>     s 1 
| 93>      1       0.0160000000      1.0000000000
| 94>     p 8 
| 95>      1      20.7204000000     -0.0132019346
| 96>      2      12.9677000000      0.0739516337
| 97>      3       5.7222400000     -0.2843105916
| 98>      4       1.5503800000      0.5102204724
| 99>      5       0.7826600000      0.4794996246
|100>      6       0.3855150000      0.1697711590
|101>      7       0.1706090000      0.0166679174
|102>      8       0.0728290000      0.0012419938
|103>     p 8 
|104>      1      20.7204000000      0.0041890080
|105>      2      12.9677000000     -0.0256100718
|106>      3       5.7222400000      0.1060247453
|107>      4       1.5503800000     -0.2289887918
|108>      5       0.7826600000     -0.2486830799
|109>      6       0.3855150000      0.0055611462
|110>      7       0.1706090000      0.4556093661
|111>      8       0.0728290000      0.6425878816
|112>     p 8 
|113>      1      20.7204000000      0.0068724587
|114>      2      12.9677000000     -0.0422933631
|115>      3       5.7222400000      0.1774169975
|116>      4       1.5503800000     -0.4207533127
|117>      5       0.7826600000     -0.4388648753
|118>      6       0.3855150000      0.4040679205
|119>      7       0.1706090000      0.7058892396
|120>      8       0.0728290000      0.1695309964
|121>     p 8 
|122>      1      20.7204000000      0.0121165691
|123>      2      12.9677000000     -0.0721268054
|124>      3       5.7222400000      0.3113487398
|125>      4       1.5503800000     -1.1222580565
|126>      5       0.7826600000      0.0092615040
|127>      6       0.3855150000      1.6492948940
|128>      7       0.1706090000     -0.6512042373
|129>      8       0.0728290000     -0.6151478176
|130>     p 1 
|131>      1       0.0305710000      1.0000000000
|132>     p 1 
|133>      1       0.0128000000      1.0000000000
|134>     d 7 
|135>      1      91.4125000000      0.0000244741
|136>      2       9.7301300000      0.0155175890
|137>      3       6.0771200000     -0.0670222790
|138>      4       1.6882000000      0.2386274175
|139>      5       0.8237860000      0.3921309117
|140>      6       0.3820680000      0.3628782629
|141>      7       0.1669650000      0.2161632677
|142>     d 7 
|143>      1      91.4125000000     -0.0000162640
|144>      2       9.7301300000     -0.0229110054
|145>      3       6.0771200000      0.0976116672
|146>      4       1.6882000000     -0.4071585789
|147>      5       0.8237860000     -0.5997609033
|148>      6       0.3820680000      0.1740851076
|149>      7       0.1669650000      0.7295465630
|150>     d 7 
|151>      1      91.4125000000     -0.0000091614
|152>      2       9.7301300000      0.0350583247
|153>      3       6.0771200000     -0.1490774697
|154>      4       1.6882000000      0.8894523961
|155>      5       0.8237860000      0.1198366235
|156>      6       0.3820680000     -1.2141867996
|157>      7       0.1669650000      0.1943541727
|158>     d 1 
|159>      1       0.0672310000      1.0000000000
|160>     d 1 
|161>      1       0.0271000000      1.0000000000
|162>   end
|163>   NewAuxGTO 77
|164>     S 1
|165>      1 1310.72 1.0
|166>     S 1
|167>      1  655.36 1.0
|168>     S 1
|169>      1  327.68 1.0
|170>     S 1
|171>      1  163.84 1.0
|172>     S 1
|173>      1   81.82 1.0
|174>     S 1
|175>      1   40.96 1.0
|176>     S 1
|177>      1   20.48 1.0
|178>     S 1
|179>      1   10.24 1.0
|180>     S 1
|181>      1    5.12 1.0
|182>     S 1
|183>      1    2.56 1.0
|184>     S 1
|185>      1    1.28 1.0
|186>     S 1
|187>      1    0.64 1.0
|188>     S 1
|189>      1    0.32 1.0
|190>     S 1
|191>      1    0.16 1.0
|192>     S 1
|193>      1    0.08 1.0
|194>     S 1
|195>      1    0.04 1.0
|196>     S 1
|197>      1    0.02 1.0
|198>     S 1
|199>      1    0.01 1.0
|200>   end
|201> end
|202> 
|203> * xyz 0 4
|204> 77  0.0 0.0 0.0
|205> *
|206> 
|207> 
|208>                          ****END OF INPUT****
================================================================================

                       ****************************
                       * Single Point Calculation *
                       ****************************

---------------------------------
CARTESIAN COORDINATES (ANGSTROEM)
---------------------------------
  Ir     0.000000    0.000000    0.000000

----------------------------
CARTESIAN COORDINATES (A.U.)
----------------------------
  NO LB      ZA    FRAG     MASS         X           Y           Z
   0 Ir   17.0000*   0   192.220    0.000000    0.000000    0.000000
* core charge reduced due to ECP

--------------------------------
INTERNAL COORDINATES (ANGSTROEM)
--------------------------------
 Ir     0   0   0     0.000000000000     0.00000000     0.00000000

---------------------------
INTERNAL COORDINATES (A.U.)
---------------------------
 Ir     0   0   0     0.000000000000     0.00000000     0.00000000

---------------------
BASIS SET INFORMATION
---------------------
There are 1 groups of distinct atoms

 Group   1 Type Ir  : 38s34p23d contracted to 6s6p5d pattern {999911/888811/77711}

Atom   0Ir   basis set group =>   1
---------------------------------
AUXILIARY/J BASIS SET INFORMATION
---------------------------------
There are 1 groups of distinct atoms

 Group   1 Type Ir  : 18s contracted to 18s pattern {111111111111111111}

Atom   0Ir   basis set group =>   1
-------------------------
ECP PARAMETER INFORMATION
-------------------------

 Group 1, Type Ir ECP (replacing 60 core electrons, lmax=5)

Atom   0Ir   ECP group =>   1

------------------------------------------------------------------------------
                           ORCA GTO INTEGRAL CALCULATION
------------------------------------------------------------------------------

                         BASIS SET STATISTICS AND STARTUP INFO

 # of primitive gaussian shells          ...   95
 # of primitive gaussian functions       ...  255
 # of contracted shells                  ...   17
 # of contracted basis functions         ...   49
 Highest angular momentum                ...    2
 Maximum contraction depth               ...    9
 Integral package used                   ... LIBINT
 Integral threshhold            Thresh   ...  1.000e-10
 Primitive cut-off              TCut     ...  1.000e-11
 Storage cut-off                TCutStore... -1.000e+00
 Buffer length                           ... 1048576 integrals/buffer
 Generate file with integrals 4 distinct ...false


------------------------------ INTEGRAL EVALUATION ----------------------------


 * One electron integrals 

   ECP integrals                         ... done
 Pre-screening matrix                    ... done
 Shell pair data                         ... done (   0.000 sec)
 Statistics run                          ... done
 Maximum amount of storage needed        ...     8 MB
 Maximum amount of storage dedicated     ... 500000 MB
 Beginning two electron integral evaluation:
 Starting repulsion integrals
  <ss|ss>  ...          231 b.         0 skpd (  0.0%)     0.004 s. (  0.018 ms/b)
  <ss|sp>  ...          756 b.         0 skpd (  0.0%)     0.025 s. (  0.033 ms/b)
  <ss|sd>  ...          630 b.         0 skpd (  0.0%)     0.061 s. (  0.097 ms/b)
  <ss|pp>  ...          441 b.         0 skpd (  0.0%)     0.051 s. (  0.115 ms/b)
  <ss|pd>  ...          630 b.         0 skpd (  0.0%)     0.076 s. (  0.121 ms/b)
  <ss|dd>  ...          315 b.         0 skpd (  0.0%)     0.051 s. (  0.161 ms/b)
  <sp|sp>  ...          666 b.         0 skpd (  0.0%)     0.072 s. (  0.108 ms/b)
  <sp|sd>  ...         1080 b.         0 skpd (  0.0%)     0.129 s. (  0.120 ms/b)
  <sp|pp>  ...          756 b.         0 skpd (  0.0%)     0.116 s. (  0.154 ms/b)
  <sp|pd>  ...         1080 b.         0 skpd (  0.0%)     0.221 s. (  0.205 ms/b)
  <sp|dd>  ...          540 b.         0 skpd (  0.0%)     0.168 s. (  0.311 ms/b)
  <sd|sd>  ...          465 b.         0 skpd (  0.0%)     0.090 s. (  0.195 ms/b)
  <sd|pp>  ...          630 b.         0 skpd (  0.0%)     0.164 s. (  0.260 ms/b)
  <sd|pd>  ...          900 b.         0 skpd (  0.0%)     0.334 s. (  0.371 ms/b)
  <sd|dd>  ...          450 b.         0 skpd (  0.0%)     0.266 s. (  0.590 ms/b)
  <pp|pp>  ...          231 b.         0 skpd (  0.0%)     0.078 s. (  0.337 ms/b)
  <pp|pd>  ...          630 b.         0 skpd (  0.0%)     0.279 s. (  0.443 ms/b)
  <pp|dd>  ...          315 b.         0 skpd (  0.0%)     0.230 s. (  0.730 ms/b)
  <pd|pd>  ...          465 b.         0 skpd (  0.0%)     0.378 s. (  0.812 ms/b)
  <pd|dd>  ...          450 b.         0 skpd (  0.0%)     0.563 s. (  1.252 ms/b)
  <dd|dd>  ...          120 b.         0 skpd (  0.0%)     0.278 s. (  2.321 ms/b)


                                      INTEGRAL STATISTICS

Integral type statistics:
 Number of integrals retained            ...     750925 
 One   Center Integrals retained         ...     750925 (100.0%)
 Two   Center Integrals retained         ...          0 (  0.0%)
 Three Center Integrals retained         ...          0 (  0.0%)
 Four  Center Integrals retained         ...          0 (  0.0%)

Storage statistics:
 Number of char integrals                ...          0 (  0.0%)
 Number of short int integrals           ...          0 (  0.0%)
 Number of double/float integrals        ...     750925 (100.0%)
 Amount of memory used                   ...          9 MB
 Amount of memory estimated              ...          8 MB ( 95.6%)

Prescreening statistics:
 Total number of shell quadruples        ...      11781 
 Number of skipped shell quadruples      ...          0 (  0.0%)
 # of negligible batches done            ...          0 (  0.0%)

Timings:
 Total evaluation time               ...     3.968 sec (   0.066 min)
 One electron matrix time            ...     0.027 sec (   0.000 min) =  0.7%
 Schwartz matrix evaluation time     ...     0.221 sec (   0.004 min) =  5.6%
 Statistics run                      ...     0.006 sec (   0.000 min) =  0.1%
 Repulsion integral time             ...     3.635 sec (   0.061 min) = 91.6%

-------------------------------------------------------------------------------
                                 ORCA SCF
-------------------------------------------------------------------------------

------------
SCF SETTINGS
------------
Hamiltonian:
 Ab initio Hamiltonian  Method          .... Hartree-Fock(GTOs)


General Settings:
 Integral files         IntName         .... 77_Ir_atom77
 Hartree-Fock type      HFTyp           .... ROHF
 Total Charge           Charge          ....    0
 Multiplicity           Mult            ....    4
 Number of Electrons    NEL             ....   17
 Basis Dimension        Dim             ....   49
 Nuclear Repulsion      ENuc            ....      0.0000000000 Eh

Convergence Acceleration:
 DIIS                   CNVDIIS         .... on
   Start iteration      DIISMaxIt       ....    12
   Startup error        DIISStart       ....  0.200000
   # of expansion vecs  DIISMaxEq       ....     5
   Bias factor          DIISBfac        ....   1.050
   Max. coefficient     DIISMaxC        ....  10.000
 Newton-Raphson         CNVNR           .... off
 SOSCF                  CNVSOSCF        .... off
 Level Shifting         CNVShift        .... on
   Level shift para.    LevelShift      ....    1.0000
   Turn off err/grad.   ShiftErr        ....    0.0010
 Zerner damping         CNVZerner       .... off
 Static damping         CNVDamp         .... on
   Fraction old density DampFac         ....    0.7000
   Max. Damping (<1)    DampMax         ....    0.9800
   Min. Damping (>=0)   DampMin         ....    0.0000
   Turn off err/grad.   DampErr         ....    0.1000
 Fernandez-Rico         CNVRico         .... off

SCF Procedure:
 Maximum # iterations   MaxIter         ....  1000
 SCF integral mode      SCFMode         .... Conventional
 Integral Threshold     Thresh          ....  1.000e-10 Eh
 Primitive CutOff       TCut            ....  1.000e-11 Eh
 Integral Buffer length BufferLength    .... 1048576
 Integral index format  IndFormat       ....     0
 Integral value format  ValFormat       ....     0
 Integral Storage       Thresh          ....  1.000e-10 Eh

Convergence Tolerance:
 Convergence Check Mode ConvCheckMode   .... Total+1el-Energy
 Convergence forced     ConvForced      .... 0
 Energy Change          TolE            ....  1.000e-06 Eh
 1-El. energy change                    ....  1.000e-03 Eh
 DIIS Error             TolErr          ....  1.000e-06


Diagonalization of the overlap matrix:
Smallest eigenvalue                        ... 3.958e-03
Time for diagonalization                   ...    0.001 sec
Threshold for overlap eigenvalues          ... 1.000e-08
Number of eigenvalues below threshold      ... 0
Time for construction of square roots      ...    0.003 sec
Total time needed                          ...    0.004 sec

--------------------
INITIAL GUESS: HCORE
--------------------
AVERAGE-CONFIGURATION (SAHF) CASE FOUND

-------------------
FINAL ROHF SETTINGS
-------------------
Number of operators             ... 2
  operator   0:   5 orbitals  10 electrons n(mue)= 2.000
  operator   1:   5 orbitals   7 electrons n(mue)= 1.400
Vector coupling coefficients a and b (Zerner convention):
   1.000    1.000           1.000    1.000 
   1.000    0.969           1.000    1.122 

                      -----------------
                      INTIAL GUESS DONE 
                      -----------------

 InCore treatment chosen:
   Memory dedicated               ...    1024 MB
   Memory needed                  ...      9 MB
   Number of tiny    integrals    ...       0
   Number of small   integrals    ...       0
   Number of regular integrals    ...  750925

--------------
SCF ITERATIONS
--------------
ITER       Energy         Delta-E        Max-DP      RMS-DP      [F,P]     Damp
  0    -93.0378170301   0.000000000000 1.15214809  0.03002252  1.3483612 0.7000
  1    -99.9712484348  -6.933431404667 0.73366147  0.01887397  0.3579500 0.7000
                            ****Activating DIIS****
  2    -99.2109096308   0.760338803938 0.41545192  0.01086932  0.1121315 0.7000
  3    -98.6555015546   0.555408076251 0.27756107  0.00735639  0.1368192 0.7000
  4    -98.2569462679   0.398555286701 0.20077594  0.00527376  0.1825331 0.7000
  5    -97.9373935578   0.319552710058 0.14329180  0.00376226  0.2375609 0.7000
  6    -97.6976803055   0.239713252296 0.09810812  0.00259274  0.2715976 0.7000
  7    -97.5503198917   0.147360413791 0.08734845  0.00229600  0.2960043 0.7000
  8    -97.5911833483  -0.040863456537 0.07149999  0.00186259  0.3180131 0.7000
  9    -97.6478968733  -0.056713525030 0.06018752  0.00167230  0.2823419 0.7000
 10    -97.4585790182   0.189317855136 0.92468906  0.02182474  0.3158987 0.7000
 11   -102.9580641056  -5.499485087420 0.65692855  0.01562503  0.1372845 0.7000
 12   -103.0514494819  -0.093385376329 1.53896180  0.03676858  0.0340448 0.0000
 13   -103.1647280942  -0.113278612286 0.00103761  0.00003977  0.2016680 0.7000
 14   -103.1533924447   0.011335649496 0.00059874  0.00002483  0.2047782 0.7000
 15   -103.1520572521   0.001335192617 0.00044663  0.00001846  0.2047774 0.7000
 16   -103.1505121306   0.001545121435 0.00077960  0.00002585  0.2049366 0.7000
 17   -103.1467206686   0.003791462042 0.02498981  0.00106313  0.2057886 0.7000
 18   -103.3991407937  -0.252420125134 0.04210129  0.00167065  0.1173289 0.7000
 19   -103.4966579955  -0.097517201772 0.10966084  0.00457256  0.0329929 0.0000
 20   -103.5640184643  -0.067360468778 0.03797333  0.00151757  0.0588216 0.0000
 21   -103.5766594645  -0.012641000210 0.02613779  0.00082971  0.0288278 0.0000
 22   -103.5845642964  -0.007904831906 0.01280463  0.00045845  0.0179300 0.0000
 23   -103.5872719756  -0.002707679202 0.00762142  0.00033573  0.0065664 0.0000
 24   -103.5878068231  -0.000534847459 0.01163217  0.00036285  0.0050075 0.0000
 25   -103.5882272120  -0.000420388935 0.00983714  0.00022015  0.0033890 0.0000
 26   -103.5883576016  -0.000130389554 0.00705610  0.00015506  0.0021070 0.0000
 27   -103.5884071504  -0.000049548882 0.00690391  0.00016988  0.0013623 0.0000
 28   -103.5884355286  -0.000028378205 0.00338987  0.00008574  0.0006957 0.0000
 29   -103.5884421175  -0.000006588893 0.00181577  0.00004381  0.0006756 0.0000
 30   -103.5884438996  -0.000001782030 0.00072458  0.00001697  0.0006757 0.0000
                 **** Energy Check signals convergence ****

               *****************************************************
               *                     SUCCESS                       *
               *           SCF CONVERGED AFTER  31 CYCLES          *
               *****************************************************


----------------
TOTAL SCF ENERGY
----------------

Total Energy       :         -103.58844439 Eh           -2818.78488 eV

Components:
Nuclear Repulsion  :            0.00000000 Eh               0.00000 eV
Electronic Energy  :         -103.58844439 Eh           -2818.78488 eV
One Electron Energy:         -180.90990943 Eh           -4922.80891 eV
Two Electron Energy:           77.32146503 Eh            2104.02403 eV

Virial components:
Potential Energy   :         -138.87798113 Eh           -3779.06199 eV
Kinetic Energy     :           35.28953674 Eh             960.27711 eV
Virial Ratio       :            3.93538692


---------------
SCF CONVERGENCE
---------------

  Last Energy change         ...   -4.9332e-07  Tolerance :   1.0000e-06
  Last MAX-Density change    ...    2.1973e-04  Tolerance :   1.0000e-05
  Last RMS-Density change    ...    6.6352e-06  Tolerance :   1.0000e-06
  Last DIIS Error            ...    6.7543e-04  Tolerance :   1.0000e-06

             **** THE GBW FILE WAS UPDATED (77_Ir_atom77.gbw) ****
             **** DENSITY FILE WAS UPDATED (77_Ir_atom77.scfp) ****
             **** ENERGY FILE WAS UPDATED (77_Ir_atom77.en.tmp) ****
             **** THE GBW FILE WAS UPDATED (77_Ir_atom77.gbw) ****
             **** DENSITY FILE WAS UPDATED (77_Ir_atom77.scfp) ****
----------------
ORBITAL ENERGIES
----------------

  NO   OCC          E(Eh)            E(eV) 
   0   2.0000      -4.154220      -113.0421 
   1   2.0000      -2.409027       -65.5529 
   2   2.0000      -2.403838       -65.4118 
   3   2.0000      -2.401123       -65.3379 
   4   2.0000      -0.388357       -10.5677 
   5   1.4000      -0.424958       -11.5637 
   6   1.4000      -0.422199       -11.4886 
   7   1.4000      -0.415919       -11.3177 
   8   1.4000      -0.403929       -10.9915 
   9   1.4000      -0.299737        -8.1563 
  10   0.0000      -0.003187        -0.0867 
  11   0.0000      -0.002024        -0.0551 
  12   0.0000      -0.001450        -0.0394 
  13   0.0000       0.013926         0.3789 
  14   0.0000       0.031524         0.8578 
  15   0.0000       0.033847         0.9210 
  16   0.0000       0.035066         0.9542 
  17   0.0000       0.058088         1.5807 
  18   0.0000       0.058190         1.5834 
  19   0.0000       0.058447         1.5904 
  20   0.0000       0.058874         1.6021 
  21   0.0000       0.058949         1.6041 
  22   0.0000       0.175923         4.7871 
  23   0.0000       0.179557         4.8860 
  24   0.0000       0.181463         4.9379 
  25   0.0000       0.244074         6.6416 
  26   0.0000       0.244544         6.6544 
  27   0.0000       0.246615         6.7107 
  28   0.0000       0.245589         6.6828 
  29   0.0000       0.247622         6.7381 
  30   0.0000       0.304965         8.2985 
  31   0.0000       0.702000        19.1024 
  32   0.0000       0.710406        19.3311 
  33   0.0000       0.714776        19.4500 
  34   0.0000       0.869316        23.6553 
  35   0.0000       0.870508        23.6877 
  36   0.0000       0.873441        23.7675 
  37   0.0000       0.878637        23.9089 
  38   0.0000       0.879114        23.9219 
  39   0.0000       1.853858        50.4461 
  40   0.0000       2.669297        72.6353 
  41   0.0000       2.684063        73.0371 
  42   0.0000       2.691794        73.2475 
  43   0.0000       3.094176        84.1968 
  44   0.0000       3.095984        84.2460 
  45   0.0000       3.100641        84.3727 
  46   0.0000       3.113821        84.7314 
  47   0.0000       3.109541        84.6149 
  48   0.0000      26.705899       726.7045 
CleanUpVectors: The p-vectors have cracked symmetry
CleanUpVectors: The p-vectors have cracked symmetry
CleanUpVectors: The p-vectors have cracked symmetry
CleanUpVectors: The d-vectors have cracked symmetry at i=4
CleanUpVectors: The d-vectors have cracked symmetry at i=5
CleanUpVectors: The d-vectors have cracked symmetry at i=6
CleanUpVectors: The d-vectors have cracked symmetry at i=7
CleanUpVectors: The d-vectors have cracked symmetry at i=8
CleanUpVectors: The p-vectors have cracked symmetry
CleanUpVectors: The p-vectors have cracked symmetry
CleanUpVectors: The p-vectors have cracked symmetry
CleanUpVectors: The p-vectors have cracked symmetry
CleanUpVectors: The p-vectors have cracked symmetry
CleanUpVectors: The p-vectors have cracked symmetry
CleanUpVectors: The d-vectors have cracked symmetry at i=17
CleanUpVectors: The d-vectors have cracked symmetry at i=18
CleanUpVectors: The d-vectors have cracked symmetry at i=19
CleanUpVectors: The d-vectors have cracked symmetry at i=20
CleanUpVectors: The d-vectors have cracked symmetry at i=21
CleanUpVectors: The p-vectors have cracked symmetry
CleanUpVectors: The p-vectors have cracked symmetry
CleanUpVectors: The p-vectors have cracked symmetry
CleanUpVectors: The d-vectors have cracked symmetry at i=25
CleanUpVectors: The d-vectors have cracked symmetry at i=26
CleanUpVectors: The d-vectors have cracked symmetry at i=27
CleanUpVectors: The d-vectors have cracked symmetry at i=28
CleanUpVectors: The d-vectors have cracked symmetry at i=29
CleanUpVectors: The p-vectors have cracked symmetry
CleanUpVectors: The p-vectors have cracked symmetry
CleanUpVectors: The p-vectors have cracked symmetry
CleanUpVectors: The d-vectors have cracked symmetry at i=34
CleanUpVectors: The d-vectors have cracked symmetry at i=35
CleanUpVectors: The d-vectors have cracked symmetry at i=36
CleanUpVectors: The d-vectors have cracked symmetry at i=37
CleanUpVectors: The d-vectors have cracked symmetry at i=38
CleanUpVectors: The p-vectors have cracked symmetry
CleanUpVectors: The p-vectors have cracked symmetry
CleanUpVectors: The p-vectors have cracked symmetry
CleanUpVectors: The d-vectors have cracked symmetry at i=43
CleanUpVectors: The d-vectors have cracked symmetry at i=44
--------------------------
ATOM BASIS FOR ELEMENT Ir
--------------------------
 NewGTO Ir
 S 38
    1         34.204800000000         0.017327807156
    2         21.376800000000        -0.153183614137
    3         13.362400000000         0.441877079081
    4          8.348350000000        -0.188668123474
    5          4.731630000000        -0.712134877076
    6          1.307850000000         0.852797075857
    7          0.624334000000         0.499682763575
    8          0.193871000000         0.035244539645
    9          0.087949000000        -0.007077104323
   10         34.204800000000         0.000017209668
   11         21.376800000000        -0.000154531401
   12         13.362400000000         0.000460574411
   13          8.348350000000        -0.000230556779
   14          4.731630000000        -0.000738728066
   15          1.307850000000         0.001215233106
   16          0.624334000000         0.000999009591
   17          0.193871000000        -0.000803072894
   18          0.087949000000        -0.001877138546
   19         34.204800000000        -0.000007785106
   20         21.376800000000        -0.000025521490
   21         13.362400000000         0.000150077726
   22          8.348350000000         0.000172405956
   23          4.731630000000        -0.001075763725
   24          1.307850000000         0.002325652960
   25          0.624334000000        -0.000598680127
   26          0.193871000000        -0.002868754258
   27          0.087949000000         0.001682492560
   28         34.204800000000        -0.000006057665
   29         21.376800000000         0.000006475435
   30         13.362400000000         0.000019133867
   31          8.348350000000         0.000114092991
   32          4.731630000000        -0.000466231338
   33          1.307850000000         0.001347851404
   34          0.624334000000        -0.001294251511
   35          0.193871000000        -0.000080462505
   36          0.087949000000         0.001021322359
   37          0.037539000000         0.002329775852
   38          0.016000000000        -0.000368723134
 P 95
    1         20.720400000000         0.002340524882
    2         12.967700000000        -0.013110626889
    3          5.722240000000         0.050404431930
    4          1.550380000000        -0.090455205787
    5          0.782660000000        -0.085008813962
    6          0.385515000000        -0.030098135913
    7          0.170609000000        -0.002954996869
    8          0.072829000000        -0.000220188744
    9         20.720400000000         0.002662568597
   10         12.967700000000        -0.014914579077
   11          5.722240000000         0.057339812370
   12          1.550380000000        -0.102901358652
   13          0.782660000000        -0.096705572421
   14          0.385515000000        -0.034239478551
   15          0.170609000000        -0.003361588645
   16          0.072829000000        -0.000250485538
   17         20.720400000000         0.012717778142
   18         12.967700000000        -0.071239594738
   19          5.722240000000         0.273884028139
   20          1.550380000000        -0.491509083194
   21          0.782660000000        -0.461914865490
   22          0.385515000000        -0.163545116722
   23          0.170609000000        -0.016056652454
   24          0.072829000000        -0.001196445982
   25         20.720400000000        -0.000001008399
   26         12.967700000000         0.000006164987
   27          5.722240000000        -0.000025522817
   28          1.550380000000         0.000055123350
   29          0.782660000000         0.000059864259
   30          0.385515000000        -0.000001338707
   31          0.170609000000        -0.000109676610
   32          0.072829000000        -0.000154687032
   33         20.720400000000        -0.000001147150
   34         12.967700000000         0.000007013256
   35          5.722240000000        -0.000029034621
   36          1.550380000000         0.000062708028
   37          0.782660000000         0.000068101262
   38          0.385515000000        -0.000001522906
   39          0.170609000000        -0.000124767526
   40          0.072829000000        -0.000175971141
   41         20.720400000000        -0.000005479369
   42         12.967700000000         0.000033498870
   43          5.722240000000        -0.000138684076
   44          1.550380000000         0.000299525350
   45          0.782660000000         0.000325286168
   46          0.385515000000        -0.000007274174
   47          0.170609000000        -0.000595952989
   48          0.072829000000        -0.000840527428
   49         20.720400000000         0.000005972136
   50         12.967700000000        -0.000036752745
   51          5.722240000000         0.000154174585
   52          1.550380000000        -0.000365632764
   53          0.782660000000        -0.000381371632
   54          0.385515000000         0.000351133232
   55          0.170609000000         0.000613414621
   56          0.072829000000         0.000147321685
   57         20.720400000000         0.000006793870
   58         12.967700000000        -0.000041809726
   59          5.722240000000         0.000175388183
   60          1.550380000000        -0.000415941878
   61          0.782660000000        -0.000433846330
   62          0.385515000000         0.000399447288
   63          0.170609000000         0.000697817194
   64          0.072829000000         0.000167592361
   65         20.720400000000         0.000032450970
   66         12.967700000000        -0.000199704460
   67          5.722240000000         0.000837742925
   68          1.550380000000        -0.001986749387
   69          0.782660000000        -0.002072270130
   70          0.385515000000         0.001907962859
   71          0.170609000000         0.003333128871
   72          0.072829000000         0.000800506123
   73         20.720400000000         0.000001935477
   74         12.967700000000        -0.000011521395
   75          5.722240000000         0.000049734239
   76          1.550380000000        -0.000179267307
   77          0.782660000000         0.000001479415
   78          0.385515000000         0.000263455141
   79          0.170609000000        -0.000104022091
   80          0.072829000000        -0.000098262509
   81         20.720400000000         0.000002201788
   82         12.967700000000        -0.000013106677
   83          5.722240000000         0.000056577404
   84          1.550380000000        -0.000203933531
   85          0.782660000000         0.000001682974
   86          0.385515000000         0.000299705160
   87          0.170609000000        -0.000118334975
   88          0.072829000000        -0.000111782906
   89         20.720400000000         0.000010516858
   90         12.967700000000        -0.000062604138
   91          5.722240000000         0.000270242380
   92          1.550380000000        -0.000974089983
   93          0.782660000000         0.000008038738
   94          0.385515000000         0.001431543864
   95          0.170609000000        -0.000565227864
 D 95
    1         34.204800000000        -0.000000133016
    2         21.376800000000         0.000001881551
    3         13.362400000000        -0.000008682874
    4          8.348350000000         0.000005933957
    5          4.731630000000         0.000039518274
    6          1.307850000000        -0.000171212021
    7          0.624334000000        -0.000210147327
    8          0.193871000000        -0.000047733742
    9          0.087949000000         0.000021128622
   10         34.204800000000        -0.000000137074
   11         21.376800000000         0.000001969446
   12         13.362400000000        -0.000009390426
   13          8.348350000000         0.000007523972
   14          4.731630000000         0.000042534739
   15          1.307850000000        -0.000253146311
   16          0.624334000000        -0.000435935884
   17          0.193871000000         0.001128527287
   18          0.087949000000         0.005814807870
   19         34.204800000000         0.000000121211
   20         21.376800000000         0.000000635809
   21         13.362400000000        -0.000005981291
   22          8.348350000000        -0.000010998027
   23          4.731630000000         0.000121079127
   24          1.307850000000        -0.000947000340
   25          0.624334000000         0.000510670792
   26          0.193871000000         0.007880316489
   27          0.087949000000        -0.010187917268
   28         34.204800000000        -0.000000044098
   29         21.376800000000         0.000000075427
   30         13.362400000000         0.000000356548
   31          8.348350000000         0.000003402973
   32          4.731630000000        -0.000024535268
   33          1.307850000000         0.000256616278
   34          0.624334000000        -0.000516180764
   35          0.193871000000        -0.000103342942
   36          0.087949000000         0.002891558986
   37          0.037539000000        -0.007136595364
   38          0.016000000000        -0.006970617460
   39         91.412500000000        -0.000017385160
   40          9.730130000000        -0.011022908854
   41          6.077120000000         0.047609230569
   42          1.688200000000        -0.169508824669
   43          0.823786000000        -0.278549927980
   44          0.382068000000        -0.257770328684
   45          0.166965000000        -0.153551431048
   46         91.412500000000        -0.000013382798
   47          9.730130000000        -0.008485245757
   48          6.077120000000         0.036648767312
   49          1.688200000000        -0.130484979452
   50          0.823786000000        -0.214422946414
   51          0.382068000000        -0.198427168069
   52          0.166965000000        -0.118201252143
   53         91.412500000000         0.000007383357
   54          9.730130000000         0.004681352885
   55          6.077120000000        -0.020219309788
   56          1.688200000000         0.071989221350
   57          0.823786000000         0.118298221120
   58          0.382068000000         0.109473269521
   59          0.166965000000         0.065212227033
   60         91.412500000000         0.000006574614
   61          9.730130000000         0.004168576338
   62          6.077120000000        -0.018004567999
   63          1.688200000000         0.064103811879
   64          0.823786000000         0.105340310258
   65          0.382068000000         0.097482008328
   66          0.166965000000         0.058069142234
   67         91.412500000000        -0.000000005760
   68          9.730130000000        -0.000003652325
   69          6.077120000000         0.000015774818
   70          1.688200000000        -0.000056164966
   71          0.823786000000        -0.000092294589
   72          0.382068000000        -0.000085409487
   73          0.166965000000        -0.000050877651
   74         91.412500000000        -0.000000070655
   75          9.730130000000        -0.000099531036
   76          6.077120000000         0.000424049061
   77          1.688200000000        -0.001768796887
   78          0.823786000000        -0.002605508698
   79          0.382068000000         0.000756268472
   80          0.166965000000         0.003169329486
   81         91.412500000000        -0.000000054392
   82          9.730130000000        -0.000076621874
   83          6.077120000000         0.000326445249
   84          1.688200000000        -0.001361671073
   85          0.823786000000        -0.002005796058
   86          0.382068000000         0.000582197373
   87          0.166965000000         0.002439841631
   88         91.412500000000         0.000000030006
   89          9.730130000000         0.000042268982
   90          6.077120000000        -0.000180085761
   91          1.688200000000         0.000751175190
   92          0.823786000000         0.001106511158
   93          0.382068000000        -0.000321173176
   94          0.166965000000        -0.001345955376
   95         91.412500000000         0.000000026727
 S 38
    1         34.204800000000         0.003201507285
    2         21.376800000000        -0.028302395805
    3         13.362400000000         0.081641760836
    4          8.348350000000        -0.034858558054
    5          4.731630000000        -0.131574929024
    6          1.307850000000         0.157563852494
    7          0.624334000000         0.092322011277
    8          0.193871000000         0.006511825149
    9          0.087949000000        -0.001307574631
   10         34.204800000000        -0.002148553083
   11         21.376800000000         0.019292581702
   12         13.362400000000        -0.057500736872
   13          8.348350000000         0.028784023491
   14          4.731630000000         0.092227025886
   15          1.307850000000        -0.151716633349
   16          0.624334000000        -0.124722056346
   17          0.193871000000         0.100260201269
   18          0.087949000000         0.234352684429
   19         34.204800000000        -0.001270409295
   20         21.376800000000        -0.004164713734
   21         13.362400000000         0.024490371085
   22          8.348350000000         0.028133994109
   23          4.731630000000        -0.175548055040
   24          1.307850000000         0.379510708655
   25          0.624334000000        -0.097695366988
   26          0.193871000000        -0.468136467614
   27          0.087949000000         0.274556846965
   28         34.204800000000        -0.016173986546
   29         21.376800000000         0.017289433865
   30         13.362400000000         0.051087488472
   31          8.348350000000         0.304628670595
   32          4.731630000000        -1.244839239943
   33          1.307850000000         3.598767777537
   34          0.624334000000        -3.455655882934
   35          0.193871000000        -0.214835159104
   36          0.087949000000         2.726934130731
   37          0.037539000000        -3.003284687032
   38          0.016000000000         1.133672268166
 D 95
    1         91.412500000000         0.000002415130
    2          9.730130000000         0.001531291914
    3          6.077120000000        -0.006613828596
    4          1.688200000000         0.023548003158
    5          0.823786000000         0.038695888528
    6          0.382068000000         0.035809206546
    7          0.166965000000         0.021331217359
    8         91.412500000000        -0.000002404193
    9          9.730130000000        -0.001524357305
   10          6.077120000000         0.006583877209
   11          1.688200000000        -0.023441363663
   12          0.823786000000        -0.038520650314
   13          0.382068000000        -0.035647040961
   14          0.166965000000        -0.021234616801
   15         91.412500000000         0.000008155473
   16          9.730130000000         0.005170906610
   17          6.077120000000        -0.022333749494
   18          1.688200000000         0.079517513345
   19          0.823786000000         0.130669289099
   20          0.382068000000         0.120921465836
   21          0.166965000000         0.072031813042
   22         91.412500000000        -0.000007684601
   23          9.730130000000        -0.004872354232
   24          6.077120000000         0.021044266911
   25          1.688200000000        -0.074926414634
   26          0.823786000000        -0.123124842856
   27          0.382068000000        -0.113939829180
   28          0.166965000000        -0.067872915837
   29         91.412500000000        -0.000021024445
   30          9.730130000000        -0.013330365708
   31          6.077120000000         0.057575406182
   32          1.688200000000        -0.204992588939
   33          0.823786000000        -0.336859576467
   34          0.382068000000        -0.311730124563
   35          0.166965000000        -0.185694788736
   36         91.412500000000         0.000000025125
   37          9.730130000000         0.000035393353
   38          6.077120000000        -0.000150792343
   39          1.688200000000         0.000628986244
   40          0.823786000000         0.000926521943
   41          0.382068000000        -0.000268929954
   42          0.166965000000        -0.001127017275
   43         91.412500000000        -0.000000025011
   44          9.730130000000        -0.000035233070
   45          6.077120000000         0.000150109464
   46          1.688200000000        -0.000626137816
   47          0.823786000000        -0.000922326095
   48          0.382068000000         0.000267712078
   49          0.166965000000         0.001121913464
   50         91.412500000000         0.000000084843
   51          9.730130000000         0.000119517200
   52          6.077120000000        -0.000509199529
   53          1.688200000000         0.002123977209
   54          0.823786000000         0.003128703545
   55          0.382068000000        -0.000908129707
   56          0.166965000000        -0.003805741431
   57         91.412500000000        -0.000000079944
   58          9.730130000000        -0.000112616641
   59          6.077120000000         0.000479799901
   60          1.688200000000        -0.002001345242
   61          0.823786000000        -0.002948061744
   62          0.382068000000         0.000855697067
   63          0.166965000000         0.003586009527
   64         91.412500000000        -0.000000218720
   65          9.730130000000        -0.000308109990
   66          6.077120000000         0.001312693585
   67          1.688200000000        -0.005475518141
   68          0.823786000000        -0.008065657649
   69          0.382068000000         0.002341117722
   70          0.166965000000         0.009811031003
   71         91.412500000000         0.000000003289
   72          9.730130000000        -0.000012586274
   73          6.077120000000         0.000053520238
   74          1.688200000000        -0.000319321923
   75          0.823786000000        -0.000043022495
   76          0.382068000000         0.000435904682
   77          0.166965000000        -0.000069775008
   78         91.412500000000        -0.000000003274
   79          9.730130000000         0.000012529276
   80          6.077120000000        -0.000053277867
   81          1.688200000000         0.000317875841
   82          0.823786000000         0.000042827663
   83          0.382068000000        -0.000433930643
   84          0.166965000000         0.000069459025
   85         91.412500000000         0.000000011106
   86          9.730130000000        -0.000042501660
   87          6.077120000000         0.000180728542
   88          1.688200000000        -0.001078294626
   89          0.823786000000        -0.000145279486
   90          0.382068000000         0.001471974337
   91          0.166965000000        -0.000235618073
   92         91.412500000000        -0.000000010465
   93          9.730130000000         0.000040047744
   94          6.077120000000        -0.000170293827
   95          1.688200000000         0.001016037183
 P 95
    1         20.720400000000        -0.000028442475
    2         12.967700000000         0.000159322674
    3          5.722240000000        -0.000612523638
    4          1.550380000000         0.001099227779
    5          0.782660000000         0.001033042255
    6          0.385515000000         0.000365757911
    7          0.170609000000         0.000035909648
    8          0.072829000000         0.000002675773
    9         20.720400000000        -0.000008908865
   10         12.967700000000         0.000049903679
   11          5.722240000000        -0.000191857081
   12          1.550380000000         0.000344304481
   13          0.782660000000         0.000323573589
   14          0.385515000000         0.000114564142
   15          0.170609000000         0.000011247762
   16         20.720400000000         0.000007099572
   17         12.967700000000        -0.000039768790
   18          5.722240000000         0.000152893016
   19          1.550380000000        -0.000274380024
   20          0.782660000000        -0.000257859348
   21          0.385515000000        -0.000091297424
   22          0.170609000000        -0.000008963465
   23         20.720400000000         0.001750996383
   24         12.967700000000        -0.010704955231
   25          5.722240000000         0.044318116743
   26          1.550380000000        -0.095716825153
   27          0.782660000000        -0.103948995452
   28          0.385515000000         0.002324547216
   29          0.170609000000         0.190443740457
   30          0.072829000000         0.268600359979
   31         20.720400000000         0.000548454026
   32         12.967700000000        -0.003353048500
   33          5.722240000000         0.013881496153
   34          1.550380000000        -0.029980803288
   35          0.782660000000        -0.032559316292
   36          0.385515000000         0.000728103891
   37          0.170609000000         0.059651543090
   38          0.072829000000         0.084132069182
   39         20.720400000000        -0.000437069039
   40         12.967700000000         0.002672081187
   41          5.722240000000        -0.011062316792
   42          1.550380000000         0.023892031521
   43          0.782660000000         0.025946876862
   44          0.385515000000        -0.000580233990
   45          0.170609000000        -0.047536970043
   46          0.072829000000        -0.067045770237
   47         20.720400000000        -0.001519007423
   48         12.967700000000         0.009348027438
   49          5.722240000000        -0.039214165985
   50          1.550380000000         0.092998362477
   51          0.782660000000         0.097001529209
   52          0.385515000000        -0.089310419673
   53          0.170609000000        -0.156021453406
   54          0.072829000000        -0.037471137073
   55         20.720400000000        -0.000475789525
   56         12.967700000000         0.002928026199
   57          5.722240000000        -0.012282816471
   58          1.550380000000         0.029129315636
   59          0.782660000000         0.030383203384
   60          0.385515000000        -0.027974163576
   61          0.170609000000        -0.048869657929
   62          0.072829000000        -0.011736858048
   63         20.720400000000         0.000379161899
   64         12.967700000000        -0.002333376247
   65          5.722240000000         0.009788311389
   66          1.550380000000        -0.023213471656
   67          0.782660000000        -0.024212708578
   68          0.385515000000         0.022292918288
   69          0.170609000000         0.038944767304
   70          0.072829000000         0.009353231124
   71         20.720400000000         0.000435482464
   72         12.967700000000        -0.002592314594
   73          5.722240000000         0.011190206991
   74          1.550380000000        -0.040335155869
   75          0.782660000000         0.000332868368
   76          0.385515000000         0.059277423975
   77          0.170609000000        -0.023404977369
   78          0.072829000000        -0.022109071048
   79         20.720400000000         0.000136403543
   80         12.967700000000        -0.000811975050
   81          5.722240000000         0.003505040979
   82          1.550380000000        -0.012633937365
   83          0.782660000000         0.000104262349
   84          0.385515000000         0.018567109646
   85          0.170609000000        -0.007330999762
   86          0.072829000000        -0.006925090849
   87         20.720400000000        -0.000108701482
   88         12.967700000000         0.000647071838
   89          5.722240000000        -0.002793205664
   90          1.550380000000         0.010068123487
   91          0.782660000000        -0.000083087812
   92          0.385515000000        -0.014796333662
   93          0.170609000000         0.005842154252
   94          0.072829000000         0.005518680979
   95          0.030571000000        -0.395735784707
 P 95
    1         20.720400000000         0.001746262156
    2         12.967700000000        -0.009781819346
    3          5.722240000000         0.037606672172
    4          1.550380000000        -0.067488495356
    5          0.782660000000        -0.063424950465
    6          0.385515000000        -0.022456174724
    7          0.170609000000        -0.002204718797
    8          0.072829000000        -0.000164282496
    9         20.720400000000         0.000546971153
   10         12.967700000000        -0.003063900220
   11          5.722240000000         0.011779310889
   12          1.550380000000        -0.021139013965
   13          0.782660000000        -0.019866214331
   14          0.385515000000        -0.007033812038
   15          0.170609000000        -0.000690570759
   16          0.072829000000        -0.000051457214
   17         20.720400000000        -0.000435887321
   18         12.967700000000         0.002441655746
   19          5.722240000000        -0.009387062259
   20          1.550380000000         0.016845912469
   21          0.782660000000         0.015831604457
   22          0.385515000000         0.005605322089
   23          0.170609000000         0.000550323424
   24          0.072829000000         0.000041006820
   25         20.720400000000        -0.002090849285
   26         12.967700000000         0.012782692299
   27          5.722240000000        -0.052919870974
   28          1.550380000000         0.114294613792
   29          0.782660000000         0.124124575489
   30          0.385515000000        -0.002775721258
   31          0.170609000000        -0.227407184995
   32          0.072829000000        -0.320733312656
   33         20.720400000000        -0.000654904099
   34         12.967700000000         0.004003845538
   35          5.722240000000        -0.016575771702
   36          1.550380000000         0.035799811869
   37          0.782660000000         0.038878791426
   38          0.385515000000        -0.000869422412
   39          0.170609000000        -0.071229379673
   40          0.072829000000        -0.100461359221
   41         20.720400000000         0.000521900271
   42         12.967700000000        -0.003190708497
   43          5.722240000000         0.013209414576
   44          1.550380000000        -0.028529263387
   45          0.782660000000        -0.030982936023
   46          0.385515000000         0.000692852272
   47          0.170609000000         0.056763475211
   48          0.072829000000         0.080058760865
   49         20.720400000000         0.002992617303
   50         12.967700000000        -0.018416676732
   51          5.722240000000         0.077256364835
   52          1.550380000000        -0.183217346080
   53          0.782660000000        -0.191104039619
   54          0.385515000000         0.175951679512
   55          0.170609000000         0.307379999639
   56          0.072829000000         0.073822399732
   57         20.720400000000         0.000937359451
   58         12.967700000000        -0.005768544469
   59          5.722240000000         0.024198544752
   60          1.550380000000        -0.057388063209
   61          0.782660000000        -0.059858364613
   62          0.385515000000         0.055112282334
   63          0.170609000000         0.096278781599
   64          0.072829000000         0.023122944594
   65         20.720400000000        -0.000746992045
   66         12.967700000000         0.004597016463
   67          5.722240000000        -0.019284086166
   68          1.550380000000         0.045733178055
   69          0.782660000000         0.047701788384
   70          0.385515000000        -0.043919583274
   71          0.170609000000        -0.076725618807
   72          0.072829000000        -0.018426928583
   73         20.720400000000        -0.000880687574
   74         12.967700000000         0.005242505594
   75          5.722240000000        -0.022630248229
   76          1.550380000000         0.081570840507
   77          0.782660000000        -0.000673168405
   78          0.385515000000        -0.119878284649
   79          0.170609000000         0.047332497789
   80          0.072829000000         0.044711752548
   81         20.720400000000        -0.000275852452
   82         12.967700000000         0.001642078378
   83          5.722240000000        -0.007088336032
   84          1.550380000000         0.025549941920
   85          0.782660000000        -0.000210852475
   86          0.385515000000        -0.037548751382
   87          0.170609000000         0.014825672531
   88          0.072829000000         0.014004792321
   89         20.720400000000         0.000219829850
   90         12.967700000000        -0.001308590300
   91          5.722240000000         0.005648772858
   92          1.550380000000        -0.020361029416
   93          0.782660000000         0.000168030654
   94          0.385515000000         0.029923012499
   95          0.170609000000        -0.011814741320
 D 95
    1         91.412500000000         0.000000041366
    2          9.730130000000         0.000026227521
    3          6.077120000000        -0.000113279726
    4          1.688200000000         0.000403323326
    5          0.823786000000         0.000662771886
    6          0.382068000000         0.000613329640
    7          0.166965000000         0.000365354866
    8         91.412500000000         0.000000034649
    9          9.730130000000         0.000021968972
   10          6.077120000000        -0.000094886556
   11          1.688200000000         0.000337835927
   12          0.823786000000         0.000555157960
   13          0.382068000000         0.000513743625
   14          0.166965000000         0.000306032386
   15         91.412500000000         0.000000123809
   16          9.730130000000         0.000078500324
   17          6.077120000000        -0.000339052068
   18          1.688200000000         0.001207167535
   19          0.823786000000         0.001983710468
   20          0.382068000000         0.001835727272
   21          0.166965000000         0.001093525973
   22         91.412500000000         0.000000040902
   23          9.730130000000         0.000025933651
   24          6.077120000000        -0.000112010468
   25          1.688200000000         0.000398804236
   26          0.823786000000         0.000655345770
   27          0.382068000000         0.000606457506
   28          0.166965000000         0.000361261199
   29         91.412500000000         0.000000033866
   30          9.730130000000         0.000021472279
   31          6.077120000000        -0.000092741283
   32          1.688200000000         0.000330197855
   33          0.823786000000         0.000542606492
   34          0.382068000000         0.000502128487
   35          0.166965000000         0.000299113354
   36         91.412500000000        -0.000000438812
   37          9.730130000000        -0.000618151881
   38          6.077120000000         0.002633617979
   39          1.688200000000        -0.010985368700
   40          0.823786000000        -0.016181888326
   41          0.382068000000         0.004696914645
   42          0.166965000000         0.019683578816
   43         91.412500000000        -0.000000367562
   44          9.730130000000        -0.000517782882
   45          6.077120000000         0.002205998797
   46          1.688200000000        -0.009201680095
   47          0.823786000000        -0.013554443530
   48          0.382068000000         0.003934279056
   49          0.166965000000         0.016487566356
   50         91.412500000000        -0.000001313387
   51          9.730130000000        -0.001850160490
   52          6.077120000000         0.007882554557
   53          1.688200000000        -0.032879775579
   54          0.823786000000        -0.048433227060
   55          0.382068000000         0.014058107986
   56          0.166965000000         0.058913967454
   57         91.412500000000        -0.000000433895
   58          9.730130000000        -0.000611225716
   59          6.077120000000         0.002604109253
   60          1.688200000000        -0.010862281665
   61          0.823786000000        -0.016000576190
   62          0.382068000000         0.004644287436
   63          0.166965000000         0.019463031521
   64         91.412500000000        -0.000000359252
   65          9.730130000000        -0.000506076421
   66          6.077120000000         0.002156123762
   67          1.688200000000        -0.008993640943
   68          0.823786000000        -0.013247993523
   69          0.382068000000         0.003845329639
   70          0.166965000000         0.016114801896
   71         91.412500000000        -0.000000097389
   72          9.730130000000         0.000372680912
   73          6.077120000000        -0.001584739938
   74          1.688200000000         0.009455156019
   75          0.823786000000         0.001273900635
   76          0.382068000000        -0.012907183877
   77          0.166965000000         0.002066045394
   78         91.412500000000        -0.000000081576
   79          9.730130000000         0.000312168906
   80          6.077120000000        -0.001327426538
   81          1.688200000000         0.007919927251
   82          0.823786000000         0.001067058051
   83          0.382068000000        -0.010811451141
   84          0.166965000000         0.001730582677
   85         91.412500000000        -0.000000291489
   86          9.730130000000         0.001115453206
   87          6.077120000000        -0.004743208438
   88          1.688200000000         0.028299770036
   89          0.823786000000         0.003812850358
   90          0.382068000000        -0.038631867608
   91          0.166965000000         0.006183780512
   92         91.412500000000        -0.000000096297
   93          9.730130000000         0.000368505158
   94          6.077120000000        -0.001566983507
   95          1.688200000000         0.009349214457
 P 95
    1         20.720400000000        -0.003272941422
    2         12.967700000000         0.018333628552
    3          5.722240000000        -0.070484511552
    4          1.550380000000         0.126490682526
    5          0.782660000000         0.118874561229
    6          0.385515000000         0.042088608625
    7          0.170609000000         0.004132206296
    8          0.072829000000         0.000307907369
    9         20.720400000000        -0.001025163682
   10         12.967700000000         0.005742531789
   11          5.722240000000        -0.022077438029
   12          1.550380000000         0.039619912847
   13          0.782660000000         0.037234361153
   14          0.385515000000         0.013183160785
   15          0.170609000000         0.001294306031
   16          0.072829000000         0.000096443966
   17         20.720400000000         0.000816964201
   18         12.967700000000        -0.004576286672
   19          5.722240000000         0.017593752917
   20          1.550380000000        -0.031573543827
   21          0.782660000000        -0.029672471473
   22          0.385515000000        -0.010505805665
   23          0.170609000000        -0.001031446696
   24          0.072829000000        -0.000076857256
   25         20.720400000000         0.016696054058
   26         12.967700000000        -0.102073603869
   27          5.722240000000         0.422580925839
   28          1.550380000000        -0.912676520673
   29          0.782660000000        -0.991171691546
   30          0.385515000000         0.022164960673
   31          0.170609000000         1.815914079329
   32          0.072829000000         2.561150995188
   33         20.720400000000         0.005229604216
   34         12.967700000000        -0.031971898708
   35          5.722240000000         0.132362472225
   36          1.550380000000        -0.285872156624
   37          0.782660000000        -0.310458725111
   38          0.385515000000         0.006942596819
   39          0.170609000000         0.568787804161
   40          0.072829000000         0.802213864224
   41         20.720400000000        -0.004167529054
   42         12.967700000000         0.025478757336
   43          5.722240000000        -0.105481108300
   44          1.550380000000         0.227814662313
   45          0.782660000000         0.247407968858
   46          0.385515000000        -0.005532631679
   47          0.170609000000        -0.453273250052
   48          0.072829000000        -0.639293041823
   49         20.720400000000        -0.015281938481
   50         12.967700000000         0.094045610348
   51          5.722240000000        -0.394513195286
   52          1.550380000000         0.935607840058
   53          0.782660000000         0.975881604881
   54          0.385515000000        -0.898505378151
   55          0.170609000000        -1.569650165187
   56          0.072829000000        -0.376977493883
   57         20.720400000000        -0.004786669331
   58         12.967700000000         0.029457338764
   59          5.722240000000        -0.123570986433
   60          1.550380000000         0.293054795356
   61          0.782660000000         0.305669503574
   62          0.385515000000        -0.281433415205
   63          0.170609000000        -0.491652045061
   64          0.072829000000        -0.118078384547
   65         20.720400000000         0.003814549378
   66         12.967700000000        -0.023474876890
   67          5.722240000000         0.098475076685
   68          1.550380000000        -0.233538586029
   69          0.782660000000        -0.243591385598
   70          0.385515000000         0.224277380510
   71          0.170609000000         0.391802916183
   72          0.072829000000         0.094097961899
   73         20.720400000000         0.004111388454
   74         12.967700000000        -0.024474033243
   75          5.722240000000         0.105646706045
   76          1.550380000000        -0.380804069024
   77          0.782660000000         0.003142609125
   78          0.385515000000         0.559637957613
   79          0.170609000000        -0.220966311530
   80          0.072829000000        -0.208731664376
   81         20.720400000000         0.001287785384
   82         12.967700000000        -0.007665853680
   83          5.722240000000         0.033091079932
   84          1.550380000000        -0.119276959577
   85          0.782660000000         0.000984340484
   86          0.385515000000         0.175292018857
   87          0.170609000000        -0.069211943758
   88          0.072829000000        -0.065379759093
   89         20.720400000000        -0.001026250321
   90         12.967700000000         0.006109003017
   91          5.722240000000        -0.026370645148
   92          1.550380000000         0.095053119508
   93          0.782660000000        -0.000784431746
   94          0.385515000000        -0.139692135651
   95          0.170609000000         0.055155758369
 D 95
    1         34.204800000000         0.000000016376
    2         21.376800000000        -0.000000231647
    3         13.362400000000         0.000001068989
    4          8.348350000000        -0.000000730557
    5          4.731630000000        -0.000004865279
    6          1.307850000000         0.000021078712
    7          0.624334000000         0.000025872220
    8          0.193871000000         0.000005876724
    9          0.087949000000        -0.000002601243
   10         34.204800000000        -0.000000044336
   11         21.376800000000         0.000000637009
   12         13.362400000000        -0.000003037294
   13          8.348350000000         0.000002433597
   14          4.731630000000         0.000013757682
   15          1.307850000000        -0.000081879110
   16          0.624334000000        -0.000141001629
   17          0.193871000000         0.000365017406
   18          0.087949000000         0.001880775158
   19         34.204800000000         0.000000547202
   20         21.376800000000         0.000002870342
   21         13.362400000000        -0.000027002379
   22          8.348350000000        -0.000049650300
   23          4.731630000000         0.000546608493
   24          1.307850000000        -0.004275207790
   25          0.624334000000         0.002305409678
   26          0.193871000000         0.035575478734
   27          0.087949000000        -0.045993080935
   28         34.204800000000        -0.000000700382
   29         21.376800000000         0.000001197963
   30         13.362400000000         0.000005662854
   31          8.348350000000         0.000054047471
   32          4.731630000000        -0.000389679662
   33          1.307850000000         0.004075689906
   34          0.624334000000        -0.008198204539
   35          0.193871000000        -0.001641336981
   36          0.087949000000         0.045924981404
   37          0.037539000000        -0.178503808747
   38          0.016000000000         0.226732218959
   39         91.412500000000        -0.000010197272
   40          9.730130000000        -0.006465491289
   41          6.077120000000         0.027925211903
   42          1.688200000000        -0.099425464172
   43          0.823786000000        -0.163383563886
   44          0.382068000000        -0.151195282189
   45          0.166965000000        -0.090065649007
   46         91.412500000000        -0.000007959141
   47          9.730130000000        -0.005046423650
   48          6.077120000000         0.021796093054
   49          1.688200000000        -0.077603230965
   50          0.823786000000        -0.127523593173
   51          0.382068000000        -0.118010436282
   52          0.166965000000        -0.070297739318
   53         91.412500000000         0.000004303128
   54          9.730130000000         0.002728360793
   55          6.077120000000        -0.011784108879
   56          1.688200000000         0.041956369004
   57          0.823786000000         0.068945930026
   58          0.382068000000         0.063802619420
   59          0.166965000000         0.038006637795
   60         91.412500000000         0.000004106868
   61          9.730130000000         0.002603923693
   62          6.077120000000        -0.011246650509
   63          1.688200000000         0.040042791837
   64          0.823786000000         0.065801392960
   65          0.382068000000         0.060892662275
   66          0.166965000000         0.036273202895
   67         91.412500000000        -0.000000093131
   68          9.730130000000        -0.000059048758
   69          6.077120000000         0.000255038482
   70          1.688200000000        -0.000908043940
   71          0.823786000000        -0.001492167588
   72          0.382068000000        -0.001380853093
   73          0.166965000000        -0.000822561579
   74         91.412500000000         0.000003959170
   75          9.730130000000         0.005577259965
   76          6.077120000000        -0.023761752664
   77          1.688200000000         0.099115215673
   78          0.823786000000         0.146000684655
   79          0.382068000000        -0.042377795482
   80          0.166965000000        -0.177594599948
   81         91.412500000000         0.000003090580
   82          9.730130000000         0.004353682856
   83          6.077120000000        -0.018548738243
   84          1.688200000000         0.077370647588
   85          0.823786000000         0.113970064469
   86          0.382068000000        -0.033080667358
   87          0.166965000000        -0.138632692396
   88         91.412500000000        -0.000001670626
   89          9.730130000000        -0.002353401975
   90          6.077120000000         0.010026600157
   91          1.688200000000        -0.041823036000
   92          0.823786000000        -0.061607008055
   93          0.382068000000         0.017881896881
   94          0.166965000000         0.074938497551
   95         91.412500000000        -0.000001595398
 P 95
    1         20.720400000000         0.002999778413
    2         12.967700000000        -0.016803485330
    3          5.722240000000         0.064601802774
    4          1.550380000000        -0.115933641950
    5          0.782660000000        -0.108953169856
    6          0.385515000000        -0.038575850687
    7          0.170609000000        -0.003787328170
    8          0.072829000000        -0.000282209108
    9         20.720400000000         0.000939602482
   10         12.967700000000        -0.005263254265
   11          5.722240000000         0.020234832672
   12          1.550380000000        -0.036313194760
   13          0.782660000000        -0.034126743628
   14          0.385515000000        -0.012082880823
   15          0.170609000000        -0.001186281938
   16          0.072829000000        -0.000088394655
   17         20.720400000000        -0.000748779541
   18         12.967700000000         0.004194345148
   19          5.722240000000        -0.016125360465
   20          1.550380000000         0.028938383856
   21          0.782660000000         0.027195976928
   22          0.385515000000         0.009628980475
   23          0.170609000000         0.000945361109
   24          0.072829000000         0.000070442672
   25         20.720400000000        -0.029471053381
   26         12.967700000000         0.180175304778
   27          5.722240000000        -0.745919064485
   28          1.550380000000         1.611011701784
   29          0.782660000000         1.749567516407
   30          0.385515000000        -0.039124498335
   31          0.170609000000        -3.205362212096
   32          0.072829000000        -4.520817759439
   33         20.720400000000        -0.009231040130
   34         12.967700000000         0.056435222971
   35          5.722240000000        -0.233639725346
   36          1.550380000000         0.504607469437
   37          0.782660000000         0.548006470770
   38          0.385515000000        -0.012254730413
   39          0.170609000000        -1.003996254455
   40          0.072829000000        -1.416028453952
   41         20.720400000000         0.007356317295
   42         12.967700000000        -0.044973849207
   43          5.722240000000         0.186190063996
   44          1.550380000000        -0.402127236231
   45          0.782660000000        -0.436712377193
   46          0.385515000000         0.009765929302
   47          0.170609000000         0.800095645514
   48          0.072829000000         1.128448632058
   49         20.720400000000         0.043347315547
   50         12.967700000000        -0.266760970979
   51          5.722240000000         1.119039183747
   52          1.550380000000        -2.653857579812
   53          0.782660000000        -2.768094369487
   54          0.385515000000         2.548616210996
   55          0.170609000000         4.452322661463
   56          0.072829000000         1.069299055359
   57         20.720400000000         0.013577417955
   58         12.967700000000        -0.083555928465
[...]
  BAS[ATNO][ 12].a[ 72] =        20.720400000000;     BAS[ATNO][ 12].d[ 72] =         0.031594246516;
  BAS[ATNO][ 12].a[ 73] =        12.967700000000;     BAS[ATNO][ 12].d[ 73] =        -0.188072386781;
  BAS[ATNO][ 12].a[ 74] =         5.722240000000;     BAS[ATNO][ 12].d[ 74] =         0.811849357402;
  BAS[ATNO][ 12].a[ 75] =         1.550380000000;     BAS[ATNO][ 12].d[ 75] =        -2.926314982337;
  BAS[ATNO][ 12].a[ 76] =         0.782660000000;     BAS[ATNO][ 12].d[ 76] =         0.024149595325;
  BAS[ATNO][ 12].a[ 77] =         0.385515000000;     BAS[ATNO][ 12].d[ 77] =         4.300576262876;
  BAS[ATNO][ 12].a[ 78] =         0.170609000000;     BAS[ATNO][ 12].d[ 78] =        -1.698030773881;
  BAS[ATNO][ 12].a[ 79] =         0.072829000000;     BAS[ATNO][ 12].d[ 79] =        -1.604012788831;
  BAS[ATNO][ 12].a[ 80] =        20.720400000000;     BAS[ATNO][ 12].d[ 80] =         0.009896075098;
  BAS[ATNO][ 12].a[ 81] =        12.967700000000;     BAS[ATNO][ 12].d[ 81] =        -0.058908778297;
  BAS[ATNO][ 12].a[ 82] =         5.722240000000;     BAS[ATNO][ 12].d[ 82] =         0.254290672992;
  BAS[ATNO][ 12].a[ 83] =         1.550380000000;     BAS[ATNO][ 12].d[ 83] =        -0.916591975421;
  BAS[ATNO][ 12].a[ 84] =         0.782660000000;     BAS[ATNO][ 12].d[ 84] =         0.007564231950;
  BAS[ATNO][ 12].a[ 85] =         0.385515000000;     BAS[ATNO][ 12].d[ 85] =         1.347043539753;
  BAS[ATNO][ 12].a[ 86] =         0.170609000000;     BAS[ATNO][ 12].d[ 86] =        -0.531863928098;
  BAS[ATNO][ 12].a[ 87] =         0.072829000000;     BAS[ATNO][ 12].d[ 87] =        -0.502415242238;
  BAS[ATNO][ 12].a[ 88] =        20.720400000000;     BAS[ATNO][ 12].d[ 88] =        -0.007886290968;
  BAS[ATNO][ 12].a[ 89] =        12.967700000000;     BAS[ATNO][ 12].d[ 89] =         0.046945052619;
  BAS[ATNO][ 12].a[ 90] =         5.722240000000;     BAS[ATNO][ 12].d[ 90] =        -0.202647031043;
  BAS[ATNO][ 12].a[ 91] =         1.550380000000;     BAS[ATNO][ 12].d[ 91] =         0.730442215247;
  BAS[ATNO][ 12].a[ 92] =         0.782660000000;     BAS[ATNO][ 12].d[ 92] =        -0.006028019544;
  BAS[ATNO][ 12].a[ 93] =         0.385515000000;     BAS[ATNO][ 12].d[ 93] =        -1.073473795969;
  BAS[ATNO][ 12].a[ 94] =         0.170609000000;     BAS[ATNO][ 12].d[ 94] =         0.423848207564;

  // Basis function  14 L = d
  InitBFNGauss(BAS[ATNO][ 13]);
  BAS[ATNO][ 13].l  = 2;
  BAS[ATNO][ 13].ng = 95;
  BAS[ATNO][ 13].a[  0] =        91.412500000000;     BAS[ATNO][ 13].d[  0] =        -0.000006621458;
  BAS[ATNO][ 13].a[  1] =         9.730130000000;     BAS[ATNO][ 13].d[  1] =        -0.004198277808;
  BAS[ATNO][ 13].a[  2] =         6.077120000000;     BAS[ATNO][ 13].d[  2] =         0.018132852117;
  BAS[ATNO][ 13].a[  3] =         1.688200000000;     BAS[ATNO][ 13].d[  3] =        -0.064560557135;
  BAS[ATNO][ 13].a[  4] =         0.823786000000;     BAS[ATNO][ 13].d[  4] =        -0.106090869165;
  BAS[ATNO][ 13].a[  5] =         0.382068000000;     BAS[ATNO][ 13].d[  5] =        -0.098176576147;
  BAS[ATNO][ 13].a[  6] =         0.166965000000;     BAS[ATNO][ 13].d[  6] =        -0.058482889942;
  BAS[ATNO][ 13].a[  7] =        91.412500000000;     BAS[ATNO][ 13].d[  7] =        -0.000005546336;
  BAS[ATNO][ 13].a[  8] =         9.730130000000;     BAS[ATNO][ 13].d[  8] =        -0.003516605622;
  BAS[ATNO][ 13].a[  9] =         6.077120000000;     BAS[ATNO][ 13].d[  9] =         0.015188630344;
  BAS[ATNO][ 13].a[ 10] =         1.688200000000;     BAS[ATNO][ 13].d[ 10] =        -0.054077893031;
  BAS[ATNO][ 13].a[ 11] =         0.823786000000;     BAS[ATNO][ 13].d[ 11] =        -0.088864949884;
  BAS[ATNO][ 13].a[ 12] =         0.382068000000;     BAS[ATNO][ 13].d[ 12] =        -0.082235696510;
  BAS[ATNO][ 13].a[ 13] =         0.166965000000;     BAS[ATNO][ 13].d[ 13] =        -0.048987053501;
  BAS[ATNO][ 13].a[ 14] =        91.412500000000;     BAS[ATNO][ 13].d[ 14] =        -0.000019818367;
  BAS[ATNO][ 13].a[ 15] =         9.730130000000;     BAS[ATNO][ 13].d[ 15] =        -0.012565662192;
  BAS[ATNO][ 13].a[ 16] =         6.077120000000;     BAS[ATNO][ 13].d[ 16] =         0.054272562396;
  BAS[ATNO][ 13].a[ 17] =         1.688200000000;     BAS[ATNO][ 13].d[ 17] =        -0.193233080088;
  BAS[ATNO][ 13].a[ 18] =         0.823786000000;     BAS[ATNO][ 13].d[ 18] =        -0.317535447768;
  BAS[ATNO][ 13].a[ 19] =         0.382068000000;     BAS[ATNO][ 13].d[ 19] =        -0.293847560234;
  BAS[ATNO][ 13].a[ 20] =         0.166965000000;     BAS[ATNO][ 13].d[ 20] =        -0.175042308454;
  BAS[ATNO][ 13].a[ 21] =        91.412500000000;     BAS[ATNO][ 13].d[ 21] =        -0.000006547267;
  BAS[ATNO][ 13].a[ 22] =         9.730130000000;     BAS[ATNO][ 13].d[ 22] =        -0.004151237642;
  BAS[ATNO][ 13].a[ 23] =         6.077120000000;     BAS[ATNO][ 13].d[ 23] =         0.017929680146;
  BAS[ATNO][ 13].a[ 24] =         1.688200000000;     BAS[ATNO][ 13].d[ 24] =        -0.063837179722;
  BAS[ATNO][ 13].a[ 25] =         0.823786000000;     BAS[ATNO][ 13].d[ 25] =        -0.104902159807;
  BAS[ATNO][ 13].a[ 26] =         0.382068000000;     BAS[ATNO][ 13].d[ 26] =        -0.097076543546;
  BAS[ATNO][ 13].a[ 27] =         0.166965000000;     BAS[ATNO][ 13].d[ 27] =        -0.057827610566;
  BAS[ATNO][ 13].a[ 28] =        91.412500000000;     BAS[ATNO][ 13].d[ 28] =        -0.000005420940;
  BAS[ATNO][ 13].a[ 29] =         9.730130000000;     BAS[ATNO][ 13].d[ 29] =        -0.003437099310;
  BAS[ATNO][ 13].a[ 30] =         6.077120000000;     BAS[ATNO][ 13].d[ 30] =         0.014845233298;
  BAS[ATNO][ 13].a[ 31] =         1.688200000000;     BAS[ATNO][ 13].d[ 31] =        -0.052855255552;
  BAS[ATNO][ 13].a[ 32] =         0.823786000000;     BAS[ATNO][ 13].d[ 32] =        -0.086855818014;
  BAS[ATNO][ 13].a[ 33] =         0.382068000000;     BAS[ATNO][ 13].d[ 33] =        -0.080376444252;
  BAS[ATNO][ 13].a[ 34] =         0.166965000000;     BAS[ATNO][ 13].d[ 34] =        -0.047879513909;
  BAS[ATNO][ 13].a[ 35] =        91.412500000000;     BAS[ATNO][ 13].d[ 35] =         0.000006117617;
  BAS[ATNO][ 13].a[ 36] =         9.730130000000;     BAS[ATNO][ 13].d[ 36] =         0.008617852491;
  BAS[ATNO][ 13].a[ 37] =         6.077120000000;     BAS[ATNO][ 13].d[ 37] =        -0.036716108028;
  BAS[ATNO][ 13].a[ 38] =         1.688200000000;     BAS[ATNO][ 13].d[ 38] =         0.153150527969;
  BAS[ATNO][ 13].a[ 39] =         0.823786000000;     BAS[ATNO][ 13].d[ 39] =         0.225596865093;
  BAS[ATNO][ 13].a[ 40] =         0.382068000000;     BAS[ATNO][ 13].d[ 40] =        -0.065481184782;
  BAS[ATNO][ 13].a[ 41] =         0.166965000000;     BAS[ATNO][ 13].d[ 41] =        -0.274415048808;
  BAS[ATNO][ 13].a[ 42] =        91.412500000000;     BAS[ATNO][ 13].d[ 42] =         0.000005124303;
  BAS[ATNO][ 13].a[ 43] =         9.730130000000;     BAS[ATNO][ 13].d[ 43] =         0.007218576261;
  BAS[ATNO][ 13].a[ 44] =         6.077120000000;     BAS[ATNO][ 13].d[ 44] =        -0.030754532653;
  BAS[ATNO][ 13].a[ 45] =         1.688200000000;     BAS[ATNO][ 13].d[ 45] =         0.128283556349;
  BAS[ATNO][ 13].a[ 46] =         0.823786000000;     BAS[ATNO][ 13].d[ 46] =         0.188966819372;
  BAS[ATNO][ 13].a[ 47] =         0.382068000000;     BAS[ATNO][ 13].d[ 47] =        -0.054849038846;
  BAS[ATNO][ 13].a[ 48] =         0.166965000000;     BAS[ATNO][ 13].d[ 48] =        -0.229858419972;
  BAS[ATNO][ 13].a[ 49] =        91.412500000000;     BAS[ATNO][ 13].d[ 49] =         0.000018310343;
  BAS[ATNO][ 13].a[ 50] =         9.730130000000;     BAS[ATNO][ 13].d[ 50] =         0.025793677354;
  BAS[ATNO][ 13].a[ 51] =         6.077120000000;     BAS[ATNO][ 13].d[ 51] =        -0.109893206597;
  BAS[ATNO][ 13].a[ 52] =         1.688200000000;     BAS[ATNO][ 13].d[ 52] =         0.458387435766;
  BAS[ATNO][ 13].a[ 53] =         0.823786000000;     BAS[ATNO][ 13].d[ 53] =         0.675223062422;
  BAS[ATNO][ 13].a[ 54] =         0.382068000000;     BAS[ATNO][ 13].d[ 54] =        -0.195988566158;
  BAS[ATNO][ 13].a[ 55] =         0.166965000000;     BAS[ATNO][ 13].d[ 55] =        -0.821338406251;
  BAS[ATNO][ 13].a[ 56] =        91.412500000000;     BAS[ATNO][ 13].d[ 56] =         0.000006049071;
  BAS[ATNO][ 13].a[ 57] =         9.730130000000;     BAS[ATNO][ 13].d[ 57] =         0.008521292608;
  BAS[ATNO][ 13].a[ 58] =         6.077120000000;     BAS[ATNO][ 13].d[ 58] =        -0.036304717477;
  BAS[ATNO][ 13].a[ 59] =         1.688200000000;     BAS[ATNO][ 13].d[ 59] =         0.151434532359;
  BAS[ATNO][ 13].a[ 60] =         0.823786000000;     BAS[ATNO][ 13].d[ 60] =         0.223069134792;
  BAS[ATNO][ 13].a[ 61] =         0.382068000000;     BAS[ATNO][ 13].d[ 61] =        -0.064747492074;
  BAS[ATNO][ 13].a[ 62] =         0.166965000000;     BAS[ATNO][ 13].d[ 62] =        -0.271340328627;
  BAS[ATNO][ 13].a[ 63] =        91.412500000000;     BAS[ATNO][ 13].d[ 63] =         0.000005008448;
  BAS[ATNO][ 13].a[ 64] =         9.730130000000;     BAS[ATNO][ 13].d[ 64] =         0.007055372753;
  BAS[ATNO][ 13].a[ 65] =         6.077120000000;     BAS[ATNO][ 13].d[ 65] =        -0.030059208886;
  BAS[ATNO][ 13].a[ 66] =         1.688200000000;     BAS[ATNO][ 13].d[ 66] =         0.125383216207;
  BAS[ATNO][ 13].a[ 67] =         0.823786000000;     BAS[ATNO][ 13].d[ 67] =         0.184694502113;
  BAS[ATNO][ 13].a[ 68] =         0.382068000000;     BAS[ATNO][ 13].d[ 68] =        -0.053608966668;
  BAS[ATNO][ 13].a[ 69] =         0.166965000000;     BAS[ATNO][ 13].d[ 69] =        -0.224661591778;
  BAS[ATNO][ 13].a[ 70] =        91.412500000000;     BAS[ATNO][ 13].d[ 70] =         0.000004524705;
  BAS[ATNO][ 13].a[ 71] =         9.730130000000;     BAS[ATNO][ 13].d[ 71] =        -0.017314885562;
  BAS[ATNO][ 13].a[ 72] =         6.077120000000;     BAS[ATNO][ 13].d[ 72] =         0.073627572048;
  BAS[ATNO][ 13].a[ 73] =         1.688200000000;     BAS[ATNO][ 13].d[ 73] =        -0.439289857208;
  BAS[ATNO][ 13].a[ 74] =         0.823786000000;     BAS[ATNO][ 13].d[ 74] =        -0.059185869257;
  BAS[ATNO][ 13].a[ 75] =         0.382068000000;     BAS[ATNO][ 13].d[ 75] =         0.599672279438;
  BAS[ATNO][ 13].a[ 76] =         0.166965000000;     BAS[ATNO][ 13].d[ 76] =        -0.095989191943;
  BAS[ATNO][ 13].a[ 77] =        91.412500000000;     BAS[ATNO][ 13].d[ 77] =         0.000003790031;
  BAS[ATNO][ 13].a[ 78] =         9.730130000000;     BAS[ATNO][ 13].d[ 78] =        -0.014503476594;
  BAS[ATNO][ 13].a[ 79] =         6.077120000000;     BAS[ATNO][ 13].d[ 79] =         0.061672701446;
  BAS[ATNO][ 13].a[ 80] =         1.688200000000;     BAS[ATNO][ 13].d[ 80] =        -0.367962591434;
  BAS[ATNO][ 13].a[ 81] =         0.823786000000;     BAS[ATNO][ 13].d[ 81] =        -0.049575890430;
  BAS[ATNO][ 13].a[ 82] =         0.382068000000;     BAS[ATNO][ 13].d[ 82] =         0.502303803132;
  BAS[ATNO][ 13].a[ 83] =         0.166965000000;     BAS[ATNO][ 13].d[ 83] =        -0.080403476742;
  BAS[ATNO][ 13].a[ 84] =        91.412500000000;     BAS[ATNO][ 13].d[ 84] =         0.000013542677;
  BAS[ATNO][ 13].a[ 85] =         9.730130000000;     BAS[ATNO][ 13].d[ 85] =        -0.051824346273;
  BAS[ATNO][ 13].a[ 86] =         6.077120000000;     BAS[ATNO][ 13].d[ 86] =         0.220371123760;
  BAS[ATNO][ 13].a[ 87] =         1.688200000000;     BAS[ATNO][ 13].d[ 87] =        -1.314817218550;
  BAS[ATNO][ 13].a[ 88] =         0.823786000000;     BAS[ATNO][ 13].d[ 88] =        -0.177146361831;
  BAS[ATNO][ 13].a[ 89] =         0.382068000000;     BAS[ATNO][ 13].d[ 89] =         1.794850087144;
  BAS[ATNO][ 13].a[ 90] =         0.166965000000;     BAS[ATNO][ 13].d[ 90] =        -0.287300606400;
  BAS[ATNO][ 13].a[ 91] =        91.412500000000;     BAS[ATNO][ 13].d[ 91] =         0.000004474008;
  BAS[ATNO][ 13].a[ 92] =         9.730130000000;     BAS[ATNO][ 13].d[ 92] =        -0.017120878607;
  BAS[ATNO][ 13].a[ 93] =         6.077120000000;     BAS[ATNO][ 13].d[ 93] =         0.072802602053;
  BAS[ATNO][ 13].a[ 94] =         1.688200000000;     BAS[ATNO][ 13].d[ 94] =        -0.434367775147;

-------------------------------------------
RADIAL EXPECTATION VALUES <R**-3> TO <R**3>
-------------------------------------------
   0 :     0.000000     1.251811     1.071817     1.017896     1.131851     1.376399
   1 :     1.125296     0.982309     0.944092     1.169420     1.512811     2.168906
   2 :     1.123756     0.981259     0.943493     1.170503     1.516240     2.177968
   3 :     1.122959     0.980715     0.943182     1.171063     1.518013     2.182656
   4 :     0.484199     0.531092     0.674313     1.750601     3.649593    45.472216
   5 :     0.488890     0.535903     0.678236     1.733643     3.560471    43.140921
   6 :     0.000000     0.203005     0.388403     3.084207    10.980953    44.394275
   7 :     0.000000     0.023505     0.127669     8.885536    84.767600   855.977978
   8 :     0.000000     0.135957     0.293800     4.929436    33.158705   285.585075
   9 :     0.000000     0.610977     0.635302     2.936082    16.925982   150.060336
  10 :     0.489794     0.536303     0.678584     1.732248     3.553793    43.301889
  11 :     0.488462     0.535109     0.677646     1.735964     3.572488    43.712175
  12 :     0.485910     0.532812     0.675831     1.743249     3.609458    44.531177
  13 :     0.005909     0.018933     0.118375     9.910488   109.053614  1296.947999
  14 :     0.005500     0.018159     0.116503    10.006491   110.772419  1322.542845
  15 :     0.005300     0.017781     0.115586    10.053970   111.625283  1335.275306
  16 :     0.023954     0.050518     0.184546     7.594497    76.279960   922.424158
  17 :     0.023584     0.050136     0.184439     7.549764    75.276680   905.947427
  18 :     0.023370     0.049905     0.184318     7.529144    74.798275   897.979966
  19 :     0.004210     0.018083     0.125087     8.536655    76.594742  3593.454412
  20 :     0.004220     0.018086     0.125072     8.537941    76.615234  3595.124960
  21 :     0.004244     0.018096     0.125033     8.541256    76.668745  3598.478475
  22 :     0.004583     0.018439     0.125367     8.537989    76.636572  3596.890633
  23 :     0.004296     0.018120     0.124961     8.547619    76.771879  3604.954877
  24 :     0.068501     0.094548     0.241624     6.057186    50.370890   531.430931
  25 :     0.069017     0.095187     0.242759     6.020514    49.824814   524.216647
  26 :     0.069272     0.095510     0.243343     6.001356    49.539271   520.446931
  27 :     0.041619     0.070187     0.217736     5.687209    38.388541  1523.108422
  28 :     0.041825     0.070297     0.217816     5.686431    38.375148  1522.617052
  29 :     0.045051     0.073304     0.220392     5.670491    38.253319  1517.805728
  30 :     0.042126     0.070570     0.218039     5.684256    38.343747  1520.564946
  31 :     0.042731     0.071121     0.218492     5.679857    38.281412  1516.531492
  32 :     0.144643     0.192903     0.367099     3.983632    23.970374   209.817533
  33 :     0.145402     0.193708     0.368008     3.971182    23.827804   208.216812
  34 :     0.145799     0.194131     0.368487     3.964625    23.753003   207.379900
  35 :     0.174585     0.226040     0.400041     3.460223    16.351661   520.042032
  36 :     0.174864     0.226275     0.400257     3.458637    16.337729   519.446982
  37 :     0.175447     0.226859     0.400784     3.454772    16.303812   517.987878
  38 :     0.178232     0.229177     0.402334     3.454414    16.336506   520.072123
  39 :     0.176570     0.227983     0.401797     3.447372    16.239007   515.203264
  40 :     0.904799     0.714992     0.710618     2.322514    10.174538    79.649893
  41 :     0.905843     0.715754     0.711153     2.319282    10.144230    79.337720
  42 :     0.906402     0.716162     0.711439     2.317578    10.128342    79.174660
  43 :     0.902180     0.756240     0.757395     1.989121     6.613259   179.912077
  44 :     0.902379     0.756364     0.757483     1.988729     6.610482   179.813998
  45 :     0.902803     0.756691     0.757710     1.987739     6.603594   179.561406
  46 :     0.900951     0.755311     0.756805     1.990491     6.616983   179.879250
  47 :     0.903576     0.757289     0.758129     1.985890     6.590630   179.084072
  48 :     0.000000     4.491436     1.299585     3.523373    27.520350   277.251618
Making the total density                ... o.k.
o.k.
Initializing the integrals              ... done
Making exponents                        ... done
Making rho(0)                           ... done (         0.000006938)
Integral calculation                    ... Two index integrals                     ... done
Solving the equation system             ... done
atomic density will be written to file 77_Ir_atom77.adf

-------
TIMINGS
-------

Total SCF time: 0 days 0 hours 0 min 1 sec 

Total time                  ....       1.523 sec
Sum of individual times     ....       0.936 sec  ( 61.5%)

Fock matrix formation       ....       0.806 sec  ( 52.9%)
Diagonalization             ....       0.061 sec  (  4.0%)
Density matrix formation    ....       0.001 sec  (  0.1%)
Population analysis         ....       0.000 sec  (  0.0%)
Initial guess               ....       0.001 sec  (  0.0%)
Orbital Transformation      ....       0.000 sec  (  0.0%)
Orbital Orthonormalization  ....       0.000 sec  (  0.0%)
DIIS solution               ....       0.068 sec  (  4.4%)

-------------------------   --------------------
FINAL SINGLE POINT ENERGY      -103.588444392880
-------------------------   --------------------


                            ***************************************
                            *     ORCA property calculations      *
                            ***************************************

                                    ---------------------
                                    Active property flags
                                    ---------------------
   (+) Dipole Moment


------------------------------------------------------------------------------
                       ORCA ELECTRIC PROPERTIES CALCULATION
------------------------------------------------------------------------------

Dipole Moment Calculation                       ... on
Quadrupole Moment Calculation                   ... off
Polarizability Calculation                      ... off
GBWName                                         ... 77_Ir_atom77.gbw
Electron density file                           ... 77_Ir_atom77.scfp
The origin for moment calculation is the CENTER OF MASS  = ( 0.000000,  0.000000  0.000000)

-------------
DIPOLE MOMENT
-------------
                                X             Y             Z
Electronic contribution:     -0.00000      -0.00000       0.00000
Nuclear contribution   :      0.00000       0.00000       0.00000
                        -----------------------------------------
Total Dipole Moment    :     -0.00000      -0.00000       0.00000
                        -----------------------------------------
Magnitude (a.u.)       :      0.00000
Magnitude (Debye)      :      0.00000



--------------------
Rotational spectrum 
--------------------
 
Rotational constants in cm-1:     0.000000     0.000000     0.000000 
Rotational constants in MHz :     0.000000     0.000000     0.000000 

 Dipole components along the rotational axes: 
x,y,z [a.u.] :    -0.000000    -0.000000     0.000000 
x,y,z [Debye]:    -0.000000    -0.000000     0.000000 

 

Timings for individual modules:

Sum of individual times         ...        5.631 sec (=   0.094 min)
GTO integral calculation        ...        4.078 sec (=   0.068 min)  72.4 %
SCF iterations                  ...        1.553 sec (=   0.026 min)  27.6 %
                             ****ORCA TERMINATED NORMALLY****
TOTAL RUN TIME: 0 days 0 hours 0 minutes 5 seconds 859 msec
