
                                 *****************
                                 * O   R   C   A *
                                 *****************

           --- An Ab Initio, DFT and Semiempirical electronic structure package ---

                  #######################################################
                  #                        -***-                        #
                  #          Department of theory and spectroscopy      #
                  #               Directorship: Frank Neese             #
                  #        Max Planck Institute fuer Kohlenforschung    #
                  #                Kaiser Wilhelm Platz 1               #
                  #                 D-45470 Muelheim/Ruhr               #
                  #                      Germany                        #
                  #                                                     #
                  #                  All rights reserved                #
                  #                        -***-                        #
                  #######################################################


                         Program Version 4.2.0 -  RELEASE  -


 With contributions from (in alphabetic order):
   Daniel Aravena         : Magnetic Suceptibility
   Michael Atanasov       : Ab Initio Ligand Field Theory (pilot matlab implementation)
   Alexander A. Auer      : GIAO ZORA, VPT2
   Ute Becker             : Parallelization
   Giovanni Bistoni       : ED, misc. LED, open-shell LED, HFLED
   Martin Brehm           : Molecular dynamics
   Dmytro Bykov           : SCF Hessian
   Vijay G. Chilkuri      : MRCI spin determinant printing, contributions to CSF-ICE
   Dipayan Datta          : RHF DLPNO-CCSD density
   Achintya Kumar Dutta   : EOM-CC, STEOM-CC
   Dmitry Ganyushin       : Spin-Orbit,Spin-Spin,Magnetic field MRCI
   Miquel Garcia          : C-PCM Hessian, Gaussian charge scheme
   Yang Guo               : DLPNO-NEVPT2, CIM, IAO-localization
   Andreas Hansen         : Spin unrestricted coupled pair/coupled cluster methods
   Benjamin Helmich-Paris : CASSCF linear response (MC-RPA)
   Lee Huntington         : MR-EOM, pCC
   Robert Izsak           : Overlap fitted RIJCOSX, COSX-SCS-MP3, EOM
   Christian Kollmar      : KDIIS, OOCD, Brueckner-CCSD(T), CCSD density
   Simone Kossmann        : Meta GGA functionals, TD-DFT gradient, OOMP2, MP2 Hessian
   Martin Krupicka        : AUTO-CI
   Lucas Lang             : DCDCAS
   Dagmar Lenk            : GEPOL surface, SMD
   Dimitrios Liakos       : Extrapolation schemes; Compound Job, initial MDCI parallelization
   Dimitrios Manganas     : Further ROCIS development; embedding schemes
   Dimitrios Pantazis     : SARC Basis sets
   Taras Petrenko         : DFT Hessian,TD-DFT gradient, ASA, ECA, R-Raman, ABS, FL, XAS/XES, NRVS
   Peter Pinski           : DLPNO-MP2, DLPNO-MP2 Gradient
   Christoph Reimann      : Effective Core Potentials
   Marius Retegan         : Local ZFS, SOC
   Christoph Riplinger    : Optimizer, TS searches, QM/MM, DLPNO-CCSD(T), (RO)-DLPNO pert. Triples
   Tobias Risthaus        : Range-separated hybrids, TD-DFT gradient, RPA, STAB
   Michael Roemelt        : Original ROCIS implementation
   Masaaki Saitow         : Open-shell DLPNO-CCSD energy and density
   Barbara Sandhoefer     : DKH picture change effects
   Avijit Sen             : IP-ROCIS
   Kantharuban Sivalingam : CASSCF convergence, NEVPT2, FIC-MRCI
   Bernardo de Souza      : ESD, SOC TD-DFT
   Georgi Stoychev        : AutoAux, RI-MP2 NMR
   Willem Van den Heuvel  : Paramagnetic NMR
   Boris Wezisla          : Elementary symmetry handling
   Frank Wennmohs         : Technical directorship


 We gratefully acknowledge several colleagues who have allowed us to
 interface, adapt or use parts of their codes:
   Stefan Grimme, W. Hujo, H. Kruse,             : VdW corrections, initial TS optimization,
                  C. Bannwarth                     DFT functionals, gCP, sTDA/sTD-DF
   Ed Valeev, F. Pavosevic, A. Kumar             : LibInt (2-el integral package), F12 methods
   Garnet Chan, S. Sharma, J. Yang, R. Olivares  : DMRG
   Ulf Ekstrom                                   : XCFun DFT Library
   Mihaly Kallay                                 : mrcc  (arbitrary order and MRCC methods)
   Andreas Klamt, Michael Diedenhofen            : otool_cosmo (COSMO solvation model)
   Jiri Pittner, Ondrej Demel                    : Mk-CCSD
   Frank Weinhold                                : gennbo (NPA and NBO analysis)
   Christopher J. Cramer and Donald G. Truhlar   : smd solvation model
   Lars Goerigk                                  : TD-DFT with DH, B97 family of functionals
   V. Asgeirsson, H. Jonsson                     : NEB implementation
   FAccTs GmbH                                   : IRC, NEB, NEB-TS, Multilevel, MM, QM/MM, CI optimization
   S Lehtola, MJT Oliveira, MAL Marques          : LibXC Library


 Your calculation uses the libint2 library for the computation of 2-el integrals
 For citations please refer to: http://libint.valeyev.net

 Your ORCA version has been built with support for libXC version: 4.2.3
 For citations please refer to: https://tddft.org/programs/libxc/

 This ORCA versions uses:
   CBLAS   interface :  Fast vector & matrix operations
   LAPACKE interface :  Fast linear algebra routines
   SCALAPACK package :  Parallel linear algebra routines


Setting NCore(Pt) from 46 to 60
----- Orbital basis set information -----
Your calculation utilizes the basis: aug-cc-pVTZ-PP 
       Ca, Sr, Ba, Ra : Obtained from the Peterson Research Group Website (tyr0.chem.wsu.edu/~kipeters) Feb. 2017
                        H. Li, H. Feng, W. Sun, Y. Zhang, Q. Fan, K. A. Peterson, Y. Xie, H. F. Schaefer III, Mol. Phys. 111, 2292 (2013)
  Cu-Zn, Ag-Cd, Au-Hg : Obtained from the ccRepo (grant-hill.group.shef.ac.uk/ccrepo) Feb. 2017
                        K. A. Peterson, C. Puzzarini, Theor. Chem. Acc. 114, 283 (2005)
  Ga-Kr, In-Xe, Tl-Rn : Obtained from the ccRepo (grant-hill.group.shef.ac.uk/ccrepo) Feb. 2017
                        K. A. Peterson, J. Chem. Phys. 119, 11099 (2003)
                        K. A. Peterson, D. Figgen, E. Goll, H. Stoll, M. Dolg, J. Chem. Phys. 119, 11113 (2003)
                 Y-Pd : Obtained from the ccRepo (grant-hill.group.shef.ac.uk/ccrepo) Feb. 2017
                        K. A. Peterson, D. Figgen, M. Dolg, H. Stoll, J. Chem. Phys. 126, 124101 (2007)
                Hf-Pt : Obtained from the ccRepo (grant-hill.group.shef.ac.uk/ccrepo) Feb. 2017
                        D. Figgen, K. A. Peterson, M. Dolg, H. Stoll, J. Chem. Phys. 130, 164108 (2009)

cite the ECPs for Pt [SK MCDHF RSC] as follows:
O: B. Metz and H. Stoll, private communication (KAP)
Tl: B. Metz, M. Schweizer, H. Stoll, M. Dolg, W. Liu, Theor. Chem. Acc. 104, 22 (2000)
Ga-As, In-Sb, Pb-Bi: B. Metz, H. Stoll, M. Dolg, J. Chem. Phys. 113, 2563 (2000)
Se-Kr, Te-Xe, Po-Rn: K.A. Peterson, D. Figgen, E. Goll, H. Stoll, and M. Dolg, J. Chem. Phys., in press (2003)
Cu-Zn, Ag-Cd, Au-Hg: D. Figgen, G. Rauhut, M. Dolg, and H. Stoll, Chem. Phys. 311, 227 (2005)
Y-Pd: K.A. Peterson, D. Figgen, M. Dolg, H. Stoll, J. Chem. Phys. 126, 124101 (2007)
I: K. A. Peterson, B. C. Shepler, D. Figgen, H. Stoll, J. Phys. Chem. A 110, 13877 (2006)
Hf-Pt: D. Figgen, K.A. Peterson, M. Dolg, H. Stoll, J. Chem. Phys. 130, 164108 (2009)
Ca, Sr, Ba, Ra: I.S. Lim, H. Stoll, P. Schwerdtfeger, J. Chem. Phys. 124, 034107 (2006)

ECP parameters for Pt [SK MCDHF RSC] have been obtained from:
cc-pVDZ-PP  EMSL  Basis Set Exchange Library   4/7/16 5:27 AM
Ca, Sr, Ba, Ra: http://www.tc.uni-koeln.de/PP/index.en.html 3/16/17 1:54 PM

================================================================================
                                        WARNINGS
                       Please study these warnings very carefully!
================================================================================


WARNING: your system is open-shell and RHF/RKS was chosen
  ===> : WILL SWITCH to UHF/UKS


WARNING: MDCI localization with Augmented Hessian Foster-Boys
  ===> : Switching off randomization!

WARNING: Post HF methods need fully converged wavefunctions
  ===> : Setting SCFConvForced true
         You can overwrite this default with %scf ConvForced false 


INFO   : the flag for use of LIBINT has been found!

================================================================================
                                       INPUT FILE
================================================================================
NAME = 78_Pt.in
|  1> #
|  2> # 78_Pt CCSD(T)/aug-cc-pVTZ-PP
|  3> #
|  4> ! CCSD(T) aug-cc-pVTZ-PP tightscf veryslowconv kdiis
|  5> 
|  6> *xyz 0 3
|  7>  Pt 0.0 0.0 0.0
|  8> *
|  9> 
| 10> %maxcore 5000 
| 11> 
| 12> %pal
| 13> nprocs 24
| 14> end
| 15> 
| 16> %method
| 17> NewNCore Pt 60 end
| 18> end
| 19> 
| 20> 
| 21>                          ****END OF INPUT****
================================================================================

                       ****************************
                       * Single Point Calculation *
                       ****************************

---------------------------------
CARTESIAN COORDINATES (ANGSTROEM)
---------------------------------
  Pt     0.000000    0.000000    0.000000

----------------------------
CARTESIAN COORDINATES (A.U.)
----------------------------
  NO LB      ZA    FRAG     MASS         X           Y           Z
   0 Pt   18.0000*   0   195.090    0.000000    0.000000    0.000000
* core charge reduced due to ECP

--------------------------------
INTERNAL COORDINATES (ANGSTROEM)
--------------------------------
 Pt     0   0   0     0.000000000000     0.00000000     0.00000000

---------------------------
INTERNAL COORDINATES (A.U.)
---------------------------
 Pt     0   0   0     0.000000000000     0.00000000     0.00000000

---------------------
BASIS SET INFORMATION
---------------------
There are 1 groups of distinct atoms

 Group   1 Type Pt  : 38s34p23d3f2g contracted to 6s6p5d3f2g pattern {999911/888811/77711/111/11}

Atom   0Pt   basis set group =>   1
-------------------------
ECP PARAMETER INFORMATION
-------------------------

 Group 1, Type Pt ECP SK MCDHF RSC (replacing 60 core electrons, lmax=5)

Atom   0Pt   ECP group =>   1



           ************************************************************
           *        Program running with 24 parallel MPI-processes    *
           *              working on a common directory               *
           ************************************************************
------------------------------------------------------------------------------
                           ORCA GTO INTEGRAL CALCULATION
------------------------------------------------------------------------------

                         BASIS SET STATISTICS AND STARTUP INFO

 # of primitive gaussian shells          ...  100
 # of primitive gaussian functions       ...  294
 # of contracted shells                  ...   22
 # of contracted basis functions         ...   88
 Highest angular momentum                ...    4
 Maximum contraction depth               ...    9
 Integral package used                   ... LIBINT
 Integral threshhold            Thresh   ...  2.500e-11
 Primitive cut-off              TCut     ...  2.500e-12


------------------------------ INTEGRAL EVALUATION ----------------------------


 * One electron integrals 

   ECP integrals                         ... done
 Pre-screening matrix                    ... done
 Shell pair data                         ... done (   0.000 sec)



           ************************************************************
           *        Program running with 24 parallel MPI-processes    *
           *              working on a common directory               *
           ************************************************************
-------------------------------------------------------------------------------
                                 ORCA SCF
-------------------------------------------------------------------------------

------------
SCF SETTINGS
------------
Hamiltonian:
 Ab initio Hamiltonian  Method          .... Hartree-Fock(GTOs)


General Settings:
 Integral files         IntName         .... 78_Pt
 Hartree-Fock type      HFTyp           .... UHF
 Total Charge           Charge          ....    0
 Multiplicity           Mult            ....    3
 Number of Electrons    NEL             ....   18
 Basis Dimension        Dim             ....   88
 Nuclear Repulsion      ENuc            ....      0.0000000000 Eh

Convergence Acceleration:
 DIIS                   CNVDIIS         .... off
 Newton-Raphson         CNVNR           .... off
 SOSCF                  CNVSOSCF        .... off
 Level Shifting         CNVShift        .... off
 Zerner damping         CNVZerner       .... off
 Static damping         CNVDamp         .... off
 Fernandez-Rico         CNVRico         .... off

SCF Procedure:
 Maximum # iterations   MaxIter         ....   125
 SCF integral mode      SCFMode         .... Direct
   Integral package                     .... LIBINT
 Reset frequency        DirectResetFreq ....    20
 Integral Threshold     Thresh          ....  2.500e-11 Eh
 Primitive CutOff       TCut            ....  2.500e-12 Eh

Convergence Tolerance:
 Convergence Check Mode ConvCheckMode   .... Total+1el-Energy
 Convergence forced     ConvForced      .... 1
 Energy Change          TolE            ....  1.000e-08 Eh
 1-El. energy change                    ....  1.000e-05 Eh


Diagonalization of the overlap matrix:
Smallest eigenvalue                        ... 6.569e-03
Time for diagonalization                   ...    0.003 sec
Threshold for overlap eigenvalues          ... 1.000e-08
Number of eigenvalues below threshold      ... 0
Time for construction of square roots      ...    0.011 sec
Total time needed                          ...    0.014 sec

-------------------
DFT GRID GENERATION
-------------------

General Integration Accuracy     IntAcc      ...  4.340
Radial Grid Type                 RadialGrid  ... Gauss-Chebyshev
Angular Grid (max. acc.)         AngularGrid ... Lebedev-110
Angular grid pruning method      GridPruning ... 3 (G Style)
Weight generation scheme         WeightScheme... Becke
Basis function cutoff            BFCut       ...    1.0000e-11
Integration weight cutoff        WCut        ...    1.0000e-14
Grids for H and He will be reduced by one unit

# of grid points (after initial pruning)     ...   3530 (   0.0 sec)
# of grid points (after weights+screening)   ...   3530 (   0.0 sec)
Grid point division into batches done        ...    0.0 sec
Reduced shell lists constructed in    0.0 sec

Total number of grid points                  ...     3530
Total number of batches                      ...       56
Average number of points per batch           ...       63
Average number of grid points per atom       ...     3530
Average number of shells per batch           ...    13.50 (61.36%)
Average number of basis functions per batch  ...    42.00 (47.73%)
Average number of large shells per batch     ...     9.75 (72.22%)
Average number of large basis fcns per batch ...    27.75 (66.07%)
Maximum spatial batch extension              ...  25.56, 38.92, 38.92 au
Average spatial batch extension              ...   1.31,  1.85,  2.08 au

Time for grid setup =    0.077 sec

------------------------------
INITIAL GUESS: MODEL POTENTIAL
------------------------------
Loading Hartree-Fock densities                     ... done
  calling /sw/apps/orca/orca_4_2_0_linux_x86-64_openmpi314/orca 78_Pt_atom78.inp > 78_Pt_atom78.out in order to generate an atomic fitting density for atom 0 (Pt with ECP) on-the-fly... 
    atom 0 (Pt), assumed electronic state with S=3: 1s2 2s2 2p6 3s2 3p6 4s2 3d10 4p6 5s2 4d10 5p6 6s2 4f14 5d8           ... done
Calculating cut-offs                               ... done
Setting up the integral package                    ... done
Initializing the effective Hamiltonian             ... done
Starting the Coulomb interaction                   ... done (   0.0 sec)
Reading the grid                                   ... done
Mapping shells                                     ... done
Starting the XC term evaluation                    ... done (   0.0 sec)
Transforming the Hamiltonian                       ... done (   0.0 sec)
Diagonalizing the Hamiltonian                      ... done (   0.0 sec)
Back transforming the eigenvectors                 ... done (   0.0 sec)
Now organizing SCF variables                       ... done
                      ------------------
                      INITIAL GUESS DONE (   6.2 sec)
                      ------------------
--------------
SCF ITERATIONS
--------------
ITER       Energy         Delta-E        Max-DP      RMS-DP      [F,P]   Gradient Norm
               ***  Starting incremental Fock matrix formation  ***
                             ****Resetting KDIIS****
                             ****Turning on KDIIS(Cayley)****
  0   -118.2795645641   0.000000000000 0.01740753  0.00053974  0.3293674   0.271500845
  1   -118.3474894704  -0.067924906293 0.02941137  0.00079941  0.2903641   0.231513162
  2   -118.4098993778  -0.062409907403 0.04730009  0.00126935  0.2331930   0.183466016
  3   -118.4753410723  -0.065441694505 0.07284101  0.00194803  0.1422702   0.112584183
  4   -118.5154630536  -0.040121981339 0.00062769  0.00001845  0.0027189   0.002754986
  5   -118.5155020546  -0.000039000973 0.00395679  0.00011610  0.0023540   0.002352390
Warning: badly conditioned DIIS matrix, 1 vectors out of 5 destroyed
  6   -118.5156105925  -0.000108537896 0.00018742  0.00000528  0.0000983   0.000069754
Warning: badly conditioned DIIS matrix, 1 vectors out of 5 destroyed
  7   -118.5156107278  -0.000000135353 0.00002917  0.00000060  0.0000126   0.000009776
  8   -118.5156107297  -0.000000001825 0.00001156  0.00000018  0.0000060   0.000006467
Warning: badly conditioned DIIS matrix, 1 vectors out of 5 destroyed
  9   -118.5156107303  -0.000000000647 0.00001093  0.00000011  0.0000054   0.000001901
                 **** Energy Check signals convergence ****
                    *** KDIIS BlockDiag (12.898 sec) ***

               *****************************************************
               *                     SUCCESS                       *
               *           SCF CONVERGED AFTER  10 CYCLES          *
               *****************************************************


----------------
TOTAL SCF ENERGY
----------------

Total Energy       :         -118.51561073 Eh           -3224.97372 eV

Components:
Nuclear Repulsion  :            0.00000000 Eh               0.00000 eV
Electronic Energy  :         -118.51561073 Eh           -3224.97372 eV
One Electron Energy:         -208.94022812 Eh           -5685.55266 eV
Two Electron Energy:           90.42461739 Eh            2460.57893 eV

Virial components:
Potential Energy   :         -159.03616267 Eh           -4327.59400 eV
Kinetic Energy     :           40.52055194 Eh            1102.62027 eV
Virial Ratio       :            3.92482716


---------------
SCF CONVERGENCE
---------------

  Last Energy change         ...   -1.8373e-10  Tolerance :   1.0000e-08
  Last MAX-Density change    ...    4.5209e-05  Tolerance :   1.0000e-07
  Last RMS-Density change    ...    4.3610e-07  Tolerance :   5.0000e-09

             **** THE GBW FILE WAS UPDATED (78_Pt.gbw) ****
             **** DENSITY FILE WAS UPDATED (78_Pt.scfp) ****
             **** ENERGY FILE WAS UPDATED (78_Pt.en.tmp) ****
----------------------
UHF SPIN CONTAMINATION
----------------------

Expectation value of <S**2>     :     2.002492
Ideal value S*(S+1) for S=1.0   :     2.000000
Deviation                       :     0.002492

             **** THE GBW FILE WAS UPDATED (78_Pt.gbw) ****
             **** DENSITY FILE WAS UPDATED (78_Pt.scfp) ****
----------------
ORBITAL ENERGIES
----------------
                 SPIN UP ORBITALS
  NO   OCC          E(Eh)            E(eV) 
   0   1.0000      -4.414568      -120.1265 
   1   1.0000      -2.623156       -71.3797 
   2   1.0000      -2.569254       -69.9129 
   3   1.0000      -2.569060       -69.9077 
   4   1.0000      -0.479373       -13.0444 
   5   1.0000      -0.431560       -11.7433 
   6   1.0000      -0.431490       -11.7414 
   7   1.0000      -0.413976       -11.2649 
   8   1.0000      -0.413976       -11.2649 
   9   1.0000      -0.291715        -7.9380 
  10   0.0000       0.018984         0.5166 
  11   0.0000       0.020973         0.5707 
  12   0.0000       0.020981         0.5709 
  13   0.0000       0.042852         1.1661 
  14   0.0000       0.060845         1.6557 
  15   0.0000       0.066186         1.8010 
  16   0.0000       0.066209         1.8016 
  17   0.0000       0.092845         2.5264 
  18   0.0000       0.093594         2.5468 
  19   0.0000       0.093598         2.5469 
  20   0.0000       0.094546         2.5727 
  21   0.0000       0.094546         2.5727 
  22   0.0000       0.211517         5.7557 
  23   0.0000       0.220629         6.0036 
  24   0.0000       0.220669         6.0047 
  25   0.0000       0.311425         8.4743 
  26   0.0000       0.316672         8.6171 
  27   0.0000       0.316689         8.6175 
  28   0.0000       0.320375         8.7179 
  29   0.0000       0.320375         8.7179 
  30   0.0000       0.451323        12.2811 
  31   0.0000       0.605798        16.4846 
  32   0.0000       0.608536        16.5591 
  33   0.0000       0.608565        16.5599 
  34   0.0000       0.614770        16.7287 
  35   0.0000       0.614770        16.7287 
  36   0.0000       0.617837        16.8122 
  37   0.0000       0.617837        16.8122 
  38   0.0000       0.784771        21.3547 
  39   0.0000       0.805668        21.9233 
  40   0.0000       0.805756        21.9257 
  41   0.0000       1.030826        28.0502 
  42   0.0000       1.050313        28.5805 
  43   0.0000       1.050355        28.5816 
  44   0.0000       1.059876        28.8407 
  45   0.0000       1.059876        28.8407 
  46   0.0000       1.522818        41.4380 
  47   0.0000       1.533318        41.7237 
  48   0.0000       1.533388        41.7256 
  49   0.0000       1.556385        42.3514 
  50   0.0000       1.556385        42.3514 
  51   0.0000       1.561017        42.4774 
  52   0.0000       1.561017        42.4774 
  53   0.0000       2.075470        56.4764 
  54   0.0000       2.079551        56.5875 
  55   0.0000       2.079609        56.5890 
  56   0.0000       2.090236        56.8782 
  57   0.0000       2.090236        56.8782 
  58   0.0000       2.101504        57.1848 
  59   0.0000       2.101504        57.1848 
  60   0.0000       2.103131        57.2291 
  61   0.0000       2.103131        57.2291 
  62   0.0000       2.639362        71.8207 
  63   0.0000       2.939482        79.9874 
  64   0.0000       2.973188        80.9046 
  65   0.0000       2.973320        80.9081 
  66   0.0000       3.539704        96.3202 
  67   0.0000       3.571812        97.1939 
  68   0.0000       3.571867        97.1954 
  69   0.0000       3.585756        97.5734 
  70   0.0000       3.585756        97.5734 
  71   0.0000       4.005813       109.0037 
  72   0.0000       4.020259       109.3968 
  73   0.0000       4.020336       109.3989 
  74   0.0000       4.051268       110.2406 
  75   0.0000       4.051268       110.2406 
  76   0.0000       4.056217       110.3753 
  77   0.0000       4.056217       110.3753 
  78   0.0000       4.940240       134.4308 
  79   0.0000       4.948245       134.6486 
  80   0.0000       4.948328       134.6509 
  81   0.0000       4.969008       135.2136 
  82   0.0000       4.969008       135.2136 
  83   0.0000       4.989190       135.7628 
  84   0.0000       4.989190       135.7628 
  85   0.0000       4.989832       135.7802 
  86   0.0000       4.989832       135.7802 
  87   0.0000      14.402629       391.9155 

                 SPIN DOWN ORBITALS
  NO   OCC          E(Eh)            E(eV) 
   0   1.0000      -4.357653      -118.5778 
   1   1.0000      -2.527359       -68.7729 
   2   1.0000      -2.527230       -68.7694 
   3   1.0000      -2.488446       -67.7141 
   4   1.0000      -0.405446       -11.0327 
   5   1.0000      -0.405323       -11.0294 
   6   1.0000      -0.370702       -10.0873 
   7   1.0000      -0.370702       -10.0873 
   8   0.0000      -0.008108        -0.2206 
   9   0.0000       0.024728         0.6729 
  10   0.0000       0.025356         0.6900 
  11   0.0000       0.025359         0.6900 
  12   0.0000       0.067285         1.8309 
  13   0.0000       0.085222         2.3190 
  14   0.0000       0.087791         2.3889 
  15   0.0000       0.089397         2.4326 
  16   0.0000       0.089403         2.4328 
  17   0.0000       0.094897         2.5823 
  18   0.0000       0.094901         2.5824 
  19   0.0000       0.095898         2.6095 
  20   0.0000       0.095898         2.6095 
  21   0.0000       0.128123         3.4864 
  22   0.0000       0.254590         6.9277 
  23   0.0000       0.256555         6.9812 
  24   0.0000       0.256558         6.9813 
  25   0.0000       0.326445         8.8830 
  26   0.0000       0.326464         8.8835 
  27   0.0000       0.330922         9.0048 
  28   0.0000       0.330922         9.0048 
  29   0.0000       0.351678         9.5696 
  30   0.0000       0.501600        13.6492 
  31   0.0000       0.631433        17.1822 
  32   0.0000       0.631433        17.1822 
  33   0.0000       0.635169        17.2838 
  34   0.0000       0.635182        17.2842 
  35   0.0000       0.636059        17.3080 
  36   0.0000       0.636059        17.3080 
  37   0.0000       0.637063        17.3354 
  38   0.0000       0.833495        22.6806 
  39   0.0000       0.839015        22.8308 
  40   0.0000       0.839032        22.8312 
  41   0.0000       1.069139        29.0928 
  42   0.0000       1.069189        29.0941 
  43   0.0000       1.081783        29.4368 
  44   0.0000       1.081784        29.4368 
  45   0.0000       1.106359        30.1056 
  46   0.0000       1.570169        42.7265 
  47   0.0000       1.570169        42.7265 
  48   0.0000       1.586982        43.1840 
  49   0.0000       1.586982        43.1840 
  50   0.0000       1.599508        43.5248 
  51   0.0000       1.599511        43.5249 
  52   0.0000       1.615706        43.9656 
  53   0.0000       2.114807        57.5468 
  54   0.0000       2.114838        57.5477 
  55   0.0000       2.114890        57.5491 
  56   0.0000       2.115201        57.5575 
  57   0.0000       2.115202        57.5576 
  58   0.0000       2.117241        57.6131 
  59   0.0000       2.117241        57.6131 
  60   0.0000       2.123962        57.7959 
  61   0.0000       2.123962        57.7959 
  62   0.0000       2.673622        72.7530 
  63   0.0000       2.979647        81.0803 
  64   0.0000       2.994589        81.4869 
  65   0.0000       2.994647        81.4885 
  66   0.0000       3.585282        97.5605 
  67   0.0000       3.585354        97.5624 
  68   0.0000       3.603750        98.0630 
  69   0.0000       3.603750        98.0630 
  70   0.0000       3.612601        98.3039 
  71   0.0000       4.053791       110.3093 
  72   0.0000       4.053791       110.3093 
  73   0.0000       4.073561       110.8472 
  74   0.0000       4.073562       110.8473 
  75   0.0000       4.073717       110.8515 
  76   0.0000       4.073750       110.8524 
  77   0.0000       4.085820       111.1808 
  78   0.0000       4.992541       135.8539 
  79   0.0000       4.992541       135.8539 
  80   0.0000       4.993931       135.8918 
  81   0.0000       4.993931       135.8918 
  82   0.0000       4.994301       135.9018 
  83   0.0000       4.994345       135.9030 
  84   0.0000       4.995568       135.9363 
  85   0.0000       5.006366       136.2301 
  86   0.0000       5.006366       136.2301 
  87   0.0000      14.409621       392.1057 

                    ********************************
                    * MULLIKEN POPULATION ANALYSIS *
                    ********************************

--------------------------------------------
MULLIKEN ATOMIC CHARGES AND SPIN POPULATIONS
--------------------------------------------
   0 Pt:   -0.000000    2.000000
Sum of atomic charges         :   -0.0000000
Sum of atomic spin populations:    2.0000000

-----------------------------------------------------
MULLIKEN REDUCED ORBITAL CHARGES AND SPIN POPULATIONS
-----------------------------------------------------
CHARGE
  0 Pts       :     3.000223  s :     3.000223
      pz      :     1.999425  p :     5.999157
      px      :     1.999867
      py      :     1.999866
      dz2     :     0.999593  d :     8.999317
      dxz     :     1.999920
      dyz     :     1.999920
      dx2y2   :     1.999941
      dxy     :     1.999943
      f0      :     0.000575  f :     0.000843
      f+1     :     0.000133
      f-1     :     0.000134
      f+2     :     0.000000
      f-2     :     0.000000
      f+3     :     0.000000
      f-3     :     0.000000
      g0      :     0.000186  g :     0.000460
      g+1     :     0.000080
      g-1     :     0.000080
      g+2     :     0.000057
      g-2     :     0.000057
      g+3     :     0.000000
      g-3     :     0.000000
      g+4     :     0.000000
      g-4     :     0.000000

SPIN
  0 Pts       :     1.000265  s :     1.000265
      pz      :     0.000266  p :     0.000495
      px      :     0.000114
      py      :     0.000115
      dz2     :     0.999581  d :     0.999530
      dxz     :    -0.000079
      dyz     :    -0.000079
      dx2y2   :     0.000055
      dxy     :     0.000052
      f0      :    -0.000266  f :    -0.000495
      f+1     :    -0.000114
      f-1     :    -0.000115
      f+2     :    -0.000000
      f-2     :    -0.000000
      f+3     :     0.000000
      f-3     :     0.000000
      g0      :     0.000151  g :     0.000205
      g+1     :     0.000079
      g-1     :     0.000079
      g+2     :    -0.000052
      g-2     :    -0.000052
      g+3     :     0.000000
      g-3     :     0.000000
      g+4     :     0.000000
      g-4     :     0.000000


                     *******************************
                     * LOEWDIN POPULATION ANALYSIS *
                     *******************************

-------------------------------------------
LOEWDIN ATOMIC CHARGES AND SPIN POPULATIONS
-------------------------------------------
   0 Pt:   -0.000000    2.000000

----------------------------------------------------
LOEWDIN REDUCED ORBITAL CHARGES AND SPIN POPULATIONS
----------------------------------------------------
CHARGE
  0 Pts       :     3.000223  s :     3.000223
      pz      :     1.999425  p :     5.999157
      px      :     1.999867
      py      :     1.999866
      dz2     :     0.999593  d :     8.999317
      dxz     :     1.999920
      dyz     :     1.999920
      dx2y2   :     1.999941
      dxy     :     1.999943
      f0      :     0.000575  f :     0.000843
      f+1     :     0.000133
      f-1     :     0.000134
      f+2     :     0.000000
      f-2     :     0.000000
      f+3     :     0.000000
      f-3     :     0.000000
      g0      :     0.000186  g :     0.000460
      g+1     :     0.000080
      g-1     :     0.000080
      g+2     :     0.000057
      g-2     :     0.000057
      g+3     :     0.000000
      g-3     :     0.000000
      g+4     :     0.000000
      g-4     :     0.000000

SPIN
  0 Pts       :     1.000265  s :     1.000265
      pz      :     0.000266  p :     0.000495
      px      :     0.000114
      py      :     0.000115
      dz2     :     0.999581  d :     0.999530
      dxz     :    -0.000079
      dyz     :    -0.000079
      dx2y2   :     0.000055
      dxy     :     0.000052
      f0      :    -0.000266  f :    -0.000495
      f+1     :    -0.000114
      f-1     :    -0.000115
      f+2     :    -0.000000
      f-2     :    -0.000000
      f+3     :     0.000000
      f-3     :     0.000000
      g0      :     0.000151  g :     0.000205
      g+1     :     0.000079
      g-1     :     0.000079
      g+2     :    -0.000052
      g-2     :    -0.000052
      g+3     :     0.000000
      g-3     :     0.000000
      g+4     :     0.000000
      g-4     :     0.000000


                      *****************************
                      * MAYER POPULATION ANALYSIS *
                      *****************************

  NA   - Mulliken gross atomic population
  ZA   - Total nuclear charge
  QA   - Mulliken gross atomic charge
  VA   - Mayer's total valence
  BVA  - Mayer's bonded valence
  FA   - Mayer's free valence

  ATOM       NA         ZA         QA         VA         BVA        FA
  0 Pt    18.0000    18.0000    -0.0000     2.0050     0.0000     2.0050

  Mayer bond orders larger than 0.100000


-------
TIMINGS
-------

Total SCF time: 0 days 0 hours 0 min 13 sec 

Total time                  ....      13.122 sec
Sum of individual times     ....      12.637 sec  ( 96.3%)

Fock matrix formation       ....       6.261 sec  ( 47.7%)
Diagonalization             ....       0.066 sec  (  0.5%)
Density matrix formation    ....       0.005 sec  (  0.0%)
Population analysis         ....       0.071 sec  (  0.5%)
Initial guess               ....       6.156 sec  ( 46.9%)
Orbital Transformation      ....       0.000 sec  (  0.0%)
Orbital Orthonormalization  ....       0.000 sec  (  0.0%)
DIIS solution               ....       0.000 sec  (  0.0%)


           ************************************************************
           *        Program running with 24 parallel MPI-processes    *
           *              working on a common directory               *
           ************************************************************


------------------------------------------------------------------------------- 
                              ORCA-MATRIX DRIVEN CI                            
------------------------------------------------------------------------------- 

--------------------------------
AUTOMATIC CHOICE OF INCORE LEVEL
--------------------------------

Memory available                           ...   2500.00 MB
Memory needed for S+T                      ...      7.66 MB
Memory needed for J+K                      ...     15.38 MB
Memory needed for DIIS                     ...    107.22 MB
Memory needed for 3-ext                    ...     36.21 MB
Memory needed for 4-ext                    ...    143.01 MB
Memory needed for triples                  ...     18.10 MB
 -> Final InCoreLevel    ... 5
 -> check shows that triples correction can be computed


Wavefunction type
-----------------
Correlation treatment                      ...      CCSD     
Single excitations                         ... ON
Orbital optimization                       ... OFF
Calculation of Z vector                    ... OFF
Calculation of Brueckner orbitals          ... OFF
Perturbative triple excitations            ... ON
Calculation of F12 correction              ... OFF
Frozen core treatment                      ... chemical core (0 el)
Reference Wavefunction                     ... UHF
  Alpha-MOs occ    :     0 ...    9 ( 10 MO's/ 10 electrons)
  Beta-MOs occ     :     0 ...    7 (  8 MO's/  8 electrons)
  Alpha-MOs virt   :    10 ...   87 ( 78 MO's              )
  Beta-MOs virt    :     8 ...   87 ( 80 MO's              )
Number of AO's                             ...     88
Number of electrons                        ...     18
Number of correlated electrons             ...     18

Algorithmic settings
--------------------
Integral transformation                    ... AO direct full transformation
K(C) Formation                             ... FULL-MO TRAFO
Maximum number of iterations               ...        50
Convergence tolerance (max. residuum)      ... 1.000e-05
Level shift for amplitude update           ... 2.000e-01
Maximum number of DIIS vectors             ...         7
DIIS turned on at iteration                ...         0
Damping before turning on DIIS             ...     0.500
Damping after turning on DIIS              ...     0.000
Pair specific amplitude update             ... OFF
Natural orbital iterations                 ... OFF
Perturbative natural orbital generation    ... OFF
Printlevel                                 ... 2

Memory handling:
----------------
Maximum memory for working arrays          ...   2500 MB
Data storage in matrix containers          ... UNCOMPRESSED
Data type for integral storage             ... DOUBLE
In-Core Storage of quantities:
   Amplitudes+Sigma Vector      ... YES
   J+K operators                ... YES
   DIIS vectors                 ... YES
   3-external integrals         ... YES
   4-external integrals         ... YES


Initializing the integral package          ... done
Warning: reference  - re-canonicalizations have been set to INT 1 VIRT 1

--------------------------
UNRESTRICTED FOCK OPERATOR
--------------------------

<ss|ss>:          231 b            0 skpd (  0.0%)    0.002 s ( 0.007 ms/b)
<ss|sp>:          756 b            0 skpd (  0.0%)    0.013 s ( 0.017 ms/b)
<ss|sd>:          630 b            0 skpd (  0.0%)    0.010 s ( 0.016 ms/b)
<ss|sf>:          378 b            0 skpd (  0.0%)    0.001 s ( 0.002 ms/b)
<ss|sg>:          252 b            0 skpd (  0.0%)    0.001 s ( 0.005 ms/b)
<ss|pp>:          441 b            0 skpd (  0.0%)    0.009 s ( 0.021 ms/b)
<ss|pd>:          630 b            0 skpd (  0.0%)    0.010 s ( 0.016 ms/b)
<ss|pf>:          378 b            0 skpd (  0.0%)    0.001 s ( 0.003 ms/b)
<ss|pg>:          252 b            0 skpd (  0.0%)    0.002 s ( 0.007 ms/b)
<ss|dd>:          315 b            0 skpd (  0.0%)    0.008 s ( 0.025 ms/b)
<ss|df>:          315 b            0 skpd (  0.0%)    0.002 s ( 0.005 ms/b)
<ss|dg>:          210 b            0 skpd (  0.0%)    0.003 s ( 0.012 ms/b)
<ss|ff>:          126 b            0 skpd (  0.0%)    0.000 s ( 0.003 ms/b)
<ss|fg>:          126 b            0 skpd (  0.0%)    0.001 s ( 0.005 ms/b)
<ss|gg>:           63 b            0 skpd (  0.0%)    0.001 s ( 0.014 ms/b)
<sp|sp>:          666 b            0 skpd (  0.0%)    0.011 s ( 0.017 ms/b)
<sp|sd>:         1080 b            0 skpd (  0.0%)    0.018 s ( 0.016 ms/b)
<sp|sf>:          648 b            0 skpd (  0.0%)    0.002 s ( 0.003 ms/b)
<sp|sg>:          432 b            0 skpd (  0.0%)    0.003 s ( 0.008 ms/b)
<sp|pp>:          756 b            0 skpd (  0.0%)    0.015 s ( 0.020 ms/b)
<sp|pd>:         1080 b            0 skpd (  0.0%)    0.020 s ( 0.019 ms/b)
<sp|pf>:          648 b            0 skpd (  0.0%)    0.004 s ( 0.006 ms/b)
<sp|pg>:          432 b            0 skpd (  0.0%)    0.005 s ( 0.013 ms/b)
<sp|dd>:          540 b            0 skpd (  0.0%)    0.024 s ( 0.045 ms/b)
<sp|df>:          540 b            0 skpd (  0.0%)    0.005 s ( 0.010 ms/b)
<sp|dg>:          360 b            0 skpd (  0.0%)    0.008 s ( 0.021 ms/b)
<sp|ff>:          216 b            0 skpd (  0.0%)    0.001 s ( 0.006 ms/b)
<sp|fg>:          216 b            0 skpd (  0.0%)    0.002 s ( 0.009 ms/b)
<sp|gg>:          108 b            0 skpd (  0.0%)    0.003 s ( 0.029 ms/b)
<sd|sd>:          465 b            0 skpd (  0.0%)    0.013 s ( 0.028 ms/b)
<sd|sf>:          540 b            0 skpd (  0.0%)    0.003 s ( 0.006 ms/b)
<sd|sg>:          360 b            0 skpd (  0.0%)    0.005 s ( 0.013 ms/b)
<sd|pp>:          630 b            0 skpd (  0.0%)    0.017 s ( 0.027 ms/b)
<sd|pd>:          900 b            0 skpd (  0.0%)    0.028 s ( 0.032 ms/b)
<sd|pf>:          540 b            0 skpd (  0.0%)    0.006 s ( 0.010 ms/b)
<sd|pg>:          360 b            0 skpd (  0.0%)    0.010 s ( 0.028 ms/b)
<sd|dd>:          450 b            0 skpd (  0.0%)    0.037 s ( 0.083 ms/b)
<sd|df>:          450 b            0 skpd (  0.0%)    0.010 s ( 0.022 ms/b)
<sd|dg>:          300 b            0 skpd (  0.0%)    0.016 s ( 0.053 ms/b)
<sd|ff>:          180 b            0 skpd (  0.0%)    0.003 s ( 0.015 ms/b)
<sd|fg>:          180 b            0 skpd (  0.0%)    0.004 s ( 0.022 ms/b)
<sd|gg>:           90 b            0 skpd (  0.0%)    0.006 s ( 0.063 ms/b)
<sf|sf>:          171 b            0 skpd (  0.0%)    0.001 s ( 0.005 ms/b)
<sf|sg>:          216 b            0 skpd (  0.0%)    0.001 s ( 0.006 ms/b)
<sf|pp>:          378 b            0 skpd (  0.0%)    0.004 s ( 0.011 ms/b)
<sf|pd>:          540 b            0 skpd (  0.0%)    0.008 s ( 0.014 ms/b)
<sf|pf>:          324 b            0 skpd (  0.0%)    0.002 s ( 0.005 ms/b)
<sf|pg>:          216 b            0 skpd (  0.0%)    0.003 s ( 0.015 ms/b)
<sf|dd>:          270 b            0 skpd (  0.0%)    0.011 s ( 0.042 ms/b)
<sf|df>:          270 b            0 skpd (  0.0%)    0.003 s ( 0.012 ms/b)
<sf|dg>:          180 b            0 skpd (  0.0%)    0.005 s ( 0.029 ms/b)
<sf|ff>:          108 b            0 skpd (  0.0%)    0.002 s ( 0.014 ms/b)
<sf|fg>:          108 b            0 skpd (  0.0%)    0.002 s ( 0.015 ms/b)
<sf|gg>:           54 b            0 skpd (  0.0%)    0.002 s ( 0.042 ms/b)
<sg|sg>:           78 b            0 skpd (  0.0%)    0.002 s ( 0.024 ms/b)
<sg|pp>:          252 b            0 skpd (  0.0%)    0.006 s ( 0.022 ms/b)
<sg|pd>:          360 b            0 skpd (  0.0%)    0.010 s ( 0.029 ms/b)
<sg|pf>:          216 b            0 skpd (  0.0%)    0.002 s ( 0.010 ms/b)
<sg|pg>:          144 b            0 skpd (  0.0%)    0.005 s ( 0.031 ms/b)
<sg|dd>:          180 b            0 skpd (  0.0%)    0.015 s ( 0.082 ms/b)
<sg|df>:          180 b            0 skpd (  0.0%)    0.004 s ( 0.025 ms/b)
<sg|dg>:          120 b            0 skpd (  0.0%)    0.007 s ( 0.060 ms/b)
<sg|ff>:           72 b            0 skpd (  0.0%)    0.001 s ( 0.018 ms/b)
<sg|fg>:           72 b            0 skpd (  0.0%)    0.002 s ( 0.029 ms/b)
<sg|gg>:           36 b            0 skpd (  0.0%)    0.003 s ( 0.087 ms/b)
<pp|pp>:          231 b            0 skpd (  0.0%)    0.014 s ( 0.060 ms/b)
<pp|pd>:          630 b            0 skpd (  0.0%)    0.025 s ( 0.039 ms/b)
<pp|pf>:          378 b            0 skpd (  0.0%)    0.005 s ( 0.013 ms/b)
<pp|pg>:          252 b            0 skpd (  0.0%)    0.008 s ( 0.033 ms/b)
<pp|dd>:          315 b            0 skpd (  0.0%)    0.032 s ( 0.102 ms/b)
<pp|df>:          315 b            0 skpd (  0.0%)    0.008 s ( 0.027 ms/b)
<pp|dg>:          210 b            0 skpd (  0.0%)    0.013 s ( 0.063 ms/b)
<pp|ff>:          126 b            0 skpd (  0.0%)    0.002 s ( 0.019 ms/b)
<pp|fg>:          126 b            0 skpd (  0.0%)    0.003 s ( 0.027 ms/b)
<pp|gg>:           63 b            0 skpd (  0.0%)    0.005 s ( 0.080 ms/b)
<pd|pd>:          465 b            0 skpd (  0.0%)    0.050 s ( 0.107 ms/b)
<pd|pf>:          540 b            0 skpd (  0.0%)    0.012 s ( 0.022 ms/b)
<pd|pg>:          360 b            0 skpd (  0.0%)    0.023 s ( 0.063 ms/b)
<pd|dd>:          450 b            0 skpd (  0.0%)    0.081 s ( 0.180 ms/b)
<pd|df>:          450 b            0 skpd (  0.0%)    0.023 s ( 0.051 ms/b)
<pd|dg>:          300 b            0 skpd (  0.0%)    0.036 s ( 0.120 ms/b)
<pd|ff>:          180 b            0 skpd (  0.0%)    0.007 s ( 0.037 ms/b)
<pd|fg>:          180 b            0 skpd (  0.0%)    0.010 s ( 0.054 ms/b)
<pd|gg>:           90 b            0 skpd (  0.0%)    0.014 s ( 0.156 ms/b)
<pf|pf>:          171 b            0 skpd (  0.0%)    0.003 s ( 0.020 ms/b)
<pf|pg>:          216 b            0 skpd (  0.0%)    0.007 s ( 0.034 ms/b)
<pf|dd>:          270 b            0 skpd (  0.0%)    0.021 s ( 0.079 ms/b)
<pf|df>:          270 b            0 skpd (  0.0%)    0.007 s ( 0.024 ms/b)
<pf|dg>:          180 b            0 skpd (  0.0%)    0.010 s ( 0.058 ms/b)
<pf|ff>:          108 b            0 skpd (  0.0%)    0.003 s ( 0.024 ms/b)
<pf|fg>:          108 b            0 skpd (  0.0%)    0.004 s ( 0.034 ms/b)
<pf|gg>:           54 b            0 skpd (  0.0%)    0.005 s ( 0.093 ms/b)
<pg|pg>:           78 b            0 skpd (  0.0%)    0.008 s ( 0.106 ms/b)
<pg|dd>:          180 b            0 skpd (  0.0%)    0.029 s ( 0.160 ms/b)
<pg|df>:          180 b            0 skpd (  0.0%)    0.008 s ( 0.047 ms/b)
<pg|dg>:          120 b            0 skpd (  0.0%)    0.013 s ( 0.111 ms/b)
<pg|ff>:           72 b            0 skpd (  0.0%)    0.003 s ( 0.036 ms/b)
<pg|fg>:           72 b            0 skpd (  0.0%)    0.004 s ( 0.058 ms/b)
<pg|gg>:           36 b            0 skpd (  0.0%)    0.006 s ( 0.178 ms/b)
<dd|dd>:          120 b            0 skpd (  0.0%)    0.070 s ( 0.586 ms/b)
<dd|df>:          225 b            0 skpd (  0.0%)    0.021 s ( 0.092 ms/b)
<dd|dg>:          150 b            0 skpd (  0.0%)    0.034 s ( 0.224 ms/b)
<dd|ff>:           90 b            0 skpd (  0.0%)    0.006 s ( 0.065 ms/b)
<dd|fg>:           90 b            0 skpd (  0.0%)    0.009 s ( 0.099 ms/b)
<dd|gg>:           45 b            0 skpd (  0.0%)    0.013 s ( 0.294 ms/b)
<df|df>:          120 b            0 skpd (  0.0%)    0.009 s ( 0.075 ms/b)
<df|dg>:          150 b            0 skpd (  0.0%)    0.014 s ( 0.094 ms/b)
<df|ff>:           90 b            0 skpd (  0.0%)    0.004 s ( 0.041 ms/b)
<df|fg>:           90 b            0 skpd (  0.0%)    0.005 s ( 0.057 ms/b)
<df|gg>:           45 b            0 skpd (  0.0%)    0.007 s ( 0.161 ms/b)
<dg|dg>:           55 b            0 skpd (  0.0%)    0.016 s ( 0.294 ms/b)
<dg|ff>:           60 b            0 skpd (  0.0%)    0.003 s ( 0.058 ms/b)
<dg|fg>:           60 b            0 skpd (  0.0%)    0.005 s ( 0.090 ms/b)
<dg|gg>:           30 b            0 skpd (  0.0%)    0.008 s ( 0.282 ms/b)
<ff|ff>:           21 b            0 skpd (  0.0%)    0.001 s ( 0.051 ms/b)
<ff|fg>:           36 b            0 skpd (  0.0%)    0.002 s ( 0.054 ms/b)
<ff|gg>:           18 b            0 skpd (  0.0%)    0.003 s ( 0.157 ms/b)
<fg|fg>:           21 b            0 skpd (  0.0%)    0.003 s ( 0.131 ms/b)
<fg|gg>:           18 b            0 skpd (  0.0%)    0.005 s ( 0.274 ms/b)
<gg|gg>:            6 b            0 skpd (  0.0%)    0.004 s ( 0.724 ms/b)
Recanonicalizing the internal orbitals
Recanonicalizing the virtual orbitals
Time needed for Fock operator              ...            1.238 sec
Reference energy                           ...   -118.515610731
Warning: for UHF the TrafoType has to be JK
Warning: for UHF the K(C)-option cannot be MO but must be AOX

-------------------------------
PARTIAL EXCHANGE TRANSFORMATION
-------------------------------

Transformation type                        ... two-operators
Generation of integrals (i,mue|j,nue)      ... ON
Generation of integrals (mue,kappa|nue,tau)... ON
Generation of integrals (i,mue|a,nue)      ... ON
Dimension of the basis                     ...   88
Number of internal alpha-MOs               ...   10 (   0-   9)
Number of internal beta-MOs                ...    8 (   0-   7)
Number of external alpha-MOs               ...   78 (  10-  87)
Number of external beta-MOs                ...   80 (   8-  87)
Pair cutoff                                ... 0.000e+00 Eh
Number of AO pairs in the trafo            ... 3916
Total Number of distinct AO pairs          ... 3916
Memory devoted for trafo                   ... 2500.0 MB 
Max. Number of MO pairs treated together   ... 42314      
Number Format for Storage                  ... Double (8 Byte)
Integral package used                      ... LIBINT

Starting integral evaluation:
    ... done with AO integral generation
Closing buffer AOK[aa] ( 0.00 GB; CompressionRatio= 0.00)
Closing buffer AOK[bb] ( 0.00 GB; CompressionRatio= 0.00)
Closing buffer AOK[ab] ( 0.00 GB; CompressionRatio= 0.00)
Closing buffer AOK[ba] ( 0.00 GB; CompressionRatio= 0.00)
Collecting buffer AOK 
Closing buffer IAAO1[aa] ( 0.00 GB; CompressionRatio= 0.00)
Closing buffer IAAO1[bb] ( 0.00 GB; CompressionRatio= 0.00)
Closing buffer IAAO1[ab] ( 0.00 GB; CompressionRatio= 0.00)
Closing buffer IAAO1[ba] ( 0.00 GB; CompressionRatio= 0.00)
Closing buffer IAAO2[aa] ( 0.00 GB; CompressionRatio= 0.00)
Closing buffer IAAO2[bb] ( 0.00 GB; CompressionRatio= 0.00)
Closing buffer IAAO2[ab] ( 0.00 GB; CompressionRatio= 0.00)
Closing buffer IAAO2[ba] ( 0.00 GB; CompressionRatio= 0.00)
Collecting buffer IAAO 
Closing buffer PRQS    ( 0.00 GB; CompressionRatio= 0.00)
Collecting buffer PRQS 
Number of alpha/alpha MO pairs in trafo    ...   55
Number of beta /beta  MO pairs in trafo    ...   36
Number of alpha/ beta MO pairs in trafo    ...   80
------------------------
SORTING OF (i,mue|j,nue)
------------------------

SORTING OF ALPHA/ALPHA PAIRS
IBATCH = 1 of  1
Closing buffer KAO[aa] ( 0.00 GB; CompressionRatio= 1.00)
Collecting buffer KAO 
SORTING OF BETA /BETA  PAIRS
IBATCH = 1 of  1
Closing buffer KAO[bb] ( 0.00 GB; CompressionRatio= 1.00)
Collecting buffer KAO 
SORTING OF ALPHA/BETA  PAIRS
IBATCH = 1 of  1
Closing buffer KAO[ab] ( 0.00 GB; CompressionRatio= 0.999806339165)
Collecting buffer KAO[ab] 
------------------------
SORTING OF (i,mue|a,nue)
------------------------

Number of alpha/alpha (i,a) pairs in trafo  ...  780
Number of beta /beta  (i,a) pairs in trafo  ...  640
Number of alpha/ beta (i,a) pairs in trafo  ...  800
Number of beta /alpha (i,a) pairs in trafo  ...  624
Setting up the alpha/alpha list             ... done
Setting up the beta /beta  list             ... done
Setting up the alpha/beta  list             ... done
Setting up the beta /alpha list             ... done
    ... Now sorting (i,mue|a,nue)integrals
    ... Integrals (i,b|a,c) will be made on the fly
SORTING OF ALPHA/ALPHA PAIRS
IBATCH = 1 of  1
Closing buffer IPAQ[aa]  0.00 GB; CompressionRatio= 1.00)
SORTING OF BETA /BETA  PAIRS
IBATCH = 1 of  1
Closing buffer IPAQ[bb]( 0.00 GB; CompressionRatio= 1.00)
SORTING OF ALPHA/BETA  PAIRS (NMatSort_ab=34)
IBATCH = 1 of  1
Closing buffer IPAQ[ab]( 0.00 GB; CompressionRatio= 1.00)
SORTING OF BETA/ALPHA  PAIRS
IBATCH = 1 of  1
Closing buffer IPAQ[ba]( 0.00 GB; CompressionRatio= 1.00)
N(AO-Batches) Done                         ...         0 
N(AO-Batches) Skipped                      ...         0 
N(IJ)-pairs Skipped                        ...         0 
TOTAL TIME for half transformation         ...     8.110 sec
AO-integral generation                     ...     0.000 sec
Half transformation                        ...     0.000 sec
K-integral sorting                         ...     1.384 sec
<ss|**>: 
------------------------------
PARTIAL COULOMB TRANSFORMATION
------------------------------

Transformation type                        ... two-operators
Dimension of the basis                     ...   88
Number of internal alpha-MOs               ...   10 (0-9)
Number of internal beta-MOs                ...    8 (0-7)
Pair cutoff                                ... 0.000e+00 Eh
Number of AO pairs included in the trafo   ... 3916
Total Number of distinct AO pairs          ... 3916
Memory devoted for trafo                   ... 2500.0 MB 
Max. Number of MO pairs treated together   ... 83677      
Max. Number of MOs treated per batch       ...  950      
Number Format for Storage                  ... Double (8 Byte)
AO-integral source                         ... DIRECT
Integral package used                      ... LIBINT

Starting integral evaluation:
<sp|**>:         5313 b        0 skpd     0.052 s (  0.010 ms/b)
<sd|**>:         9108 b        0 skpd     0.148 s (  0.016 ms/b)
<sf|**>:         7590 b        0 skpd     0.163 s (  0.022 ms/b)
        4554 b        0 skpd     0.057 s (  0.013 ms/b)
<sg|**>:         3036 b        0 skpd     0.089 s (  0.029 ms/b)
<pp|**>:         5313 b        0 skpd     0.151 s (  0.028 ms/b)
<pd|**>:         7590 b        0 skpd     0.329 s (  0.043 ms/b)
<pf|**>:         4554 b        0 skpd     0.103 s (  0.023 ms/b)
<pg|**>:         3036 b        0 skpd     0.158 s (  0.052 ms/b)
<dd|**>:         3795 b        0 skpd     0.435 s (  0.115 ms/b)
<df|**>:         3795 b        0 skpd     0.165 s (  0.044 ms/b)
<dg|**>:         2530 b        0 skpd     0.235 s (  0.093 ms/b)
<ff|**>:         1518 b        0 skpd     0.090 s (  0.059 ms/b)
<fg|**>:         1518 b        0 skpd     0.127 s (  0.083 ms/b)
<gg|**>:          759 b        0 skpd     0.137 s (  0.181 ms/b)
Closing buffer AOJ[aa] ( 0.00 GB; CompressionRatio= 0.97)
Closing buffer AOJ[bb] ( 0.00 GB; CompressionRatio= 0.00)
Collecting buffer AOJ 
    ... done with AO integral generation
Number of Alpha-MO pairs included          ...   55
Number of Beta-MO pairs included           ...   36
    ... Now sorting integrals
SORTING ALPHA/ALPHA PAIRS
IBATCH = 1 of  1
Closing buffer JAO[aa] ( 0.00 GB; CompressionRatio= 1.00)
SORTING BETA/BETA PAIRS
IBATCH = 1 of  1
Closing buffer JAO[bb] ( 0.00 GB; CompressionRatio= 1.00)
Collecting buffer JAO 
TOTAL TIME for half transformation         ...     2.612 sec
AO-integral generation                     ...     2.276 sec
Half transformation                        ...     0.172 sec
J-integral sorting                         ...     0.114 sec

-------------------------- SECOND HALF TRANSFORMATION -------------------------
Formation of (ij|kl),(ij|ka), (ij|ab)      ... ok (     0.180 sec)
Formation of (ik|jl),(ik|ja), (ia|jb)      ... ok (     0.272 sec)


-----------------------
SPIN UNRESTRICTED GUESS
-----------------------

Entering MDCI_UHF_Guess, Tailored=0
Spin-components of the MP2 energy:
EMP2(aa)=     -0.120450483
EMP2(bb)=     -0.075390923
EMP2(ab)=     -0.401433565

Initial guess performed in     0.026 sec
E(0)                                       ...   -118.515610731
E(MP2)                                     ...     -0.597274971
Initial E(tot)                             ...   -119.112885702
<T|T>                                      ...      0.133575666
Number of pairs included                   ... 153

------------------------------------------------
                  UHF COUPLED CLUSTER ITERATIONS
------------------------------------------------

Number of amplitudes to be optimized       ...       726400

Iter       E(tot)           E(Corr)          Delta-E          Residual     Time      <S|S>**1/2
  0   -119.112885702     -0.597274971     -0.000000000      0.025203201    1.80      0.000005407
                           *** Turning on DIIS ***
  1   -119.070645137     -0.555034406      0.042240565      0.007736305    1.68      0.036956478
  2   -119.082490709     -0.566879978     -0.011845572      0.004760586    1.68      0.041490999
  3   -119.083709434     -0.568098703     -0.001218725      0.002187795    1.68      0.049587597
  4   -119.084217756     -0.568607025     -0.000508322      0.000749041    1.71      0.053523237
  5   -119.084367897     -0.568757166     -0.000150141      0.000220987    1.72      0.055688058
  6   -119.084381210     -0.568770479     -0.000013313      0.000052852    1.71      0.056200567
  7   -119.084383888     -0.568773157     -0.000002678      0.000010639    1.73      0.056318554
  8   -119.084384442     -0.568773711     -0.000000554      0.000004203    1.74      0.056344268
               --- The Coupled-Cluster iterations have converged ---

----------------------
COUPLED CLUSTER ENERGY
----------------------

E(0)                                       ...   -118.515610731
E(CORR)                                    ...     -0.568773711
E(TOT)                                     ...   -119.084384442
Singles norm <S|S>**1/2                    ...      0.056344268 ( 0.035762870, 0.020581398)  
T1 diagnostic                              ...      0.013280471                              

------------------
LARGEST AMPLITUDES
------------------
   9a-> 30a  -1a-> -1a       0.042539
   9a-> 13a  -1a-> -1a       0.038833
   8a-> 52a   7a-> 51a       0.019248
   8a-> 51a   7a-> 52a       0.019248
   7b-> 49b   6b-> 48b       0.018849
   7b-> 48b   6b-> 49b       0.018849
   4b-> 25b  -1b-> -1b       0.017779
   5b-> 26b  -1b-> -1b       0.017771
   7a-> 44a   6b-> 43b       0.016062
   8a-> 45a   7b-> 44b       0.016062
   5a-> 47a   4a-> 46a       0.016039
   5a-> 46a   4a-> 47a       0.016039
   6a-> 46a   4a-> 48a       0.016003
   6a-> 48a   4a-> 46a       0.016003
   6a-> 43a   5b-> 42b       0.015941
   5a-> 42a   4b-> 41b       0.015941

----------------------
UHF TRIPLES CORRECTION (Algorithm 1)
----------------------

Multiplier for the singles contribution    ...      1.000000000

SPIN-CASE Alpha-Alpha-Alpha:
10% done
20% done
30% done
40% done
50% done
60% done
70% done
80% done
90% done


SPIN-CASE Beta-Beta-Beta:
10% done
20% done
30% done
40% done
50% done
60% done
70% done
80% done
90% done


SPIN-CASE Alpha-Alpha-Beta:
10% done
20% done
30% done
40% done
50% done
60% done
70% done
80% done
90% done


SPIN-CASE Beta-Beta-Alpha:
10% done
20% done
30% done
40% done
50% done
60% done
70% done
80% done
90% done


Triples Correction (T)                     ...     -0.022264170
    alpha-alpha-alpha ... -0.001531314 (  6.9%)
    alpha-alpha-beta  ... -0.012195501 ( 54.8%)
    alpha-beta -beta  ... -0.008061941 ( 36.2%)
    beta -beta -beta  ... -0.000475415 (  2.1%)
Scaling of triples based on CCSD energies (Peterson et al. Molecular Physics 113, 1551 (2015))
E(T*) = f*E(T) where f = E(F12-CCSD)/E(CCSD) 
f = CCSD (with F12)/ CCSD (without F12)    ...      1.000000000
Scaled triples correction (T)              ...     -0.022264170

Final correlation energy                   ...     -0.591037882
E(CCSD)                                    ...   -119.084384442
E(CCSD(T))                                 ...   -119.106648613



        !!!!!!!!!!!!!!!!!!!!!!!!!!!!!!!!!!!!!!!!!!!!!!!!!!!!!!!!!!!!!!!!!!!!!!!!!! 
        !  Warning: Densities are linearized densities                           !
        !!!!!!!!!!!!!!!!!!!!!!!!!!!!!!!!!!!!!!!!!!!!!!!!!!!!!!!!!!!!!!!!!!!!!!!!!! 

NORM  =      1.128457633 sqrt=     1.062288865
W(HF) =      0.886165302
------------------------------------------------------------------------------
                           ORCA POPULATION ANALYSIS
------------------------------------------------------------------------------
Input electron density              ... 78_Pt.mdcip
Input spin density                  ... 78_Pt.mdcir
BaseName (.gbw .S,...)              ... 78_Pt

                    ********************************
                    * MULLIKEN POPULATION ANALYSIS *
                    ********************************

------------------------------------------
MULLIKEN ATOMIC CHARGES AND SPIN DENSITIES
------------------------------------------
   0 Pt:   -0.000000    2.000000
Sum of atomic charges       :   -0.0000000
Sum of atomic spin densities:    2.0000000

---------------------------------------------------
MULLIKEN REDUCED ORBITAL CHARGES AND SPIN DENSITIES
---------------------------------------------------
CHARGE
  0 Pts       :     2.980135  s :     2.980135
      pz      :     2.005048  p :     6.025572
      px      :     2.010276
      py      :     2.010248
      dz2     :     0.997977  d :     8.885712
      dxz     :     1.972635
      dyz     :     1.972640
      dx2y2   :     1.971229
      dxy     :     1.971232
      f0      :     0.010825  f :     0.094687
      f+1     :     0.012190
      f-1     :     0.012186
      f+2     :     0.014979
      f-2     :     0.014979
      f+3     :     0.014765
      f-3     :     0.014765
      g0      :     0.001355  g :     0.013893
      g+1     :     0.001399
      g-1     :     0.001399
      g+2     :     0.001524
      g-2     :     0.001524
      g+3     :     0.001659
      g-3     :     0.001659
      g+4     :     0.001687
      g-4     :     0.001687

SPIN
  0 Pts       :     0.976859  s :     0.976859
      pz      :     0.008797  p :     0.019570
      px      :     0.005379
      py      :     0.005395
      dz2     :     0.980369  d :     0.995350
      dxz     :     0.003212
      dyz     :     0.003209
      dx2y2   :     0.004282
      dxy     :     0.004279
      f0      :     0.003594  f :     0.005994
      f+1     :     0.002161
      f-1     :     0.002165
      f+2     :    -0.000679
      f-2     :    -0.000679
      f+3     :    -0.000283
      f-3     :    -0.000283
      g0      :     0.000497  g :     0.002226
      g+1     :     0.000406
      g-1     :     0.000406
      g+2     :     0.000199
      g-2     :     0.000199
      g+3     :     0.000047
      g-3     :     0.000047
      g+4     :     0.000213
      g-4     :     0.000213


                     *******************************
                     * LOEWDIN POPULATION ANALYSIS *
                     *******************************

-----------------------------------------
LOEWDIN ATOMIC CHARGES AND SPIN DENSITIES
-----------------------------------------
   0 Pt:   -0.000000    2.000000

--------------------------------------------------
LOEWDIN REDUCED ORBITAL CHARGES AND SPIN DENSITIES
--------------------------------------------------
CHARGE
  0 Pts       :     2.980135  s :     2.980135
      pz      :     2.005048  p :     6.025572
      px      :     2.010276
      py      :     2.010248
      dz2     :     0.997977  d :     8.885712
      dxz     :     1.972635
      dyz     :     1.972640
      dx2y2   :     1.971229
      dxy     :     1.971232
      f0      :     0.010825  f :     0.094687
      f+1     :     0.012190
      f-1     :     0.012186
      f+2     :     0.014979
      f-2     :     0.014979
      f+3     :     0.014765
      f-3     :     0.014765
      g0      :     0.001355  g :     0.013893
      g+1     :     0.001399
      g-1     :     0.001399
      g+2     :     0.001524
      g-2     :     0.001524
      g+3     :     0.001659
      g-3     :     0.001659
      g+4     :     0.001687
      g-4     :     0.001687

SPIN
  0 Pts       :     0.976859  s :     0.976859
      pz      :     0.008797  p :     0.019570
      px      :     0.005379
      py      :     0.005395
      dz2     :     0.980369  d :     0.995350
      dxz     :     0.003212
      dyz     :     0.003209
      dx2y2   :     0.004282
      dxy     :     0.004279
      f0      :     0.003594  f :     0.005994
      f+1     :     0.002161
      f-1     :     0.002165
      f+2     :    -0.000679
      f-2     :    -0.000679
      f+3     :    -0.000283
      f-3     :    -0.000283
      g0      :     0.000497  g :     0.002226
      g+1     :     0.000406
      g-1     :     0.000406
      g+2     :     0.000199
      g-2     :     0.000199
      g+3     :     0.000047
      g-3     :     0.000047
      g+4     :     0.000213
      g-4     :     0.000213


                      *****************************
                      * MAYER POPULATION ANALYSIS *
                      *****************************

  NA   - Mulliken gross atomic population
  ZA   - Total nuclear charge
  QA   - Mulliken gross atomic charge
  VA   - Mayer's total valence
  BVA  - Mayer's bonded valence
  FA   - Mayer's free valence

  ATOM       NA         ZA         QA         VA         BVA        FA
  0 Pt    18.0000    18.0000    -0.0000     2.8676     0.0000     2.8676





------------------------------------------------------------------------------- 
                                     TIMINGS                                   
------------------------------------------------------------------------------- 


Total execution time                   ...       29.999 sec

Fock Matrix Formation                  ...        1.238 sec (  4.1%)
Initial Guess                          ...        0.026 sec (  0.1%)
DIIS Solver                            ...        0.457 sec (  1.5%)
State Vector Update                    ...        0.024 sec (  0.1%)
Sigma-vector construction              ...       14.982 sec ( 49.9%)
  <0|H|D>                              ...        0.002 sec (  0.0% of sigma)
  <D|H|D>(0-ext Fock)                  ...        0.009 sec (  0.1% of sigma)
  <D|H|D>(0-ext)                       ...        0.035 sec (  0.2% of sigma)
  <D|H|D>(2-ext Fock)                  ...        0.005 sec (  0.0% of sigma)
  <D|H|D>(2-ext)                       ...        0.136 sec (  0.9% of sigma)
  <D|H|D>(4-ext)                       ...        2.624 sec ( 17.5% of sigma)
  <S|H|0>                              ...        0.286 sec (  1.9% of sigma)
  <S|H|S>                              ...        0.001 sec (  0.0% of sigma)
  <S|H|D>(1-ext)                       ...        0.003 sec (  0.0% of sigma)
  <D|H|S>(1-ext)                       ...        0.044 sec (  0.3% of sigma)
  Fock-dressing                        ...       10.224 sec ( 68.2% of sigma)
  (ik|jl)-dressing                     ...        0.043 sec (  0.3% of sigma)
  (ij|ab),(ia|jb)-dressing             ...        1.227 sec (  8.2% of sigma)
  Pair energies                        ...        0.003 sec (  0.0% of sigma)
Total Time for computing (T)           ...        1.342 sec (  4.5% of ALL)
  I/O of integral and amplitudes       ...        0.242 sec ( 18.0% of (T))
  External N**7 contributions          ...        0.388 sec ( 28.9% of (T))
  Internal N**7 contributions          ...        0.199 sec ( 14.8% of (T))
  N**6 triples energy contributions    ...        0.484 sec ( 36.1% of (T))


-------------------------   --------------------
FINAL SINGLE POINT ENERGY      -119.106648612889
-------------------------   --------------------


                            ***************************************
                            *     ORCA property calculations      *
                            ***************************************

                                    ---------------------
                                    Active property flags
                                    ---------------------
   (+) Dipole Moment


------------------------------------------------------------------------------
                       ORCA ELECTRIC PROPERTIES CALCULATION
------------------------------------------------------------------------------

Dipole Moment Calculation                       ... on
Quadrupole Moment Calculation                   ... off
Polarizability Calculation                      ... off
GBWName                                         ... 78_Pt.gbw
Electron density file                           ... 78_Pt.scfp
The origin for moment calculation is the CENTER OF MASS  = ( 0.000000,  0.000000  0.000000)

-------------
DIPOLE MOMENT
-------------
                                X             Y             Z
Electronic contribution:      0.00000       0.00000       0.00000
Nuclear contribution   :      0.00000       0.00000       0.00000
                        -----------------------------------------
Total Dipole Moment    :      0.00000       0.00000       0.00000
                        -----------------------------------------
Magnitude (a.u.)       :      0.00000
Magnitude (Debye)      :      0.00000



--------------------
Rotational spectrum 
--------------------
 
Rotational constants in cm-1:     0.000000     0.000000     0.000000 
Rotational constants in MHz :     0.000000     0.000000     0.000000 

 Dipole components along the rotational axes: 
x,y,z [a.u.] :     0.000000     0.000000     0.000000 
x,y,z [Debye]:     0.000000     0.000000     0.000000 

 

                           *** MDCI DENSITY ***

------------------------------------------------------------------------------
                       ORCA ELECTRIC PROPERTIES CALCULATION
------------------------------------------------------------------------------

Dipole Moment Calculation                       ... on
Quadrupole Moment Calculation                   ... off
Polarizability Calculation                      ... off
GBWName                                         ... 78_Pt.gbw
Electron density file                           ... 78_Pt.mdcip
The origin for moment calculation is the CENTER OF MASS  = ( 0.000000,  0.000000  0.000000)

-------------
DIPOLE MOMENT
-------------
                                X             Y             Z
Electronic contribution:     -0.00000      -0.00000      -0.00000
Nuclear contribution   :      0.00000       0.00000       0.00000
                        -----------------------------------------
Total Dipole Moment    :     -0.00000      -0.00000      -0.00000
                        -----------------------------------------
Magnitude (a.u.)       :      0.00000
Magnitude (Debye)      :      0.00000



--------------------
Rotational spectrum 
--------------------
 
Rotational constants in cm-1:     0.000000     0.000000     0.000000 
Rotational constants in MHz :     0.000000     0.000000     0.000000 

 Dipole components along the rotational axes: 
x,y,z [a.u.] :    -0.000000    -0.000000    -0.000000 
x,y,z [Debye]:    -0.000000    -0.000000    -0.000000 

 

Timings for individual modules:

Sum of individual times         ...       45.289 sec (=   0.755 min)
GTO integral calculation        ...        1.127 sec (=   0.019 min)   2.5 %
SCF iterations                  ...       13.491 sec (=   0.225 min)  29.8 %
MDCI module                     ...       30.672 sec (=   0.511 min)  67.7 %
                             ****ORCA TERMINATED NORMALLY****
TOTAL RUN TIME: 0 days 0 hours 0 minutes 46 seconds 46 msec
