
                                 *****************
                                 * O   R   C   A *
                                 *****************

           --- An Ab Initio, DFT and Semiempirical electronic structure package ---

                  #######################################################
                  #                        -***-                        #
                  #          Department of theory and spectroscopy      #
                  #               Directorship: Frank Neese             #
                  #        Max Planck Institute fuer Kohlenforschung    #
                  #                Kaiser Wilhelm Platz 1               #
                  #                 D-45470 Muelheim/Ruhr               #
                  #                      Germany                        #
                  #                                                     #
                  #                  All rights reserved                #
                  #                        -***-                        #
                  #######################################################


                         Program Version 4.2.0 -  RELEASE  -


 With contributions from (in alphabetic order):
   Daniel Aravena         : Magnetic Suceptibility
   Michael Atanasov       : Ab Initio Ligand Field Theory (pilot matlab implementation)
   Alexander A. Auer      : GIAO ZORA, VPT2
   Ute Becker             : Parallelization
   Giovanni Bistoni       : ED, misc. LED, open-shell LED, HFLED
   Martin Brehm           : Molecular dynamics
   Dmytro Bykov           : SCF Hessian
   Vijay G. Chilkuri      : MRCI spin determinant printing, contributions to CSF-ICE
   Dipayan Datta          : RHF DLPNO-CCSD density
   Achintya Kumar Dutta   : EOM-CC, STEOM-CC
   Dmitry Ganyushin       : Spin-Orbit,Spin-Spin,Magnetic field MRCI
   Miquel Garcia          : C-PCM Hessian, Gaussian charge scheme
   Yang Guo               : DLPNO-NEVPT2, CIM, IAO-localization
   Andreas Hansen         : Spin unrestricted coupled pair/coupled cluster methods
   Benjamin Helmich-Paris : CASSCF linear response (MC-RPA)
   Lee Huntington         : MR-EOM, pCC
   Robert Izsak           : Overlap fitted RIJCOSX, COSX-SCS-MP3, EOM
   Christian Kollmar      : KDIIS, OOCD, Brueckner-CCSD(T), CCSD density
   Simone Kossmann        : Meta GGA functionals, TD-DFT gradient, OOMP2, MP2 Hessian
   Martin Krupicka        : AUTO-CI
   Lucas Lang             : DCDCAS
   Dagmar Lenk            : GEPOL surface, SMD
   Dimitrios Liakos       : Extrapolation schemes; Compound Job, initial MDCI parallelization
   Dimitrios Manganas     : Further ROCIS development; embedding schemes
   Dimitrios Pantazis     : SARC Basis sets
   Taras Petrenko         : DFT Hessian,TD-DFT gradient, ASA, ECA, R-Raman, ABS, FL, XAS/XES, NRVS
   Peter Pinski           : DLPNO-MP2, DLPNO-MP2 Gradient
   Christoph Reimann      : Effective Core Potentials
   Marius Retegan         : Local ZFS, SOC
   Christoph Riplinger    : Optimizer, TS searches, QM/MM, DLPNO-CCSD(T), (RO)-DLPNO pert. Triples
   Tobias Risthaus        : Range-separated hybrids, TD-DFT gradient, RPA, STAB
   Michael Roemelt        : Original ROCIS implementation
   Masaaki Saitow         : Open-shell DLPNO-CCSD energy and density
   Barbara Sandhoefer     : DKH picture change effects
   Avijit Sen             : IP-ROCIS
   Kantharuban Sivalingam : CASSCF convergence, NEVPT2, FIC-MRCI
   Bernardo de Souza      : ESD, SOC TD-DFT
   Georgi Stoychev        : AutoAux, RI-MP2 NMR
   Willem Van den Heuvel  : Paramagnetic NMR
   Boris Wezisla          : Elementary symmetry handling
   Frank Wennmohs         : Technical directorship


 We gratefully acknowledge several colleagues who have allowed us to
 interface, adapt or use parts of their codes:
   Stefan Grimme, W. Hujo, H. Kruse,             : VdW corrections, initial TS optimization,
                  C. Bannwarth                     DFT functionals, gCP, sTDA/sTD-DF
   Ed Valeev, F. Pavosevic, A. Kumar             : LibInt (2-el integral package), F12 methods
   Garnet Chan, S. Sharma, J. Yang, R. Olivares  : DMRG
   Ulf Ekstrom                                   : XCFun DFT Library
   Mihaly Kallay                                 : mrcc  (arbitrary order and MRCC methods)
   Andreas Klamt, Michael Diedenhofen            : otool_cosmo (COSMO solvation model)
   Jiri Pittner, Ondrej Demel                    : Mk-CCSD
   Frank Weinhold                                : gennbo (NPA and NBO analysis)
   Christopher J. Cramer and Donald G. Truhlar   : smd solvation model
   Lars Goerigk                                  : TD-DFT with DH, B97 family of functionals
   V. Asgeirsson, H. Jonsson                     : NEB implementation
   FAccTs GmbH                                   : IRC, NEB, NEB-TS, Multilevel, MM, QM/MM, CI optimization
   S Lehtola, MJT Oliveira, MAL Marques          : LibXC Library


 Your calculation uses the libint2 library for the computation of 2-el integrals
 For citations please refer to: http://libint.valeyev.net

 Your ORCA version has been built with support for libXC version: 4.2.3
 For citations please refer to: https://tddft.org/programs/libxc/

 This ORCA versions uses:
   CBLAS   interface :  Fast vector & matrix operations
   LAPACKE interface :  Fast linear algebra routines
   SCALAPACK package :  Parallel linear algebra routines


----- Orbital basis set information -----
Your calculation utilizes the basis: def2-SVP
   F. Weigend and R. Ahlrichs, Phys. Chem. Chem. Phys. 7, 3297 (2005).

----- AuxJ basis set information -----
Your calculation utilizes the auxiliary basis: def2/J
   F. Weigend, Phys. Chem. Chem. Phys. 8, 1057 (2006).

================================================================================
                                        WARNINGS
                       Please study these warnings very carefully!
================================================================================


INFO   : the flag for use of LIBINT has been found!

================================================================================
                                       INPUT FILE
================================================================================
NAME = 79_Au_atom79.inp
|  1> # input to generate an atomic fitting density for Au
|  2> # this file is use internally by ORCA
|  3> #
|  4> # atomic ground state (S=2): 1s2 2s2 2p6 3s2 3p6 4s2 3d10 4p6 5s2 4d10 5p6 6s1 4f14 5d10 
|  5> #
|  6> ! RHF AllowRHF def2-SVP def2/J  NoMulliken NoLoewdin NoMayer NoPrintMOs 
|  7> 
|  8> %output print[p_atomdensfit] 2 end
|  9> 
| 10> %scf
| 11>   guess hcore
| 12>   maxiter 1000
| 13>   maxdisk 500000
| 14>   SCFMode Conventional
| 15>   lshift 1.000000
| 16>   hftyp rohf
| 17>   rohf_case sahf
| 18>   rohf_numop   2
| 19>   rohf_norb[1] 1
| 20>   rohf_nel[1]  1
| 21> end
| 22> 
| 23> %basis
| 24>   NewECP 79
| 25>     N_core 60
| 26>     lmax h
| 27>     s 2
| 28>       1      13.5232180000    426.6418670000  2
| 29>       2       6.2643840000     36.8006680000  2
| 30>     p 4
| 31>       1      11.4138670000     87.0020910000  2
| 32>       2      10.3292150000    174.0043700000  2
| 33>       3       5.7074240000      8.8706100000  2
| 34>       4       4.8281650000     17.9024380000  2
| 35>     d 4
| 36>       1       7.4309630000     49.8836550000  2
| 37>       2       8.3219900000     74.6845490000  2
| 38>       3       4.6096420000      6.4862270000  2
| 39>       4       3.5115070000      9.5468210000  2
| 40>     f 2
| 41>       1       3.0846390000      8.7916400000  2
| 42>       2       3.0247430000     11.6584560000  2
| 43>     g 2
| 44>       1       3.9784420000     -5.2343370000  2
| 45>       2       4.0114910000     -6.7381420000  2
| 46>     h 1
| 47>       1       1.0000000000      0.0000000000  2
| 48>   end
| 49>   NewGTO 79
| 50>     s 9 
| 51>      1      36.0126000000      0.0190424903
| 52>      2      22.5645000000     -0.1679189593
| 53>      3      14.1620000000      0.4970291116
| 54>      4       8.8548700000     -0.2664447582
| 55>      5       5.0607200000     -0.7003941821
| 56>      6       1.4740500000      0.8737269767
| 57>      7       0.7049130000      0.5029382979
| 58>      8       0.2177870000      0.0322188249
| 59>      9       0.0974080000     -0.0055069013
| 60>     s 9 
| 61>      1      36.0126000000     -0.0090973688
| 62>      2      22.5645000000      0.0805540659
| 63>      3      14.1620000000     -0.2460974504
| 64>      4       8.8548700000      0.1539974985
| 65>      5       5.0607200000      0.3340158612
| 66>      6       1.4740500000     -0.5875246400
| 67>      7       0.7049130000     -0.4444756644
| 68>      8       0.2177870000      0.3680574983
| 69>      9       0.0974080000      0.8560923362
| 70>     s 9 
| 71>      1      36.0126000000      0.0040732211
| 72>      2      22.5645000000      0.0351782922
| 73>      3      14.1620000000     -0.1730363507
| 74>      4       8.8548700000     -0.0539647089
| 75>      5       5.0607200000      0.8284227307
| 76>      6       1.4740500000     -1.8817958434
| 77>      7       0.7049130000      0.5848172254
| 78>      8       0.2177870000      1.9573416426
| 79>      9       0.0974080000     -1.0099473032
| 80>     s 9 
| 81>      1      36.0126000000     -0.0076758473
| 82>      2      22.5645000000      0.0857325271
| 83>      3      14.1620000000     -0.2797986158
| 84>      4       8.8548700000      0.1096272582
| 85>      5       5.0607200000      0.6859916482
| 86>      6       1.4740500000     -2.5806515696
| 87>      7       0.7049130000      2.8366179486
| 88>      8       0.2177870000     -0.9227014047
| 89>      9       0.0974080000     -0.7365662948
| 90>     s 1 
| 91>      1       0.0412140000      1.0000000000
| 92>     s 1 
| 93>      1       0.0174000000      1.0000000000
| 94>     p 8 
| 95>      1      21.5954000000     -0.0132179702
| 96>      2      13.5145000000      0.0801958193
| 97>      3       6.2551400000     -0.2966853314
| 98>      4       1.7181400000      0.5289578080
| 99>      5       0.8694390000      0.4788879208
|100>      6       0.4267590000      0.1576196448
|101>      7       0.1842970000      0.0138969687
|102>      8       0.0763790000      0.0008349981
|103>     p 8 
|104>      1      21.5954000000      0.0037237624
|105>      2      13.5145000000     -0.0258801487
|106>      3       6.2551400000      0.1049133788
|107>      4       1.7181400000     -0.2294393790
|108>      5       0.8694390000     -0.2246770738
|109>      6       0.4267590000      0.0057790858
|110>      7       0.1842970000      0.4398827337
|111>      8       0.0763790000      0.6550001357
|112>     p 8 
|113>      1      21.5954000000      0.0070934282
|114>      2      13.5145000000     -0.0475427867
|115>      3       6.2551400000      0.1920941604
|116>      4       1.7181400000     -0.4641230282
|117>      5       0.8694390000     -0.4355941529
|118>      6       0.4267590000      0.4949212801
|119>      7       0.1842970000      0.6758217184
|120>      8       0.0763790000      0.1316738885
|121>     p 8 
|122>      1      21.5954000000      0.0128587569
|123>      2      13.5145000000     -0.0816401677
|124>      3       6.2551400000      0.3370138848
|125>      4       1.7181400000     -1.2490431115
|126>      5       0.8694390000      0.2247426056
|127>      6       0.4267590000      1.5684090492
|128>      7       0.1842970000     -0.8005412169
|129>      8       0.0763790000     -0.5049082448
|130>     p 1 
|131>      1       0.0312200000      1.0000000000
|132>     p 1 
|133>      1       0.0128000000      1.0000000000
|134>     d 7 
|135>      1      87.0208000000      0.0000447885
|136>      2      11.0668000000      0.0145440597
|137>      3       6.6604700000     -0.0701103485
|138>      4       1.9469600000      0.2438522122
|139>      5       0.9847060000      0.3942643373
|140>      6       0.4746550000      0.3550061659
|141>      7       0.2165580000      0.2020492375
|142>     d 7 
|143>      1      87.0208000000     -0.0000355719
|144>      2      11.0668000000     -0.0229025504
|145>      3       6.6604700000      0.1093777797
|146>      4       1.9469600000     -0.4834826044
|147>      5       0.9847060000     -0.5816954052
|148>      6       0.4746550000      0.3275664842
|149>      7       0.2165580000      0.6684816016
|150>     d 7 
|151>      1      87.0208000000     -0.0000517870
|152>      2      11.0668000000      0.0412918654
|153>      3       6.6604700000     -0.1906019230
|154>      4       1.9469600000      1.2265919101
|155>      5       0.9847060000     -0.3117398720
|156>      6       0.4746550000     -1.3138647152
|157>      7       0.2165580000      0.6423490307
|158>     d 1 
|159>      1       0.0914720000      1.0000000000
|160>     d 1 
|161>      1       0.0386000000      1.0000000000
|162>   end
|163>   NewAuxGTO 79
|164>     S 1
|165>      1 1310.72 1.0
|166>     S 1
|167>      1  655.36 1.0
|168>     S 1
|169>      1  327.68 1.0
|170>     S 1
|171>      1  163.84 1.0
|172>     S 1
|173>      1   81.82 1.0
|174>     S 1
|175>      1   40.96 1.0
|176>     S 1
|177>      1   20.48 1.0
|178>     S 1
|179>      1   10.24 1.0
|180>     S 1
|181>      1    5.12 1.0
|182>     S 1
|183>      1    2.56 1.0
|184>     S 1
|185>      1    1.28 1.0
|186>     S 1
|187>      1    0.64 1.0
|188>     S 1
|189>      1    0.32 1.0
|190>     S 1
|191>      1    0.16 1.0
|192>     S 1
|193>      1    0.08 1.0
|194>     S 1
|195>      1    0.04 1.0
|196>     S 1
|197>      1    0.02 1.0
|198>     S 1
|199>      1    0.01 1.0
|200>   end
|201> end
|202> 
|203> * xyz 0 2
|204> 79  0.0 0.0 0.0
|205> *
|206> 
|207> 
|208>                          ****END OF INPUT****
================================================================================

                       ****************************
                       * Single Point Calculation *
                       ****************************

---------------------------------
CARTESIAN COORDINATES (ANGSTROEM)
---------------------------------
  Au     0.000000    0.000000    0.000000

----------------------------
CARTESIAN COORDINATES (A.U.)
----------------------------
  NO LB      ZA    FRAG     MASS         X           Y           Z
   0 Au   19.0000*   0   196.966    0.000000    0.000000    0.000000
* core charge reduced due to ECP

--------------------------------
INTERNAL COORDINATES (ANGSTROEM)
--------------------------------
 Au     0   0   0     0.000000000000     0.00000000     0.00000000

---------------------------
INTERNAL COORDINATES (A.U.)
---------------------------
 Au     0   0   0     0.000000000000     0.00000000     0.00000000

---------------------
BASIS SET INFORMATION
---------------------
There are 1 groups of distinct atoms

 Group   1 Type Au  : 38s34p23d contracted to 6s6p5d pattern {999911/888811/77711}

Atom   0Au   basis set group =>   1
---------------------------------
AUXILIARY/J BASIS SET INFORMATION
---------------------------------
There are 1 groups of distinct atoms

 Group   1 Type Au  : 18s contracted to 18s pattern {111111111111111111}

Atom   0Au   basis set group =>   1
-------------------------
ECP PARAMETER INFORMATION
-------------------------

 Group 1, Type Au ECP (replacing 60 core electrons, lmax=5)

Atom   0Au   ECP group =>   1

------------------------------------------------------------------------------
                           ORCA GTO INTEGRAL CALCULATION
------------------------------------------------------------------------------

                         BASIS SET STATISTICS AND STARTUP INFO

 # of primitive gaussian shells          ...   95
 # of primitive gaussian functions       ...  255
 # of contracted shells                  ...   17
 # of contracted basis functions         ...   49
 Highest angular momentum                ...    2
 Maximum contraction depth               ...    9
 Integral package used                   ... LIBINT
 Integral threshhold            Thresh   ...  1.000e-10
 Primitive cut-off              TCut     ...  1.000e-11
 Storage cut-off                TCutStore... -1.000e+00
 Buffer length                           ... 1048576 integrals/buffer
 Generate file with integrals 4 distinct ...false


------------------------------ INTEGRAL EVALUATION ----------------------------


 * One electron integrals 

   ECP integrals                         ... done
 Pre-screening matrix                    ... done
 Shell pair data                         ... done (   0.000 sec)
 Statistics run                          ... done
 Maximum amount of storage needed        ...     8 MB
 Maximum amount of storage dedicated     ... 500000 MB
 Beginning two electron integral evaluation:
 Starting repulsion integrals
  <ss|ss>  ...          231 b.         0 skpd (  0.0%)     0.005 s. (  0.023 ms/b)
  <ss|sp>  ...          756 b.         0 skpd (  0.0%)     0.031 s. (  0.041 ms/b)
  <ss|sd>  ...          630 b.         0 skpd (  0.0%)     0.073 s. (  0.115 ms/b)
  <ss|pp>  ...          441 b.         0 skpd (  0.0%)     0.060 s. (  0.136 ms/b)
  <ss|pd>  ...          630 b.         0 skpd (  0.0%)     0.093 s. (  0.147 ms/b)
  <ss|dd>  ...          315 b.         0 skpd (  0.0%)     0.063 s. (  0.199 ms/b)
  <sp|sp>  ...          666 b.         0 skpd (  0.0%)     0.084 s. (  0.126 ms/b)
  <sp|sd>  ...         1080 b.         0 skpd (  0.0%)     0.133 s. (  0.123 ms/b)
  <sp|pp>  ...          756 b.         0 skpd (  0.0%)     0.122 s. (  0.161 ms/b)
  <sp|pd>  ...         1080 b.         0 skpd (  0.0%)     0.223 s. (  0.206 ms/b)
  <sp|dd>  ...          540 b.         0 skpd (  0.0%)     0.170 s. (  0.315 ms/b)
  <sd|sd>  ...          465 b.         0 skpd (  0.0%)     0.092 s. (  0.198 ms/b)
  <sd|pp>  ...          630 b.         0 skpd (  0.0%)     0.165 s. (  0.263 ms/b)
  <sd|pd>  ...          900 b.         0 skpd (  0.0%)     0.339 s. (  0.377 ms/b)
  <sd|dd>  ...          450 b.         0 skpd (  0.0%)     0.265 s. (  0.589 ms/b)
  <pp|pp>  ...          231 b.         0 skpd (  0.0%)     0.079 s. (  0.343 ms/b)
  <pp|pd>  ...          630 b.         0 skpd (  0.0%)     0.282 s. (  0.448 ms/b)
  <pp|dd>  ...          315 b.         0 skpd (  0.0%)     0.231 s. (  0.734 ms/b)
  <pd|pd>  ...          465 b.         0 skpd (  0.0%)     0.381 s. (  0.819 ms/b)
  <pd|dd>  ...          450 b.         0 skpd (  0.0%)     0.567 s. (  1.260 ms/b)
  <dd|dd>  ...          120 b.         0 skpd (  0.0%)     0.281 s. (  2.338 ms/b)


                                      INTEGRAL STATISTICS

Integral type statistics:
 Number of integrals retained            ...     750925 
 One   Center Integrals retained         ...     750925 (100.0%)
 Two   Center Integrals retained         ...          0 (  0.0%)
 Three Center Integrals retained         ...          0 (  0.0%)
 Four  Center Integrals retained         ...          0 (  0.0%)

Storage statistics:
 Number of char integrals                ...          0 (  0.0%)
 Number of short int integrals           ...          0 (  0.0%)
 Number of double/float integrals        ...     750925 (100.0%)
 Amount of memory used                   ...          9 MB
 Amount of memory estimated              ...          8 MB ( 95.6%)

Prescreening statistics:
 Total number of shell quadruples        ...      11781 
 Number of skipped shell quadruples      ...          0 (  0.0%)
 # of negligible batches done            ...          0 (  0.0%)

Timings:
 Total evaluation time               ...     4.156 sec (   0.069 min)
 One electron matrix time            ...     0.040 sec (   0.001 min) =  1.0%
 Schwartz matrix evaluation time     ...     0.262 sec (   0.004 min) =  6.3%
 Statistics run                      ...     0.007 sec (   0.000 min) =  0.2%
 Repulsion integral time             ...     3.739 sec (   0.062 min) = 90.0%

-------------------------------------------------------------------------------
                                 ORCA SCF
-------------------------------------------------------------------------------

------------
SCF SETTINGS
------------
Hamiltonian:
 Ab initio Hamiltonian  Method          .... Hartree-Fock(GTOs)


General Settings:
 Integral files         IntName         .... 79_Au_atom79
 Hartree-Fock type      HFTyp           .... ROHF
 Total Charge           Charge          ....    0
 Multiplicity           Mult            ....    2
 Number of Electrons    NEL             ....   19
 Basis Dimension        Dim             ....   49
 Nuclear Repulsion      ENuc            ....      0.0000000000 Eh

Convergence Acceleration:
 DIIS                   CNVDIIS         .... on
   Start iteration      DIISMaxIt       ....    12
   Startup error        DIISStart       ....  0.200000
   # of expansion vecs  DIISMaxEq       ....     5
   Bias factor          DIISBfac        ....   1.050
   Max. coefficient     DIISMaxC        ....  10.000
 Newton-Raphson         CNVNR           .... off
 SOSCF                  CNVSOSCF        .... off
 Level Shifting         CNVShift        .... on
   Level shift para.    LevelShift      ....    1.0000
   Turn off err/grad.   ShiftErr        ....    0.0010
 Zerner damping         CNVZerner       .... off
 Static damping         CNVDamp         .... on
   Fraction old density DampFac         ....    0.7000
   Max. Damping (<1)    DampMax         ....    0.9800
   Min. Damping (>=0)   DampMin         ....    0.0000
   Turn off err/grad.   DampErr         ....    0.1000
 Fernandez-Rico         CNVRico         .... off

SCF Procedure:
 Maximum # iterations   MaxIter         ....  1000
 SCF integral mode      SCFMode         .... Conventional
 Integral Threshold     Thresh          ....  1.000e-10 Eh
 Primitive CutOff       TCut            ....  1.000e-11 Eh
 Integral Buffer length BufferLength    .... 1048576
 Integral index format  IndFormat       ....     0
 Integral value format  ValFormat       ....     0
 Integral Storage       Thresh          ....  1.000e-10 Eh

Convergence Tolerance:
 Convergence Check Mode ConvCheckMode   .... Total+1el-Energy
 Convergence forced     ConvForced      .... 0
 Energy Change          TolE            ....  1.000e-06 Eh
 1-El. energy change                    ....  1.000e-03 Eh
 DIIS Error             TolErr          ....  1.000e-06


Diagonalization of the overlap matrix:
Smallest eigenvalue                        ... 6.716e-03
Time for diagonalization                   ...    0.001 sec
Threshold for overlap eigenvalues          ... 1.000e-08
Number of eigenvalues below threshold      ... 0
Time for construction of square roots      ...    0.000 sec
Total time needed                          ...    0.002 sec

--------------------
INITIAL GUESS: HCORE
--------------------
AVERAGE-CONFIGURATION (SAHF) CASE FOUND

-------------------
FINAL ROHF SETTINGS
-------------------
Number of operators             ... 2
  operator   0:   9 orbitals  18 electrons n(mue)= 2.000
  operator   1:   1 orbitals   1 electrons n(mue)= 1.000
Vector coupling coefficients a and b (Zerner convention):
   1.000    1.000           1.000    1.000 
   1.000    0.000           1.000    0.000 

                      -----------------
                      INTIAL GUESS DONE 
                      -----------------

 InCore treatment chosen:
   Memory dedicated               ...    1024 MB
   Memory needed                  ...      9 MB
   Number of tiny    integrals    ...       0
   Number of small   integrals    ...       0
   Number of regular integrals    ...  750925

--------------
SCF ITERATIONS
--------------
ITER       Energy         Delta-E        Max-DP      RMS-DP      [F,P]     Damp
  0   -119.4166512951   0.000000000000 0.51989703  0.01214485  1.6741319 0.7000
  1   -130.0538018515 -10.637150556375 0.35134460  0.00881304  0.4499558 0.7000
                            ****Activating DIIS****
  2   -132.0498512635  -1.996049412016 0.22979361  0.00596952  0.1548899 0.7000
  3   -132.6918937527  -0.642042489183 0.49270801  0.01282844  0.0989013 0.0000
  4   -134.1114165361  -1.419522783437 0.00518539  0.00020374  0.2205041 0.7000
  5   -134.1996929005  -0.088276364426 0.00477694  0.00019559  0.2001753 0.7000
  6   -134.2282580291  -0.028565128572 0.00455262  0.00018756  0.1973235 0.7000
  7   -134.1400724589   0.088185570242 0.00857601  0.00031994  0.2307390 0.7000
  8   -133.9968516640   0.143220794835 0.03575539  0.00140909  0.2496898 0.7000
  9   -134.4859156719  -0.489064007897 0.09912635  0.00424643  0.0287045 0.0000
 10   -134.5264548085  -0.040539136599 0.01968518  0.00077918  0.0877769 0.0000
 11   -134.5699238931  -0.043469084602 0.02889214  0.00073492  0.0370190 0.0000
 12   -134.5797175212  -0.009793628047 0.05788661  0.00121703  0.0185845 0.0000
 13   -134.5816844693  -0.001966948111 0.04742348  0.00095070  0.0188312 0.0000
 14   -134.5831206264  -0.001436157070 0.02006840  0.00041316  0.0188978 0.0000
 15   -134.5845293142  -0.001408687827 0.07071616  0.00136677  0.0188116 0.0000
 16   -134.5868688849  -0.002339570739 0.05846949  0.00110222  0.0188081 0.0000
 17   -134.5887833787  -0.001914493744 0.04240187  0.00078418  0.0187606 0.0000
 18   -134.5901768920  -0.001393513345 0.03738947  0.00068274  0.0187028 0.0000
 19   -134.5914088569  -0.001231964854 0.03826889  0.00069120  0.0186321 0.0000
 20   -134.5926711258  -0.001262268942 0.05751354  0.00102710  0.0185391 0.0000
 21   -134.5945576630  -0.001886537232 0.09984223  0.00175091  0.0183568 0.0000
 22   -134.5978112910  -0.003253627940 0.24011683  0.00407840  0.0179225 0.0000
 23   -134.6054708925  -0.007659601497 0.53199476  0.00900052  0.0162188 0.0000
 24   -134.6211476684  -0.015676775958 0.24430383  0.00540567  0.0074838 0.0000
 25   -134.6246440634  -0.003496394995 0.03684782  0.00089983  0.0040407 0.0000
 26   -134.6245712858   0.000072777634 0.01588307  0.00031588  0.0037553 0.0000
 27   -134.6246133202  -0.000042034392 0.01962007  0.00039852  0.0032774 0.0000
 28   -134.6247021542  -0.000088834058 0.04450020  0.00089654  0.0028123 0.0000
 29   -134.6248711715  -0.000169017234 0.04167325  0.00085668  0.0018419 0.0000
 30   -134.6249803362  -0.000109164713 0.02081834  0.00043071  0.0009572 0.0000
 31   -134.6250148690  -0.000034532829 0.01304814  0.00027065  0.0005401 0.0000
 32   -134.6250280933  -0.000013224275 0.00867503  0.00018088  0.0002849 0.0000
 33   -134.6250324845  -0.000004391173 0.00375196  0.00007893  0.0001152 0.0000
                 **** Energy Check signals convergence ****

               *****************************************************
               *                     SUCCESS                       *
               *           SCF CONVERGED AFTER  34 CYCLES          *
               *****************************************************


----------------
TOTAL SCF ENERGY
----------------

Total Energy       :         -134.62503315 Eh           -3663.33339 eV

Components:
Nuclear Repulsion  :            0.00000000 Eh               0.00000 eV
Electronic Energy  :         -134.62503315 Eh           -3663.33339 eV
One Electron Energy:         -237.18723581 Eh           -6454.19281 eV
Two Electron Energy:          102.56220267 Eh            2790.85942 eV

Virial components:
Potential Energy   :         -180.74399749 Eh           -4918.29421 eV
Kinetic Energy     :           46.11896434 Eh            1254.96082 eV
Virial Ratio       :            3.91908188


---------------
SCF CONVERGENCE
---------------

  Last Energy change         ...   -6.6090e-07  Tolerance :   1.0000e-06
  Last MAX-Density change    ...    8.4589e-04  Tolerance :   1.0000e-05
  Last RMS-Density change    ...    1.8358e-05  Tolerance :   1.0000e-06
  Last DIIS Error            ...    6.1271e-05  Tolerance :   1.0000e-06

             **** THE GBW FILE WAS UPDATED (79_Au_atom79.gbw) ****
             **** DENSITY FILE WAS UPDATED (79_Au_atom79.scfp) ****
             **** ENERGY FILE WAS UPDATED (79_Au_atom79.en.tmp) ****
             **** THE GBW FILE WAS UPDATED (79_Au_atom79.gbw) ****
             **** DENSITY FILE WAS UPDATED (79_Au_atom79.scfp) ****
----------------
ORBITAL ENERGIES
----------------

  NO   OCC          E(Eh)            E(eV) 
   0   2.0000      -4.754745      -129.3832 
   1   2.0000      -2.826798       -76.9211 
   2   2.0000      -2.826798       -76.9211 
   3   2.0000      -2.822996       -76.8176 
   4   2.0000      -0.550817       -14.9885 
   5   2.0000      -0.550817       -14.9885 
   6   2.0000      -0.545606       -14.8467 
   7   2.0000      -0.545606       -14.8467 
   8   2.0000      -0.543885       -14.7999 
   9   1.0000      -0.126673        -3.4469 
  10   0.0000      -0.273747        -7.4490 
  11   0.0000      -0.097117        -2.6427 
  12   0.0000      -0.097117        -2.6427 
  13   0.0000      -0.082679        -2.2498 
  14   0.0000      -0.046746        -1.2720 
  15   0.0000      -0.070555        -1.9199 
  16   0.0000      -0.070555        -1.9199 
  17   0.0000      -0.026350        -0.7170 
  18   0.0000      -0.026350        -0.7170 
  19   0.0000      -0.026874        -0.7313 
  20   0.0000      -0.026874        -0.7313 
  21   0.0000      -0.027307        -0.7431 
  22   0.0000       0.058025         1.5789 
  23   0.0000       0.058025         1.5789 
  24   0.0000       0.062356         1.6968 
  25   0.0000       0.193129         5.2553 
  26   0.0000       0.193129         5.2553 
  27   0.0000       0.192615         5.2413 
  28   0.0000       0.192615         5.2413 
  29   0.0000       0.192962         5.2508 
  30   0.0000       0.232784         6.3344 
  31   0.0000       0.611577        16.6418 
  32   0.0000       0.611577        16.6418 
  33   0.0000       0.610623        16.6159 
  34   0.0000       1.043539        28.3961 
  35   0.0000       1.043539        28.3961 
  36   0.0000       1.042032        28.3551 
  37   0.0000       1.042032        28.3551 
  38   0.0000       1.041514        28.3410 
  39   0.0000       2.349062        63.9212 
  40   0.0000       2.840117        77.2835 
  41   0.0000       2.840117        77.2835 
  42   0.0000       2.838406        77.2369 
  43   0.0000       4.030176       109.6667 
  44   0.0000       4.030176       109.6667 
  45   0.0000       4.028815       109.6296 
  46   0.0000       4.028815       109.6296 
  47   0.0000       4.028344       109.6168 
  48   0.0000      17.734375       482.5769 
CleanUpVectors: The p-vectors have cracked symmetry
CleanUpVectors: The p-vectors have cracked symmetry
CleanUpVectors: The p-vectors have cracked symmetry
CleanUpVectors: The d-vectors have cracked symmetry at i=4
CleanUpVectors: The d-vectors have cracked symmetry at i=5
CleanUpVectors: The d-vectors have cracked symmetry at i=6
CleanUpVectors: The d-vectors have cracked symmetry at i=7
CleanUpVectors: The d-vectors have cracked symmetry at i=8
CleanUpVectors: The p-vectors have cracked symmetry
CleanUpVectors: The p-vectors have cracked symmetry
CleanUpVectors: The p-vectors have cracked symmetry
CleanUpVectors: The p-vectors have cracked symmetry
CleanUpVectors: The p-vectors have cracked symmetry
CleanUpVectors: The p-vectors have cracked symmetry
CleanUpVectors: The d-vectors have cracked symmetry at i=17
CleanUpVectors: The d-vectors have cracked symmetry at i=18
CleanUpVectors: The d-vectors have cracked symmetry at i=19
CleanUpVectors: The d-vectors have cracked symmetry at i=20
CleanUpVectors: The d-vectors have cracked symmetry at i=21
CleanUpVectors: The p-vectors have cracked symmetry
CleanUpVectors: The p-vectors have cracked symmetry
CleanUpVectors: The p-vectors have cracked symmetry
CleanUpVectors: The d-vectors have cracked symmetry at i=25
CleanUpVectors: The d-vectors have cracked symmetry at i=26
CleanUpVectors: The d-vectors have cracked symmetry at i=27
CleanUpVectors: The d-vectors have cracked symmetry at i=28
CleanUpVectors: The d-vectors have cracked symmetry at i=29
CleanUpVectors: The p-vectors have cracked symmetry
CleanUpVectors: The p-vectors have cracked symmetry
CleanUpVectors: The p-vectors have cracked symmetry
CleanUpVectors: The d-vectors have cracked symmetry at i=34
CleanUpVectors: The d-vectors have cracked symmetry at i=35
CleanUpVectors: The d-vectors have cracked symmetry at i=36
CleanUpVectors: The d-vectors have cracked symmetry at i=37
CleanUpVectors: The d-vectors have cracked symmetry at i=38
CleanUpVectors: The p-vectors have cracked symmetry
CleanUpVectors: The p-vectors have cracked symmetry
CleanUpVectors: The p-vectors have cracked symmetry
CleanUpVectors: The d-vectors have cracked symmetry at i=43
CleanUpVectors: The d-vectors have cracked symmetry at i=44
--------------------------
ATOM BASIS FOR ELEMENT Au
--------------------------
 NewGTO Au
 S 38
    1         36.012600000000         0.019027256322
    2         22.564500000000        -0.167784624261
    3         14.162000000000         0.496631488690
    4          8.854870000000        -0.266231602597
    5          5.060720000000        -0.699833867289
    6          1.474050000000         0.873027995786
    7          0.704913000000         0.502535947646
    8          0.217787000000         0.032193049865
    9          0.097408000000        -0.005502495783
   10         36.012600000000         0.000000132553
   11         22.564500000000        -0.000001173712
   12         14.162000000000         0.000003585760
   13          8.854870000000        -0.000002243819
   14          5.060720000000        -0.000004866774
   15          1.474050000000         0.000008560521
   16          0.704913000000         0.000006476227
   17          0.217787000000        -0.000005362777
   18          0.097408000000        -0.000012473683
   19         36.012600000000         0.000011548697
   20         22.564500000000         0.000099740092
   21         14.162000000000        -0.000490605438
   22          8.854870000000        -0.000153004727
   23          5.060720000000         0.002348805294
   24          1.474050000000        -0.005335406521
   25          0.704913000000         0.001658116979
   26          0.217787000000         0.005549599549
   27          0.097408000000        -0.002863477165
   28         36.012600000000        -0.000018082067
   29         22.564500000000         0.000201960935
   30         14.162000000000        -0.000659124279
   31          8.854870000000         0.000258249982
   32          5.060720000000         0.001615997096
   33          1.474050000000        -0.006079265619
   34          0.704913000000         0.006682248069
   35          0.217787000000        -0.002173616536
   36          0.097408000000        -0.001735136275
   37          0.041214000000         0.003744056358
   38          0.017400000000        -0.000938657020
 P 95
    1         21.595400000000         0.012970977525
    2         13.514500000000        -0.078697270003
    3          6.255140000000         0.291141431498
    4          1.718140000000        -0.519073635008
    5          0.869439000000        -0.469939360100
    6          0.426759000000        -0.154674344036
    7          0.184297000000        -0.013637288172
    8          0.076379000000        -0.000819395219
    9         21.595400000000        -0.002516591442
   10         13.514500000000         0.015268616098
   11          6.255140000000        -0.056486416206
   12          1.718140000000         0.100709161309
   13          0.869439000000         0.091176271785
   14          0.426759000000         0.030009467662
   15          0.184297000000         0.002645867102
   16          0.076379000000         0.000158976684
   17         21.595400000000        -0.000386783921
   18         13.514500000000         0.002346688103
   19          6.255140000000        -0.008681598913
   20          1.718140000000         0.015478350444
   21          0.869439000000         0.014013206629
   22          0.426759000000         0.004612262192
   23          0.184297000000         0.000406652758
   24          0.076379000000         0.000024433694
   25         21.595400000000        -0.000008608819
   26         13.514500000000         0.000059831289
   27          6.255140000000        -0.000242545077
   28          1.718140000000         0.000530431794
   29          0.869439000000         0.000519422010
   30          0.426759000000        -0.000013360439
   31          0.184297000000        -0.001016947434
   32          0.076379000000        -0.001514268818
   33         21.595400000000         0.000001670258
   34         13.514500000000        -0.000011608293
   35          6.255140000000         0.000047057892
   36          1.718140000000        -0.000102912838
   37          0.869439000000        -0.000100776752
   38          0.426759000000         0.000002592154
   39          0.184297000000         0.000197305192
   40          0.076379000000         0.000293794044
   41         21.595400000000         0.000000256708
   42         13.514500000000        -0.000001784120
   43          6.255140000000         0.000007232495
   44          1.718140000000        -0.000015817041
   45          0.869439000000        -0.000015488739
   46          0.426759000000         0.000000398397
   47          0.184297000000         0.000030324539
   48          0.076379000000         0.000045154255
   49         21.595400000000         0.000003719934
   50         13.514500000000        -0.000024932377
   51          6.255140000000         0.000100737976
   52          1.718140000000        -0.000243395292
   53          0.869439000000        -0.000228434186
   54          0.426759000000         0.000259546504
   55          0.184297000000         0.000354414271
   56          0.076379000000         0.000069052390
   57         21.595400000000        -0.000000721731
   58         13.514500000000         0.000004837308
   59          6.255140000000        -0.000019544890
   60          1.718140000000         0.000047222849
   61          0.869439000000         0.000044320138
   62          0.426759000000        -0.000050356460
   63          0.184297000000        -0.000068762429
   64          0.076379000000        -0.000013397345
   65         21.595400000000        -0.000000110925
   66         13.514500000000         0.000000743463
   67          6.255140000000        -0.000003003924
   68          1.718140000000         0.000007257848
   69          0.869439000000         0.000006811720
   70          0.426759000000        -0.000007739464
   71          0.184297000000        -0.000010568343
   72          0.076379000000        -0.000002059086
   73         21.595400000000        -0.000045887208
   74         13.514500000000         0.000291337596
   75          6.255140000000        -0.001202653275
   76          1.718140000000         0.004457281604
   77          0.869439000000        -0.000802006810
   78          0.426759000000        -0.005596957173
   79          0.184297000000         0.002856777005
   80          0.076379000000         0.001801793878
   81         21.595400000000         0.000008902903
   82         13.514500000000        -0.000056524476
   83          6.255140000000         0.000233335301
   84          1.718140000000        -0.000864788850
   85          0.869439000000         0.000155603035
   86          0.426759000000         0.001085905399
   87          0.184297000000        -0.000554263590
   88          0.076379000000        -0.000349578823
   89         21.595400000000         0.000001368319
   90         13.514500000000        -0.000008687448
   91          6.255140000000         0.000035862135
   92          1.718140000000        -0.000132912485
   93          0.869439000000         0.000023915186
   94          0.426759000000         0.000166896677
   95          0.184297000000        -0.000085186749
 D 95
    1         87.020800000000        -0.000029771269
    2         11.066800000000        -0.009667551215
    3          6.660470000000         0.046602901722
    4          1.946960000000        -0.162090489106
    5          0.984706000000        -0.262070615204
    6          0.474655000000        -0.235975398981
    7          0.216558000000        -0.134303722055
    8         87.020800000000         0.000009727856
    9         11.066800000000         0.003158902936
   10          6.660470000000        -0.015227645532
   11          1.946960000000         0.052963579971
   12          0.984706000000         0.085632402388
   13          0.474655000000         0.077105707954
   14          0.216558000000         0.043884165954
   15         87.020800000000         0.000024655168
   16         11.066800000000         0.008006212176
   17          6.660470000000        -0.038594335929
   18          1.946960000000         0.134235735468
   19          0.984706000000         0.217034583400
   20          0.474655000000         0.195423750087
   21          0.216558000000         0.111224039150
   22         87.020800000000        -0.000019038279
   23         11.066800000000        -0.006182253752
   24          6.660470000000         0.029801855467
   25          1.946960000000        -0.103654432458
   26          0.984706000000        -0.167590220948
   27          0.474655000000        -0.150902722241
   28          0.216558000000        -0.085885212411
   29         11.066800000000         0.000000000897
   30          6.660470000000        -0.000000004323
   31          1.946960000000         0.000000015035
   32         87.020800000000         0.000000192691
   33         11.066800000000         0.000124061643
   34          6.660470000000        -0.000592492400
   35          1.946960000000         0.002618994184
   36          0.984706000000         0.003151006611
   37          0.474655000000        -0.001774406585
   38          0.216558000000        -0.003621121857
   39         87.020800000000        -0.000000062962
   40         11.066800000000        -0.000040537534
   41          6.660470000000         0.000193598766
   42          1.946960000000        -0.000855764633
   43          0.984706000000        -0.001029601376
   44          0.474655000000         0.000579792964
   45          0.216558000000         0.001183213020
   46         87.020800000000        -0.000000159577
   47         11.066800000000        -0.000102742030
   48          6.660470000000         0.000490674398
   49          1.946960000000        -0.002168928062
   50          0.984706000000        -0.002609515785
   51          0.474655000000         0.001469480253
   52          0.216558000000         0.002998843167
   53         87.020800000000         0.000000123223
   54         11.066800000000         0.000079335557
   55          6.660470000000        -0.000378889988
   56          1.946960000000         0.001674807431
   57          0.984706000000         0.002015021386
   58          0.474655000000        -0.001134706351
   59          0.216558000000        -0.002315653022
   60         87.020800000000         0.000000005142
   61         11.066800000000        -0.000004099561
   62          6.660470000000         0.000018923441
   63          1.946960000000        -0.000121779150
   64          0.984706000000         0.000030950324
   65          0.474655000000         0.000130443815
   66          0.216558000000        -0.000063774038
   67         87.020800000000        -0.000000001680
   68         11.066800000000         0.000001339544
   69          6.660470000000        -0.000006183294
   70          1.946960000000         0.000039791722
   71          0.984706000000        -0.000010113116
   72          0.474655000000        -0.000042622929
   73          0.216558000000         0.000020838369
   74         87.020800000000        -0.000000004258
   75         11.066800000000         0.000003395064
   76          6.660470000000        -0.000015671506
   77          1.946960000000         0.000100851776
   78          0.984706000000        -0.000025631605
   79          0.474655000000        -0.000108027445
   80          0.216558000000         0.000052814665
   81         87.020800000000         0.000000003288
   82         11.066800000000        -0.000002621608
   83          6.660470000000         0.000012101256
   84          1.946960000000        -0.000077875936
   85          0.984706000000         0.000019792267
   86          0.474655000000         0.000083416860
   87          0.216558000000        -0.000040782539
   88          0.091472000000        -0.028038770015
   89          0.091472000000         0.009161756783
   90          0.091472000000         0.023220393346
   91          0.091472000000        -0.017930372157
   92          0.038600000000        -0.000137562310
   93          0.038600000000         0.000044948920
   94          0.038600000000         0.000113922648
   95          0.038600000000        -0.000087969030
 S 38
    1         36.012600000000         0.005568749697
    2         22.564500000000        -0.049105901541
    3         14.162000000000         0.145350249423
    4          8.854870000000        -0.077918599048
    5          5.060720000000        -0.204821944403
    6          1.474050000000         0.255511057657
    7          0.704913000000         0.147078320642
    8          0.217787000000         0.009422011963
    9          0.097408000000        -0.001610427757
   10         36.012600000000        -0.004778142780
   11         22.564500000000         0.042308807835
   12         14.162000000000        -0.129255918013
   13          8.854870000000         0.080882951075
   14          5.060720000000         0.175432645483
   15          1.474050000000        -0.308581159923
   16          0.704913000000        -0.233448619412
   17          0.217787000000         0.193312079207
   18          0.097408000000         0.449638956600
   19         36.012600000000        -0.001947307838
   20         22.564500000000        -0.016817885018
   21         14.162000000000         0.082724466367
   22          8.854870000000         0.025799213451
   23          5.060720000000        -0.396048738006
   24          1.474050000000         0.899640776796
   25          0.704913000000        -0.279586876965
   26          0.217787000000        -0.935757384086
   27          0.097408000000         0.482831216554
   28         36.012600000000         0.010987663373
   29         22.564500000000        -0.122722627361
   30         14.162000000000         0.400520344195
   31          8.854870000000        -0.156926963566
   32          5.060720000000        -0.981969157591
   33          1.474050000000         3.694097813704
   34          0.704913000000        -4.060503279744
   35          0.217787000000         1.320809551338
   36          0.097408000000         1.054364708247
   37          0.041214000000        -2.321955698645
   38          0.017400000000         0.939040872766
 D 95
    1         87.020800000000        -0.000000678077
    2         11.066800000000        -0.000220190237
    3          6.660470000000         0.001061437765
    4          1.946960000000        -0.003691808025
    5          0.984706000000        -0.005968976993
    6          0.474655000000        -0.005374626707
    7          0.216558000000        -0.003058930611
    8         87.020800000000        -0.000003033617
    9         11.066800000000        -0.000985099104
   10          6.660470000000         0.004748718233
   11          1.946960000000        -0.016516612326
   12          0.984706000000        -0.026704335196
   13          0.474655000000        -0.024045298431
   14          0.216558000000        -0.013685210794
   15         87.020800000000        -0.000007841504
   16         11.066800000000        -0.002546352204
   17          6.660470000000         0.012274814882
   18          1.946960000000        -0.042693280340
   19          0.984706000000        -0.069027210081
   20          0.474655000000        -0.062153948190
   21          0.216558000000        -0.035374478095
   22         87.020800000000        -0.000010644717
   23         11.066800000000        -0.003456632672
   24          6.660470000000         0.016662866233
   25          1.946960000000        -0.057955449938
   26          0.984706000000        -0.093703341284
   27          0.474655000000        -0.084372997439
   28          0.216558000000        -0.048020292140
   29         87.020800000000        -0.000041974456
   30         11.066800000000        -0.013630262013
   31          6.660470000000         0.065705342220
   32          1.946960000000        -0.228531071324
   33          0.984706000000        -0.369492860349
   34          0.474655000000        -0.332701264786
   35          0.216558000000        -0.189354561476
   36         87.020800000000         0.000000003416
   37         11.066800000000         0.000002199250
   38          6.660470000000        -0.000010503158
   39          1.946960000000         0.000046427108
   40          0.984706000000         0.000055858133
   41          0.474655000000        -0.000031455040
   42          0.216558000000        -0.000064191901
   43         87.020800000000         0.000000015282
   44         11.066800000000         0.000009839125
   45          6.660470000000        -0.000046989600
   46          1.946960000000         0.000207708132
   47          0.984706000000         0.000249901165
   48          0.474655000000        -0.000140725275
   49          0.216558000000        -0.000287185233
   50         87.020800000000         0.000000039502
   51         11.066800000000         0.000025432851
   52          6.660470000000        -0.000121461964
   53          1.946960000000         0.000536898325
   54          0.984706000000         0.000645961791
   55          0.474655000000        -0.000363756411
   56          0.216558000000        -0.000742336227
   57         87.020800000000         0.000000053623
   58         11.066800000000         0.000034524691
   59          6.660470000000        -0.000164882687
   60          1.946960000000         0.000728830949
   61          0.984706000000         0.000876882871
   62          0.474655000000        -0.000493793550
   63          0.216558000000        -0.001007709638
   64         87.020800000000         0.000000211448
   65         11.066800000000         0.000136138441
   66          6.660470000000        -0.000650168658
   67          1.946960000000         0.002873940548
   68          0.984706000000         0.003457741802
   69          0.474655000000        -0.001947136448
   70          0.216558000000        -0.003973620484
   71         87.020800000000        -0.000000000106
   72         11.066800000000         0.000000084353
   73          6.660470000000        -0.000000389369
   74          1.946960000000         0.000002505731
   75          0.984706000000        -0.000000636835
   76          0.474655000000        -0.000002684015
   77          0.216558000000         0.000001312216
   78         87.020800000000        -0.000000000473
   79         11.066800000000         0.000000377382
   80          6.660470000000        -0.000001741981
   81          1.946960000000         0.000011210276
   82          0.984706000000        -0.000002849106
   83          0.474655000000        -0.000012007895
   84          0.216558000000         0.000005870665
   85         87.020800000000        -0.000000001223
   86         11.066800000000         0.000000975482
   87          6.660470000000        -0.000004502794
   88          1.946960000000         0.000028977097
   89          0.984706000000        -0.000007364565
   90          0.474655000000        -0.000031038836
   91          0.216558000000         0.000015174900
   92         87.020800000000        -0.000000001661
   93         11.066800000000         0.000001324201
   94          6.660470000000        -0.000006112471
   95          1.946960000000         0.000039335948
 P 95
    1         21.595400000000         0.000178467600
    2         13.514500000000        -0.001082795255
    3          6.255140000000         0.004005813171
    4          1.718140000000        -0.007141930961
    5          0.869439000000        -0.006465892774
    6          0.426759000000        -0.002128163351
    7          0.184297000000        -0.000187635364
    8          0.076379000000        -0.000011274054
    9         21.595400000000        -0.000034487317
   10         13.514500000000         0.000209240796
   11          6.255140000000        -0.000774088667
   12          1.718140000000         0.001380116241
   13          0.869439000000         0.001249477722
   14          0.426759000000         0.000411249117
   15          0.184297000000         0.000036258907
   16          0.076379000000         0.000002178613
   17         21.595400000000        -0.000004251968
   18         13.514500000000         0.000025797459
   19          6.255140000000        -0.000095437988
   20          1.718140000000         0.000170155594
   21          0.869439000000         0.000154049071
   22          0.426759000000         0.000050703220
   23          0.184297000000         0.000004470389
   24         21.595400000000         0.001289866859
   25         13.514500000000        -0.008964574677
   26          6.255140000000         0.036340742465
   27          1.718140000000        -0.079475062941
   28          0.869439000000        -0.077825457250
   29          0.426759000000         0.002001806358
   30          0.184297000000         0.152370129748
   31          0.076379000000         0.226884230764
   32         21.595400000000        -0.000249255588
   33         13.514500000000         0.001732326338
   34          6.255140000000        -0.007022533424
   35          1.718140000000         0.015357866901
   36          0.869439000000         0.015039094902
   37          0.426759000000        -0.000386831724
   38          0.184297000000        -0.029444206594
   39          0.076379000000        -0.043843410612
   40         21.595400000000        -0.000030730913
   41         13.514500000000         0.000213579849
   42          6.255140000000        -0.000865813555
   43          1.718140000000         0.001893483241
   44          0.869439000000         0.001854181596
   45          0.426759000000        -0.000047692781
   46          0.184297000000        -0.003630198913
   47          0.076379000000        -0.005405487868
   48         21.595400000000        -0.001001138913
   49         13.514500000000         0.006710004310
   50          6.255140000000        -0.027111423913
   51          1.718140000000         0.065504522049
   52          0.869439000000         0.061478067364
   53          0.426759000000        -0.069851267735
   54          0.184297000000        -0.095382853175
   55          0.076379000000        -0.018583941344
   56         21.595400000000         0.000193461416
   57         13.514500000000        -0.001296650160
   58          6.255140000000         0.005239047627
   59          1.718140000000        -0.012658180992
   60          0.869439000000        -0.011880103531
   61          0.426759000000         0.013498151911
   62          0.184297000000         0.018431909450
   63          0.076379000000         0.003591185550
   64         21.595400000000         0.000023852007
   65         13.514500000000        -0.000159864997
   66          6.255140000000         0.000645926218
   67          1.718140000000        -0.001560636885
   68          0.869439000000        -0.001464707116
   69          0.426759000000         0.001664197547
   70          0.184297000000         0.002272484315
   71          0.076379000000         0.000442760033
   72         21.595400000000         0.000325148753
   73         13.514500000000        -0.002064367414
   74          6.255140000000         0.008521791433
   75          1.718140000000        -0.031583520345
   76          0.869439000000         0.005682880431
   77          0.426759000000         0.039659062732
   78          0.184297000000        -0.020242623796
   79          0.076379000000        -0.012767197285
   80         21.595400000000        -0.000062832178
   81         13.514500000000         0.000398921106
   82          6.255140000000        -0.001646762314
   83          1.718140000000         0.006103241492
   84          0.869439000000        -0.001098167375
   85          0.426759000000        -0.007663770047
   86          0.184297000000         0.003911711554
   87          0.076379000000         0.002467150190
   88         21.595400000000        -0.000007746628
   89         13.514500000000         0.000049183290
   90          6.255140000000        -0.000203030594
   91          1.718140000000         0.000752473345
   92          0.869439000000        -0.000135393902
   93          0.426759000000        -0.000944872113
   94          0.184297000000         0.000482277931
   95          0.076379000000         0.000304176847
 P 95
    1         21.595400000000         0.000069345459
    2         13.514500000000        -0.000420731462
    3          6.255140000000         0.001556500754
    4          1.718140000000        -0.002775072240
    5          0.869439000000        -0.002512390506
    6          0.426759000000        -0.000826920208
    7          0.184297000000        -0.000072907690
    8          0.076379000000        -0.000004380652
    9         21.595400000000         0.000168861810
   10         13.514500000000        -0.001024515184
   11          6.255140000000         0.003790205393
   12          1.718140000000        -0.006757525649
   13          0.869439000000        -0.006117874354
   14          0.426759000000        -0.002013617677
   15          0.184297000000        -0.000177536131
   16          0.076379000000        -0.000010667242
   17         21.595400000000         0.001406673307
   18         13.514500000000        -0.008534541735
   19          6.255140000000         0.031573632704
   20          1.718140000000        -0.056292366957
   21          0.869439000000        -0.050963865475
   22          0.426759000000        -0.016774084342
   23          0.184297000000        -0.001478933196
   24          0.076379000000        -0.000088861567
   25         21.595400000000        -0.000037035395
   26         13.514500000000         0.000257395996
   27          6.255140000000        -0.001043436185
   28          1.718140000000         0.002281933468
   29          0.869439000000         0.002234569045
   30          0.426759000000        -0.000057477009
   31          0.184297000000        -0.004374938322
   32          0.076379000000        -0.006514429813
   33         21.595400000000        -0.000090184186
   34         13.514500000000         0.000626780096
   35          6.255140000000        -0.002540851615
   36          1.718140000000         0.005556692800
   37          0.869439000000         0.005441356596
   38          0.426759000000        -0.000139961172
   39          0.184297000000        -0.010653329128
   40          0.076379000000        -0.015863164179
   41         21.595400000000        -0.000751263344
   42         13.514500000000         0.005221280242
   43          6.255140000000        -0.021166112999
   44          1.718140000000         0.046289042236
   45          0.869439000000         0.045328254478
   46          0.426759000000        -0.001165921682
   47          0.184297000000        -0.088745665752
   48          0.076379000000        -0.132145271130
   49         21.595400000000         0.000083857515
   50         13.514500000000        -0.000562044168
   51          6.255140000000         0.002270910268
   52          1.718140000000        -0.005486797456
   53          0.869439000000        -0.005149533086
   54          0.426759000000         0.005850890078
   55          0.184297000000         0.007989469731
   56          0.076379000000         0.001556630274
   57         21.595400000000         0.000204199840
   58         13.514500000000        -0.001368623067
   59          6.255140000000         0.005529850418
   60          1.718140000000        -0.013360796164
   61          0.869439000000        -0.012539530110
   62          0.426759000000         0.014247391185
   63          0.184297000000         0.019455005837
   64          0.076379000000         0.003790520783
   65         21.595400000000         0.001701050495
   66         13.514500000000        -0.011401071323
   67          6.255140000000         0.046065436536
   68          1.718140000000        -0.111299738919
   69          0.869439000000        -0.104458327957
   70          0.426759000000         0.118685361237
   71          0.184297000000         0.162066469973
   72          0.076379000000         0.031576260004
   73         21.595400000000        -0.000030328818
   74         13.514500000000         0.000192557475
   75          6.255140000000        -0.000794884975
   76          1.718140000000         0.002946008004
   77          0.869439000000        -0.000530080594
   78          0.426759000000        -0.003699268320
   79          0.184297000000         0.001888166078
   80          0.076379000000         0.001190882618
   81         21.595400000000        -0.000073853127
   82         13.514500000000         0.000468893046
   83          6.255140000000        -0.001935609289
   84          1.718140000000         0.007173768078
   85          0.869439000000        -0.001290789177
   86          0.426759000000        -0.009008017951
   87          0.184297000000         0.004597837316
   88          0.076379000000         0.002899895621
   89         21.595400000000        -0.000615220356
   90         13.514500000000         0.003906030220
   91          6.255140000000        -0.016124249322
   92          1.718140000000         0.059759800566
   93          0.869439000000        -0.010752689932
   94          0.426759000000        -0.075039693284
   95          0.184297000000         0.038301466960
 D 95
    1         87.020800000000        -0.000000023997
    2         11.066800000000        -0.000007792539
    3          6.660470000000         0.000037564313
    4          1.946960000000        -0.000130653193
    5          0.984706000000        -0.000211242269
    6          0.474655000000        -0.000190208195
    7          0.216558000000        -0.000108255643
    8         87.020800000000        -0.000000107361
    9         11.066800000000        -0.000034863210
   10          6.660470000000         0.000168059801
   11          1.946960000000        -0.000584532171
   12          0.984706000000        -0.000945081396
   13          0.474655000000        -0.000850976594
   14          0.216558000000        -0.000484327283
   15         87.020800000000        -0.000000277524
   16         11.066800000000        -0.000090119525
   17          6.660470000000         0.000434425563
   18          1.946960000000        -0.001510984280
   19          0.984706000000        -0.002442984669
   20          0.474655000000        -0.002199728808
   21          0.216558000000        -0.001251960025
   22         87.020800000000        -0.000000376734
   23         11.066800000000        -0.000122335839
   24          6.660470000000         0.000589725873
   25          1.946960000000        -0.002051137410
   26          0.984706000000        -0.003316313288
   27          0.474655000000        -0.002986097281
   28          0.216558000000        -0.001699516055
   29         87.020800000000        -0.000001485542
   30         11.066800000000        -0.000482396293
   31          6.660470000000         0.002325414837
   32          1.946960000000        -0.008088072080
   33          0.984706000000        -0.013076930285
   34          0.474655000000        -0.011774818169
   35          0.216558000000        -0.006701554117
   36         87.020800000000        -0.000000043021
   37         11.066800000000        -0.000027698446
   38          6.660470000000         0.000132281970
   39          1.946960000000        -0.000584725997
   40          0.984706000000        -0.000703504992
   41          0.474655000000         0.000396160353
   42          0.216558000000         0.000808464601
   43         87.020800000000        -0.000000192472
   44         11.066800000000        -0.000123920680
   45          6.660470000000         0.000591819190
   46          1.946960000000        -0.002616018391
   47          0.984706000000        -0.003147426328
   48          0.474655000000         0.001772390442
   49          0.216558000000         0.003617007413
   50         87.020800000000        -0.000000497529
   51         11.066800000000        -0.000320328305
   52          6.660470000000         0.001529820833
   53          1.946960000000        -0.006762267095
   54          0.984706000000        -0.008135928082
   55          0.474655000000         0.004581534139
   56          0.216558000000         0.009349769975
   57         87.020800000000        -0.000000675388
   58         11.066800000000        -0.000434840638
   59          6.660470000000         0.002076707734
   60          1.946960000000        -0.009179671289
   61          0.984706000000        -0.011044394486
   62          0.474655000000         0.006219360578
   63          0.216558000000         0.012692165777
   64         87.020800000000        -0.000002663199
   65         11.066800000000        -0.001714669339
   66          6.660470000000         0.008188901319
   67          1.946960000000        -0.036197400861
   68          0.984706000000        -0.043550401957
   69          0.474655000000         0.024524264636
   70          0.216558000000         0.050047915439
   71         87.020800000000        -0.000000024466
   72         11.066800000000         0.000019507598
   73          6.660470000000        -0.000090046447
   74          1.946960000000         0.000579481263
   75          0.984706000000        -0.000147275890
   76          0.474655000000        -0.000620711728
   77          0.216558000000         0.000303466234
   78         87.020800000000        -0.000000109458
   79         11.066800000000         0.000087275470
   80          6.660470000000        -0.000402860762
   81          1.946960000000         0.002592553860
   82          0.984706000000        -0.000658900814
   83          0.474655000000        -0.002777015738
   84          0.216558000000         0.001357684202
   85         87.020800000000        -0.000000282944
   86         11.066800000000         0.000225602403
   87          6.660470000000        -0.001041373441
   88          1.946960000000         0.006701612541
   89          0.984706000000        -0.001703223231
   90          0.474655000000        -0.007178436593
   91          0.216558000000         0.003509540773
   92         87.020800000000        -0.000000384092
   93         11.066800000000         0.000306251717
   94          6.660470000000        -0.001413648077
   95          1.946960000000         0.009097333685
 P 95
    1         21.595400000000        -0.000595645389
    2         13.514500000000         0.003613888458
    3          6.255140000000        -0.013369620813
    4          1.718140000000         0.023836585670
    5          0.869439000000         0.021580271201
    6          0.426759000000         0.007102861721
    7          0.184297000000         0.000626243303
    8          0.076379000000         0.000037627772
    9         21.595400000000        -0.003132371399
   10         13.514500000000         0.019004664624
   11          6.255140000000        -0.070307969560
   12          1.718140000000         0.125351493746
   13          0.869439000000         0.113486019681
   14          0.426759000000         0.037352427019
   15          0.184297000000         0.003293279272
   16          0.076379000000         0.000197876385
   17         21.595400000000         0.000405384252
   18         13.514500000000        -0.002459539680
   19          6.255140000000         0.009099094584
   20          1.718140000000        -0.016222700001
   21          0.869439000000        -0.014687097828
   22          0.426759000000        -0.004834064595
   23          0.184297000000        -0.000426208576
   24          0.076379000000        -0.000025608704
   25         21.595400000000         0.002295005058
   26         13.514500000000        -0.015950285168
   27          6.255140000000         0.064659532263
   28          1.718140000000        -0.141406587974
   29          0.869439000000        -0.138471514961
   30          0.426759000000         0.003561728628
   31          0.184297000000         0.271105669620
   32          0.076379000000         0.403685429743
   33         21.595400000000         0.012068939579
   34         13.514500000000        -0.083879130141
   35          6.255140000000         0.340030617905
   36          1.718140000000        -0.743626930193
   37          0.869439000000        -0.728192010468
   38          0.426759000000         0.018730367261
   39          0.184297000000         1.425686594567
   40          0.076379000000         2.122895129464
   41         21.595400000000        -0.001561934208
   42         13.514500000000         0.010855442755
   43          6.255140000000        -0.044005975043
   44          1.718140000000         0.096238475033
   45          0.869439000000         0.094240923470
   46          0.426759000000        -0.002424040751
   47          0.184297000000        -0.184509057116
   48          0.076379000000        -0.274740170937
   49         21.595400000000        -0.002105937717
   50         13.514500000000         0.014114775656
   51          6.255140000000        -0.057030017948
   52          1.718140000000         0.137791511064
   53          0.869439000000         0.129321694663
   54          0.426759000000        -0.146935073029
   55          0.184297000000        -0.200641834450
   56          0.076379000000        -0.039092100503
   57         21.595400000000        -0.011074674963
   58         13.514500000000         0.074226579126
   59          6.255140000000        -0.299908637802
   60          1.718140000000         0.724616015760
   61          0.869439000000         0.680075067137
   62          0.426759000000        -0.772700047856
   63          0.184297000000        -1.055132392052
   64          0.076379000000        -0.205576975645
   65         21.595400000000         0.001433258784
   66         13.514500000000        -0.009606231958
   67          6.255140000000         0.038813481303
   68          1.718140000000        -0.093778126517
   69          0.869439000000        -0.088013740105
   70          0.426759000000         0.100001050586
   71          0.184297000000         0.136552790446
   72          0.076379000000         0.026605296063
   73         21.595400000000         0.000647059007
   74         13.514500000000        -0.004108173615
   75          6.255140000000         0.016958705357
   76          1.718140000000        -0.062852467099
   77          0.869439000000         0.011309159063
   78          0.426759000000         0.078923119030
   79          0.184297000000        -0.040283629951
   80          0.076379000000        -0.025407232586
   81         21.595400000000         0.003402744594
   82         13.514500000000        -0.021604004294
   83          6.255140000000         0.089182195721
   84          1.718140000000        -0.330527649623
   85          0.869439000000         0.059472442957
   86          0.426759000000         0.415039762765
   87          0.184297000000        -0.211842973563
   88          0.076379000000        -0.133611189152
   89         21.595400000000        -0.000440375324
   90         13.514500000000         0.002795940200
   91          6.255140000000        -0.011541753220
   92          1.718140000000         0.042776122897
   93          0.869439000000        -0.007696785827
   94          0.426759000000        -0.053713484846
   95          0.184297000000         0.027416227001
 D 95
    1         87.020800000000        -0.000000396580
    2         11.066800000000        -0.000128780486
    3          6.660470000000         0.000620792610
    4          1.946960000000        -0.002159191254
    5          0.984706000000        -0.003491016551
    6          0.474655000000        -0.003143404776
    7          0.216558000000        -0.001789046499
    8         87.020800000000        -0.000001774268
    9         11.066800000000        -0.000576153829
   10          6.660470000000         0.002777377608
   11          1.946960000000        -0.009660052879
   12          0.984706000000        -0.015618535146
   13          0.474655000000        -0.014063347238
   14          0.216558000000        -0.008004054180
   15         87.020800000000        -0.000004586389
   16         11.066800000000        -0.001489326728
   17          6.660470000000         0.007179372067
   18          1.946960000000        -0.024970718279
   19          0.984706000000        -0.040373075172
   20          0.474655000000        -0.036352997891
   21          0.216558000000        -0.020690050513
   22         87.020800000000        -0.000006225950
   23         11.066800000000        -0.002021737624
   24          6.660470000000         0.009745884732
   25          1.946960000000        -0.033897357560
   26          0.984706000000        -0.054805814940
   27          0.474655000000        -0.049348623221
   28          0.216558000000        -0.028086418354
   29         87.020800000000        -0.000024550250
   30         11.066800000000        -0.007972142451
   31          6.660470000000         0.038430101159
   32          1.946960000000        -0.133664507212
   33          0.984706000000        -0.216111011998
   34          0.474655000000        -0.194592141667
   35          0.216558000000        -0.110750735125
   36         87.020800000000         0.000000158559
   37         11.066800000000         0.000102086193
   38          6.660470000000        -0.000487542258
   39          1.946960000000         0.002155083065
   40          0.984706000000         0.002592858368
   41          0.474655000000        -0.001460100066
   42          0.216558000000        -0.002979700543
   43         87.020800000000         0.000000709379
   44         11.066800000000         0.000456725647
   45          6.660470000000        -0.002181225950
   46          1.946960000000         0.009641673162
   47          0.984706000000         0.011600245646
   48          0.474655000000        -0.006532373555
   49          0.216558000000        -0.013330947295
   50         87.020800000000         0.000001833708
   51         11.066800000000         0.001180611288
   52          6.660470000000        -0.005638352024
   53          1.946960000000         0.024923207697
   54          0.984706000000         0.029986012461
   55          0.474655000000        -0.016885835076
   56          0.216558000000        -0.034459783344
   57         87.020800000000         0.000002489230
   58         11.066800000000         0.001602661266
   59          6.660470000000        -0.007653974245
   60          1.946960000000         0.033832862692
   61          0.984706000000         0.040705540579
   62          0.474655000000        -0.022922255695
   63          0.216558000000        -0.046778614232
   64         87.020800000000         0.000009815563
   65         11.066800000000         0.006319635034
   66          6.660470000000        -0.030181252149
   67          1.946960000000         0.133410190197
   68          0.984706000000         0.160510624247
   69          0.474655000000        -0.090387340851
   70          0.216558000000        -0.184458048338
   71         87.020800000000         0.000000084888
   72         11.066800000000        -0.000067684785
   73          6.660470000000         0.000312430793
   74          1.946960000000        -0.002010604496
   75          0.984706000000         0.000510997654
   76          0.474655000000         0.002153660302
   77          0.216558000000        -0.001052925458
   78         87.020800000000         0.000000379783
   79         11.066800000000        -0.000302816439
   80          6.660470000000         0.001397790945
   81          1.946960000000        -0.008995287339
   82          0.984706000000         0.002286163557
   83          0.474655000000         0.009635307832
   84          0.216558000000        -0.004710706190
   85         87.020800000000         0.000000981719
   86         11.066800000000        -0.000782764243
   87          6.660470000000         0.003613214579
   88          1.946960000000        -0.023252335034
   89          0.984706000000         0.005909610105
   90          0.474655000000         0.024906753661
   91          0.216558000000        -0.012176922697
   92         87.020800000000         0.000001332668
   93         11.066800000000        -0.001062590156
   94          6.660470000000         0.004904881996
   95          1.946960000000        -0.031564679316
 P 95
    1         21.595400000000         0.000544585829
    2         13.514500000000        -0.003304100864
    3          6.255140000000         0.012223558140
    4          1.718140000000        -0.021793280070
    5          0.869439000000        -0.019730380046
    6          0.426759000000        -0.006493994439
    7          0.184297000000        -0.000572560848
    8          0.076379000000        -0.000034402266
    9         21.595400000000         0.002863860123
   10         13.514500000000        -0.017375558083
   11          6.255140000000         0.064281071670
   12          1.718140000000        -0.114606187660
   13          0.869439000000        -0.103757838696
   14          0.426759000000        -0.034150524518
   15          0.184297000000        -0.003010974748
   16          0.076379000000        -0.000180914144
   17         21.595400000000        -0.000370634144
   18         13.514500000000         0.002248704485
   19          6.255140000000        -0.008319107418
   20          1.718140000000         0.014832067374
   21          0.869439000000         0.013428099177
   22          0.426759000000         0.004419681789
   23          0.184297000000         0.000389673378
   24          0.076379000000         0.000023413489
   25         21.595400000000        -0.004115025051
   26         13.514500000000         0.028599424128
   27          6.255140000000        -0.115936822922
   28          1.718140000000         0.253547001905
   29          0.869439000000         0.248284312428
   30          0.426759000000        -0.006386305109
   31          0.184297000000        -0.486102031856
   32          0.076379000000        -0.723822219961
   33         21.595400000000        -0.021640034530
   34         13.514500000000         0.150398240103
   35          6.255140000000        -0.609686896226
   36          1.718140000000         1.333349325458
   37          0.869439000000         1.305673969755
   38          0.426759000000        -0.033584209419
   39          0.184297000000        -2.556306370841
   40          0.076379000000        -3.806425875615
   41         21.595400000000         0.002800603150
   42         13.514500000000        -0.019464191906
   43          6.255140000000         0.078904266050
   44          1.718140000000        -0.172558981609
   45          0.869439000000        -0.168977301171
   46          0.426759000000         0.004346390601
   47          0.184297000000         0.330831250004
   48          0.076379000000         0.492618820983
   49         21.595400000000         0.006927966592
   50         13.514500000000        -0.046433801638
   51          6.255140000000         0.187613363853
   52          1.718140000000        -0.453296874726
   53          0.869439000000        -0.425433465183
   54          0.426759000000         0.483376725294
[...]
  BAS[ATNO][ 12].a[ 69] =         0.426759000000;     BAS[ATNO][ 12].d[ 69] =         0.298778113003;
  BAS[ATNO][ 12].a[ 70] =         0.184297000000;     BAS[ATNO][ 12].d[ 70] =         0.407985564309;
  BAS[ATNO][ 12].a[ 71] =         0.076379000000;     BAS[ATNO][ 12].d[ 71] =         0.079489966424;
  BAS[ATNO][ 12].a[ 72] =        21.595400000000;     BAS[ATNO][ 12].d[ 72] =         0.005948273563;
  BAS[ATNO][ 12].a[ 73] =        13.514500000000;     BAS[ATNO][ 12].d[ 73] =        -0.037765551912;
  BAS[ATNO][ 12].a[ 74] =         6.255140000000;     BAS[ATNO][ 12].d[ 74] =         0.155897712118;
  BAS[ATNO][ 12].a[ 75] =         1.718140000000;     BAS[ATNO][ 12].d[ 75] =        -0.577789142233;
  BAS[ATNO][ 12].a[ 76] =         0.869439000000;     BAS[ATNO][ 12].d[ 76] =         0.103962654385;
  BAS[ATNO][ 12].a[ 77] =         0.426759000000;     BAS[ATNO][ 12].d[ 77] =         0.725523171190;
  BAS[ATNO][ 12].a[ 78] =         0.184297000000;     BAS[ATNO][ 12].d[ 78] =        -0.370318701393;
  BAS[ATNO][ 12].a[ 79] =         0.076379000000;     BAS[ATNO][ 12].d[ 79] =        -0.233563196485;
  BAS[ATNO][ 12].a[ 80] =        21.595400000000;     BAS[ATNO][ 12].d[ 80] =         0.031280695430;
  BAS[ATNO][ 12].a[ 81] =        13.514500000000;     BAS[ATNO][ 12].d[ 81] =        -0.198600941019;
  BAS[ATNO][ 12].a[ 82] =         6.255140000000;     BAS[ATNO][ 12].d[ 82] =         0.819832645415;
  BAS[ATNO][ 12].a[ 83] =         1.718140000000;     BAS[ATNO][ 12].d[ 83] =        -3.038469227896;
  BAS[ATNO][ 12].a[ 84] =         0.869439000000;     BAS[ATNO][ 12].d[ 84] =         0.546717311056;
  BAS[ATNO][ 12].a[ 85] =         0.426759000000;     BAS[ATNO][ 12].d[ 85] =         3.815370813762;
  BAS[ATNO][ 12].a[ 86] =         0.184297000000;     BAS[ATNO][ 12].d[ 86] =        -1.947426658710;
  BAS[ATNO][ 12].a[ 87] =         0.076379000000;     BAS[ATNO][ 12].d[ 87] =        -1.228258777148;
  BAS[ATNO][ 12].a[ 88] =        21.595400000000;     BAS[ATNO][ 12].d[ 88] =        -0.004048275156;
  BAS[ATNO][ 12].a[ 89] =        13.514500000000;     BAS[ATNO][ 12].d[ 89] =         0.025702473826;
  BAS[ATNO][ 12].a[ 90] =         6.255140000000;     BAS[ATNO][ 12].d[ 90] =        -0.106100842232;
  BAS[ATNO][ 12].a[ 91] =         1.718140000000;     BAS[ATNO][ 12].d[ 91] =         0.393231650359;
  BAS[ATNO][ 12].a[ 92] =         0.869439000000;     BAS[ATNO][ 12].d[ 92] =        -0.070754888196;
  BAS[ATNO][ 12].a[ 93] =         0.426759000000;     BAS[ATNO][ 12].d[ 93] =        -0.493776454293;
  BAS[ATNO][ 12].a[ 94] =         0.184297000000;     BAS[ATNO][ 12].d[ 94] =         0.252031447917;

  // Basis function  14 L = d
  InitBFNGauss(BAS[ATNO][ 13]);
  BAS[ATNO][ 13].l  = 2;
  BAS[ATNO][ 13].ng = 92;
  BAS[ATNO][ 13].a[  0] =        87.020800000000;     BAS[ATNO][ 13].d[  0] =        -0.000009794328;
  BAS[ATNO][ 13].a[  1] =        11.066800000000;     BAS[ATNO][ 13].d[  1] =        -0.003180488048;
  BAS[ATNO][ 13].a[  2] =         6.660470000000;     BAS[ATNO][ 13].d[  2] =         0.015331697617;
  BAS[ATNO][ 13].a[  3] =         1.946960000000;     BAS[ATNO][ 13].d[  3] =        -0.053325485620;
  BAS[ATNO][ 13].a[  4] =         0.984706000000;     BAS[ATNO][ 13].d[  4] =        -0.086217537497;
  BAS[ATNO][ 13].a[  5] =         0.474655000000;     BAS[ATNO][ 13].d[  5] =        -0.077632579274;
  BAS[ATNO][ 13].a[  6] =         0.216558000000;     BAS[ATNO][ 13].d[  6] =        -0.044184031023;
  BAS[ATNO][ 13].a[  7] =        87.020800000000;     BAS[ATNO][ 13].d[  7] =        -0.000028643545;
  BAS[ATNO][ 13].a[  8] =        11.066800000000;     BAS[ATNO][ 13].d[  8] =        -0.009301348053;
  BAS[ATNO][ 13].a[  9] =         6.660470000000;     BAS[ATNO][ 13].d[  9] =         0.044837601533;
  BAS[ATNO][ 13].a[ 10] =         1.946960000000;     BAS[ATNO][ 13].d[ 10] =        -0.155950563040;
  BAS[ATNO][ 13].a[ 11] =         0.984706000000;     BAS[ATNO][ 13].d[ 11] =        -0.252143479994;
  BAS[ATNO][ 13].a[ 12] =         0.474655000000;     BAS[ATNO][ 13].d[ 12] =        -0.227036740635;
  BAS[ATNO][ 13].a[ 13] =         0.216558000000;     BAS[ATNO][ 13].d[ 13] =        -0.129216348154;
  BAS[ATNO][ 13].a[ 14] =        87.020800000000;     BAS[ATNO][ 13].d[ 14] =         0.000003990047;
  BAS[ATNO][ 13].a[ 15] =        11.066800000000;     BAS[ATNO][ 13].d[ 15] =         0.001295678257;
  BAS[ATNO][ 13].a[ 16] =         6.660470000000;     BAS[ATNO][ 13].d[ 16] =        -0.006245880173;
  BAS[ATNO][ 13].a[ 17] =         1.946960000000;     BAS[ATNO][ 13].d[ 17] =         0.021723921360;
  BAS[ATNO][ 13].a[ 18] =         0.984706000000;     BAS[ATNO][ 13].d[ 18] =         0.035123599583;
  BAS[ATNO][ 13].a[ 19] =         0.474655000000;     BAS[ATNO][ 13].d[ 19] =         0.031626229514;
  BAS[ATNO][ 13].a[ 20] =         0.216558000000;     BAS[ATNO][ 13].d[ 20] =         0.017999843868;
  BAS[ATNO][ 13].a[ 21] =        87.020800000000;     BAS[ATNO][ 13].d[ 21] =         0.000005847407;
  BAS[ATNO][ 13].a[ 22] =        11.066800000000;     BAS[ATNO][ 13].d[ 22] =         0.001898814078;
  BAS[ATNO][ 13].a[ 23] =         6.660470000000;     BAS[ATNO][ 13].d[ 23] =        -0.009153325789;
  BAS[ATNO][ 13].a[ 24] =         1.946960000000;     BAS[ATNO][ 13].d[ 24] =         0.031836366390;
  BAS[ATNO][ 13].a[ 25] =         0.984706000000;     BAS[ATNO][ 13].d[ 25] =         0.051473569928;
  BAS[ATNO][ 13].a[ 26] =         0.474655000000;     BAS[ATNO][ 13].d[ 26] =         0.046348180589;
  BAS[ATNO][ 13].a[ 27] =         0.216558000000;     BAS[ATNO][ 13].d[ 27] =         0.026378737744;
  BAS[ATNO][ 13].a[ 28] =        87.020800000000;     BAS[ATNO][ 13].d[ 28] =         0.000009247237;
  BAS[ATNO][ 13].a[ 29] =        11.066800000000;     BAS[ATNO][ 13].d[ 29] =         0.005953724908;
  BAS[ATNO][ 13].a[ 30] =         6.660470000000;     BAS[ATNO][ 13].d[ 30] =        -0.028433742093;
  BAS[ATNO][ 13].a[ 31] =         1.946960000000;     BAS[ATNO][ 13].d[ 31] =         0.125685671417;
  BAS[ATNO][ 13].a[ 32] =         0.984706000000;     BAS[ATNO][ 13].d[ 32] =         0.151216976366;
  BAS[ATNO][ 13].a[ 33] =         0.474655000000;     BAS[ATNO][ 13].d[ 33] =        -0.085153867225;
  BAS[ATNO][ 13].a[ 34] =         0.216558000000;     BAS[ATNO][ 13].d[ 34] =        -0.173777832259;
  BAS[ATNO][ 13].a[ 35] =        87.020800000000;     BAS[ATNO][ 13].d[ 35] =         0.000027043575;
  BAS[ATNO][ 13].a[ 36] =        11.066800000000;     BAS[ATNO][ 13].d[ 36] =         0.017411688627;
  BAS[ATNO][ 13].a[ 37] =         6.660470000000;     BAS[ATNO][ 13].d[ 37] =        -0.083154574911;
  BAS[ATNO][ 13].a[ 38] =         1.946960000000;     BAS[ATNO][ 13].d[ 38] =         0.367568171123;
  BAS[ATNO][ 13].a[ 39] =         0.984706000000;     BAS[ATNO][ 13].d[ 39] =         0.442234558791;
  BAS[ATNO][ 13].a[ 40] =         0.474655000000;     BAS[ATNO][ 13].d[ 40] =        -0.249032772684;
  BAS[ATNO][ 13].a[ 41] =         0.216558000000;     BAS[ATNO][ 13].d[ 41] =        -0.508213858147;
  BAS[ATNO][ 13].a[ 42] =        87.020800000000;     BAS[ATNO][ 13].d[ 42] =        -0.000003767171;
  BAS[ATNO][ 13].a[ 43] =        11.066800000000;     BAS[ATNO][ 13].d[ 43] =        -0.002425449111;
  BAS[ATNO][ 13].a[ 44] =         6.660470000000;     BAS[ATNO][ 13].d[ 44] =         0.011583436513;
  BAS[ATNO][ 13].a[ 45] =         1.946960000000;     BAS[ATNO][ 13].d[ 45] =        -0.051202264926;
  BAS[ATNO][ 13].a[ 46] =         0.984706000000;     BAS[ATNO][ 13].d[ 46] =        -0.061603296524;
  BAS[ATNO][ 13].a[ 47] =         0.474655000000;     BAS[ATNO][ 13].d[ 47] =         0.034690277897;
  BAS[ATNO][ 13].a[ 48] =         0.216558000000;     BAS[ATNO][ 13].d[ 48] =         0.070794216279;
  BAS[ATNO][ 13].a[ 49] =        87.020800000000;     BAS[ATNO][ 13].d[ 49] =        -0.000005520783;
  BAS[ATNO][ 13].a[ 50] =        11.066800000000;     BAS[ATNO][ 13].d[ 50] =        -0.003554491166;
  BAS[ATNO][ 13].a[ 51] =         6.660470000000;     BAS[ATNO][ 13].d[ 51] =         0.016975504687;
  BAS[ATNO][ 13].a[ 52] =         1.946960000000;     BAS[ATNO][ 13].d[ 52] =        -0.075036824113;
  BAS[ATNO][ 13].a[ 53] =         0.984706000000;     BAS[ATNO][ 13].d[ 53] =        -0.090279516594;
  BAS[ATNO][ 13].a[ 54] =         0.474655000000;     BAS[ATNO][ 13].d[ 54] =         0.050838537801;
  BAS[ATNO][ 13].a[ 55] =         0.216558000000;     BAS[ATNO][ 13].d[ 55] =         0.103748792418;
  BAS[ATNO][ 13].a[ 56] =        87.020800000000;     BAS[ATNO][ 13].d[ 56] =         0.000023171017;
  BAS[ATNO][ 13].a[ 57] =        11.066800000000;     BAS[ATNO][ 13].d[ 57] =        -0.018475187185;
  BAS[ATNO][ 13].a[ 58] =         6.660470000000;     BAS[ATNO][ 13].d[ 58] =         0.085280869998;
  BAS[ATNO][ 13].a[ 59] =         1.946960000000;     BAS[ATNO][ 13].d[ 59] =        -0.548813063266;
  BAS[ATNO][ 13].a[ 60] =         0.984706000000;     BAS[ATNO][ 13].d[ 60] =         0.139481528197;
  BAS[ATNO][ 13].a[ 61] =         0.474655000000;     BAS[ATNO][ 13].d[ 61] =         0.587861466498;
  BAS[ATNO][ 13].a[ 62] =         0.216558000000;     BAS[ATNO][ 13].d[ 62] =        -0.287405726649;
  BAS[ATNO][ 13].a[ 63] =        87.020800000000;     BAS[ATNO][ 13].d[ 63] =         0.000067763718;
  BAS[ATNO][ 13].a[ 64] =        11.066800000000;     BAS[ATNO][ 13].d[ 64] =        -0.054030747403;
  BAS[ATNO][ 13].a[ 65] =         6.660470000000;     BAS[ATNO][ 13].d[ 65] =         0.249404192725;
  BAS[ATNO][ 13].a[ 66] =         1.946960000000;     BAS[ATNO][ 13].d[ 66] =        -1.605005659576;
  BAS[ATNO][ 13].a[ 67] =         0.984706000000;     BAS[ATNO][ 13].d[ 67] =         0.407914200930;
  BAS[ATNO][ 13].a[ 68] =         0.474655000000;     BAS[ATNO][ 13].d[ 68] =         1.719202846888;
  BAS[ATNO][ 13].a[ 69] =         0.216558000000;     BAS[ATNO][ 13].d[ 69] =        -0.840519019576;
  BAS[ATNO][ 13].a[ 70] =        87.020800000000;     BAS[ATNO][ 13].d[ 70] =        -0.000009439489;
  BAS[ATNO][ 13].a[ 71] =        11.066800000000;     BAS[ATNO][ 13].d[ 71] =         0.007526485860;
  BAS[ATNO][ 13].a[ 72] =         6.660470000000;     BAS[ATNO][ 13].d[ 72] =        -0.034742016727;
  BAS[ATNO][ 13].a[ 73] =         1.946960000000;     BAS[ATNO][ 13].d[ 73] =         0.223577369983;
  BAS[ATNO][ 13].a[ 74] =         0.984706000000;     BAS[ATNO][ 13].d[ 74] =        -0.056822468929;
  BAS[ATNO][ 13].a[ 75] =         0.474655000000;     BAS[ATNO][ 13].d[ 75] =        -0.239485043982;
  BAS[ATNO][ 13].a[ 76] =         0.216558000000;     BAS[ATNO][ 13].d[ 76] =         0.117084342162;
  BAS[ATNO][ 13].a[ 77] =        87.020800000000;     BAS[ATNO][ 13].d[ 77] =        -0.000013833554;
  BAS[ATNO][ 13].a[ 78] =        11.066800000000;     BAS[ATNO][ 13].d[ 78] =         0.011030051044;
  BAS[ATNO][ 13].a[ 79] =         6.660470000000;     BAS[ATNO][ 13].d[ 79] =        -0.050914360961;
  BAS[ATNO][ 13].a[ 80] =         1.946960000000;     BAS[ATNO][ 13].d[ 80] =         0.327652220293;
  BAS[ATNO][ 13].a[ 81] =         0.984706000000;     BAS[ATNO][ 13].d[ 81] =        -0.083273222637;
  BAS[ATNO][ 13].a[ 82] =         0.474655000000;     BAS[ATNO][ 13].d[ 82] =        -0.350964886981;
  BAS[ATNO][ 13].a[ 83] =         0.216558000000;     BAS[ATNO][ 13].d[ 83] =         0.171586885890;
  BAS[ATNO][ 13].a[ 84] =         0.091472000000;     BAS[ATNO][ 13].d[ 84] =         0.290407979912;
  BAS[ATNO][ 13].a[ 85] =         0.091472000000;     BAS[ATNO][ 13].d[ 85] =         0.849299119397;
  BAS[ATNO][ 13].a[ 86] =         0.091472000000;     BAS[ATNO][ 13].d[ 86] =        -0.118307410513;
  BAS[ATNO][ 13].a[ 87] =         0.091472000000;     BAS[ATNO][ 13].d[ 87] =        -0.173379290287;
  BAS[ATNO][ 13].a[ 88] =         0.038600000000;     BAS[ATNO][ 13].d[ 88] =        -0.100790539067;
  BAS[ATNO][ 13].a[ 89] =         0.038600000000;     BAS[ATNO][ 13].d[ 89] =        -0.294762272368;
  BAS[ATNO][ 13].a[ 90] =         0.038600000000;     BAS[ATNO][ 13].d[ 90] =         0.041060399528;
  BAS[ATNO][ 13].a[ 91] =         0.038600000000;     BAS[ATNO][ 13].d[ 91] =         0.060173939216;

-------------------------------------------
RADIAL EXPECTATION VALUES <R**-3> TO <R**3>
-------------------------------------------
   0 :     0.000000     1.385298     1.127797     0.966607     1.019649     1.174994
   1 :     1.321603     1.093553     0.996447     1.106639     1.352566     1.828500
   2 :     1.321603     1.093553     0.996447     1.106639     1.352566     1.828500
   3 :     1.324478     1.095356     0.997388     1.105250     1.348645     1.819339
   4 :     0.623038     0.632494     0.739124     1.578045     2.922228    31.822687
   5 :     0.623038     0.632494     0.739124     1.578045     2.922228    31.822687
   6 :     0.000000     0.172964     0.354287     3.523826    15.134686    79.030158
   7 :     0.000000     0.048772     0.162740     7.992009    72.000223   695.365962
   8 :     0.000000     0.202577     0.355842     4.162646    25.485460   207.235474
   9 :     0.000000     0.760578     0.721880     2.468087    12.243025    99.177761
  10 :     0.623501     0.632762     0.739205     1.578901     2.929770    32.060301
  11 :     0.623501     0.632762     0.739205     1.578901     2.929770    32.060301
  12 :     0.623347     0.632710     0.739125     1.579504     2.933604    32.127177
  13 :     0.041452     0.076116     0.236619     5.150159    31.171164   217.796452
  14 :     0.009076     0.025093     0.133837     9.083991    94.063266  1071.516967
  15 :     0.009076     0.025093     0.133837     9.083991    94.063266  1071.516967
  16 :     0.006472     0.016881     0.103965    11.445297   141.770144  1845.798334
  17 :     0.024557     0.049965     0.179892     8.034670    84.794169  1051.142057
  18 :     0.024557     0.049965     0.179892     8.034670    84.794169  1051.142057
  19 :     0.008505     0.027557     0.151816     7.104531    53.233375  2089.316649
  20 :     0.008505     0.027557     0.151816     7.104531    53.233375  2089.316649
  21 :     0.009201     0.028324     0.152810     7.083571    52.976779  2076.418808
  22 :     0.009201     0.028324     0.152810     7.083571    52.976779  2076.418808
  23 :     0.009512     0.028897     0.153495     7.073411    52.877849  2066.899115
  24 :     0.075382     0.100783     0.249002     5.960685    49.377316   521.367302
  25 :     0.075382     0.100783     0.249002     5.960685    49.377316   521.367302
  26 :     0.062862     0.084720     0.224182     6.467867    55.202881   580.269559
  27 :     0.065735     0.097345     0.255254     4.944658    29.267597  1015.230375
  28 :     0.065735     0.097345     0.255254     4.944658    29.267597  1015.230375
  29 :     0.066494     0.097885     0.255386     4.958429    29.475436  1026.720414
  30 :     0.066494     0.097885     0.255386     4.958429    29.475436  1026.720414
  31 :     0.065211     0.099150     0.256605     4.952023    29.463939  1019.427684
  32 :     0.172657     0.217684     0.389791     3.806739    22.448785   196.032966
  33 :     0.172657     0.217684     0.389791     3.806739    22.448785   196.032966
  34 :     0.170562     0.215643     0.387769     3.821625    22.534249   196.220368
  35 :     0.254200     0.295197     0.459964     3.018938    12.529944   348.883800
  36 :     0.254200     0.295197     0.459964     3.018938    12.529944   348.883800
  37 :     0.253509     0.294468     0.459270     3.023835    12.564119   349.886947
  38 :     0.253509     0.294468     0.459270     3.023835    12.564119   349.886947
  39 :     0.253233     0.294228     0.459037     3.025518    12.576043   350.237026
  40 :     1.080090     0.806134     0.755259     2.207791     9.467854    74.101777
  41 :     1.080090     0.806134     0.755259     2.207791     9.467854    74.101777
  42 :     1.077539     0.804495     0.754306     2.210316     9.476873    74.085518
  43 :     1.209489     0.928107     0.845190     1.757505     5.151527   123.274080
  44 :     1.209489     0.928107     0.845190     1.757505     5.151527   123.274080
  45 :     1.208262     0.927262     0.844677     1.758941     5.158565   123.441122
  46 :     1.208262     0.927262     0.844677     1.758941     5.158565   123.441122
  47 :     1.207848     0.926982     0.844506     1.759421     5.160932   123.496512
  48 :     0.000000     3.415279     1.020397     4.289930    33.919825   331.148956
Making the total density                ... o.k.
o.k.
Initializing the integrals              ... done
Making exponents                        ... done
Making rho(0)                           ... done (         0.000019478)
Integral calculation                    ... Two index integrals                     ... done
Solving the equation system             ... done
atomic density will be written to file 79_Au_atom79.adf

-------
TIMINGS
-------

Total SCF time: 0 days 0 hours 0 min 1 sec 

Total time                  ....       1.646 sec
Sum of individual times     ....       1.125 sec  ( 68.3%)

Fock matrix formation       ....       0.941 sec  ( 57.2%)
Diagonalization             ....       0.175 sec  ( 10.6%)
Density matrix formation    ....       0.001 sec  (  0.1%)
Population analysis         ....       0.000 sec  (  0.0%)
Initial guess               ....       0.001 sec  (  0.0%)
Orbital Transformation      ....       0.000 sec  (  0.0%)
Orbital Orthonormalization  ....       0.000 sec  (  0.0%)
DIIS solution               ....       0.007 sec  (  0.4%)

-------------------------   --------------------
FINAL SINGLE POINT ENERGY      -134.625033145378
-------------------------   --------------------


                            ***************************************
                            *     ORCA property calculations      *
                            ***************************************

                                    ---------------------
                                    Active property flags
                                    ---------------------
   (+) Dipole Moment


------------------------------------------------------------------------------
                       ORCA ELECTRIC PROPERTIES CALCULATION
------------------------------------------------------------------------------

Dipole Moment Calculation                       ... on
Quadrupole Moment Calculation                   ... off
Polarizability Calculation                      ... off
GBWName                                         ... 79_Au_atom79.gbw
Electron density file                           ... 79_Au_atom79.scfp
The origin for moment calculation is the CENTER OF MASS  = ( 0.000000,  0.000000  0.000000)

-------------
DIPOLE MOMENT
-------------
                                X             Y             Z
Electronic contribution:      0.00000      -0.00000       0.00000
Nuclear contribution   :      0.00000       0.00000       0.00000
                        -----------------------------------------
Total Dipole Moment    :      0.00000      -0.00000       0.00000
                        -----------------------------------------
Magnitude (a.u.)       :      0.00000
Magnitude (Debye)      :      0.00000



--------------------
Rotational spectrum 
--------------------
 
Rotational constants in cm-1:     0.000000     0.000000     0.000000 
Rotational constants in MHz :     0.000000     0.000000     0.000000 

 Dipole components along the rotational axes: 
x,y,z [a.u.] :     0.000000    -0.000000     0.000000 
x,y,z [Debye]:     0.000000    -0.000000     0.000000 

 

Timings for individual modules:

Sum of individual times         ...        5.914 sec (=   0.099 min)
GTO integral calculation        ...        4.239 sec (=   0.071 min)  71.7 %
SCF iterations                  ...        1.675 sec (=   0.028 min)  28.3 %
                             ****ORCA TERMINATED NORMALLY****
TOTAL RUN TIME: 0 days 0 hours 0 minutes 6 seconds 139 msec
