
                                 *****************
                                 * O   R   C   A *
                                 *****************

           --- An Ab Initio, DFT and Semiempirical electronic structure package ---

                  #######################################################
                  #                        -***-                        #
                  #          Department of theory and spectroscopy      #
                  #               Directorship: Frank Neese             #
                  #        Max Planck Institute fuer Kohlenforschung    #
                  #                Kaiser Wilhelm Platz 1               #
                  #                 D-45470 Muelheim/Ruhr               #
                  #                      Germany                        #
                  #                                                     #
                  #                  All rights reserved                #
                  #                        -***-                        #
                  #######################################################


                         Program Version 4.2.0 -  RELEASE  -


 With contributions from (in alphabetic order):
   Daniel Aravena         : Magnetic Suceptibility
   Michael Atanasov       : Ab Initio Ligand Field Theory (pilot matlab implementation)
   Alexander A. Auer      : GIAO ZORA, VPT2
   Ute Becker             : Parallelization
   Giovanni Bistoni       : ED, misc. LED, open-shell LED, HFLED
   Martin Brehm           : Molecular dynamics
   Dmytro Bykov           : SCF Hessian
   Vijay G. Chilkuri      : MRCI spin determinant printing, contributions to CSF-ICE
   Dipayan Datta          : RHF DLPNO-CCSD density
   Achintya Kumar Dutta   : EOM-CC, STEOM-CC
   Dmitry Ganyushin       : Spin-Orbit,Spin-Spin,Magnetic field MRCI
   Miquel Garcia          : C-PCM Hessian, Gaussian charge scheme
   Yang Guo               : DLPNO-NEVPT2, CIM, IAO-localization
   Andreas Hansen         : Spin unrestricted coupled pair/coupled cluster methods
   Benjamin Helmich-Paris : CASSCF linear response (MC-RPA)
   Lee Huntington         : MR-EOM, pCC
   Robert Izsak           : Overlap fitted RIJCOSX, COSX-SCS-MP3, EOM
   Christian Kollmar      : KDIIS, OOCD, Brueckner-CCSD(T), CCSD density
   Simone Kossmann        : Meta GGA functionals, TD-DFT gradient, OOMP2, MP2 Hessian
   Martin Krupicka        : AUTO-CI
   Lucas Lang             : DCDCAS
   Dagmar Lenk            : GEPOL surface, SMD
   Dimitrios Liakos       : Extrapolation schemes; Compound Job, initial MDCI parallelization
   Dimitrios Manganas     : Further ROCIS development; embedding schemes
   Dimitrios Pantazis     : SARC Basis sets
   Taras Petrenko         : DFT Hessian,TD-DFT gradient, ASA, ECA, R-Raman, ABS, FL, XAS/XES, NRVS
   Peter Pinski           : DLPNO-MP2, DLPNO-MP2 Gradient
   Christoph Reimann      : Effective Core Potentials
   Marius Retegan         : Local ZFS, SOC
   Christoph Riplinger    : Optimizer, TS searches, QM/MM, DLPNO-CCSD(T), (RO)-DLPNO pert. Triples
   Tobias Risthaus        : Range-separated hybrids, TD-DFT gradient, RPA, STAB
   Michael Roemelt        : Original ROCIS implementation
   Masaaki Saitow         : Open-shell DLPNO-CCSD energy and density
   Barbara Sandhoefer     : DKH picture change effects
   Avijit Sen             : IP-ROCIS
   Kantharuban Sivalingam : CASSCF convergence, NEVPT2, FIC-MRCI
   Bernardo de Souza      : ESD, SOC TD-DFT
   Georgi Stoychev        : AutoAux, RI-MP2 NMR
   Willem Van den Heuvel  : Paramagnetic NMR
   Boris Wezisla          : Elementary symmetry handling
   Frank Wennmohs         : Technical directorship


 We gratefully acknowledge several colleagues who have allowed us to
 interface, adapt or use parts of their codes:
   Stefan Grimme, W. Hujo, H. Kruse,             : VdW corrections, initial TS optimization,
                  C. Bannwarth                     DFT functionals, gCP, sTDA/sTD-DF
   Ed Valeev, F. Pavosevic, A. Kumar             : LibInt (2-el integral package), F12 methods
   Garnet Chan, S. Sharma, J. Yang, R. Olivares  : DMRG
   Ulf Ekstrom                                   : XCFun DFT Library
   Mihaly Kallay                                 : mrcc  (arbitrary order and MRCC methods)
   Andreas Klamt, Michael Diedenhofen            : otool_cosmo (COSMO solvation model)
   Jiri Pittner, Ondrej Demel                    : Mk-CCSD
   Frank Weinhold                                : gennbo (NPA and NBO analysis)
   Christopher J. Cramer and Donald G. Truhlar   : smd solvation model
   Lars Goerigk                                  : TD-DFT with DH, B97 family of functionals
   V. Asgeirsson, H. Jonsson                     : NEB implementation
   FAccTs GmbH                                   : IRC, NEB, NEB-TS, Multilevel, MM, QM/MM, CI optimization
   S Lehtola, MJT Oliveira, MAL Marques          : LibXC Library


 Your calculation uses the libint2 library for the computation of 2-el integrals
 For citations please refer to: http://libint.valeyev.net

 Your ORCA version has been built with support for libXC version: 4.2.3
 For citations please refer to: https://tddft.org/programs/libxc/

 This ORCA versions uses:
   CBLAS   interface :  Fast vector & matrix operations
   LAPACKE interface :  Fast linear algebra routines
   SCALAPACK package :  Parallel linear algebra routines


Setting NCore(Au) from 46 to 60
----- Orbital basis set information -----
Your calculation utilizes the basis: aug-cc-pVTZ-PP 
       Ca, Sr, Ba, Ra : Obtained from the Peterson Research Group Website (tyr0.chem.wsu.edu/~kipeters) Feb. 2017
                        H. Li, H. Feng, W. Sun, Y. Zhang, Q. Fan, K. A. Peterson, Y. Xie, H. F. Schaefer III, Mol. Phys. 111, 2292 (2013)
  Cu-Zn, Ag-Cd, Au-Hg : Obtained from the ccRepo (grant-hill.group.shef.ac.uk/ccrepo) Feb. 2017
                        K. A. Peterson, C. Puzzarini, Theor. Chem. Acc. 114, 283 (2005)
  Ga-Kr, In-Xe, Tl-Rn : Obtained from the ccRepo (grant-hill.group.shef.ac.uk/ccrepo) Feb. 2017
                        K. A. Peterson, J. Chem. Phys. 119, 11099 (2003)
                        K. A. Peterson, D. Figgen, E. Goll, H. Stoll, M. Dolg, J. Chem. Phys. 119, 11113 (2003)
                 Y-Pd : Obtained from the ccRepo (grant-hill.group.shef.ac.uk/ccrepo) Feb. 2017
                        K. A. Peterson, D. Figgen, M. Dolg, H. Stoll, J. Chem. Phys. 126, 124101 (2007)
                Hf-Pt : Obtained from the ccRepo (grant-hill.group.shef.ac.uk/ccrepo) Feb. 2017
                        D. Figgen, K. A. Peterson, M. Dolg, H. Stoll, J. Chem. Phys. 130, 164108 (2009)

cite the ECPs for Au [SK MCDHF RSC] as follows:
O: B. Metz and H. Stoll, private communication (KAP)
Tl: B. Metz, M. Schweizer, H. Stoll, M. Dolg, W. Liu, Theor. Chem. Acc. 104, 22 (2000)
Ga-As, In-Sb, Pb-Bi: B. Metz, H. Stoll, M. Dolg, J. Chem. Phys. 113, 2563 (2000)
Se-Kr, Te-Xe, Po-Rn: K.A. Peterson, D. Figgen, E. Goll, H. Stoll, and M. Dolg, J. Chem. Phys., in press (2003)
Cu-Zn, Ag-Cd, Au-Hg: D. Figgen, G. Rauhut, M. Dolg, and H. Stoll, Chem. Phys. 311, 227 (2005)
Y-Pd: K.A. Peterson, D. Figgen, M. Dolg, H. Stoll, J. Chem. Phys. 126, 124101 (2007)
I: K. A. Peterson, B. C. Shepler, D. Figgen, H. Stoll, J. Phys. Chem. A 110, 13877 (2006)
Hf-Pt: D. Figgen, K.A. Peterson, M. Dolg, H. Stoll, J. Chem. Phys. 130, 164108 (2009)
Ca, Sr, Ba, Ra: I.S. Lim, H. Stoll, P. Schwerdtfeger, J. Chem. Phys. 124, 034107 (2006)

ECP parameters for Au [SK MCDHF RSC] have been obtained from:
cc-pVDZ-PP  EMSL  Basis Set Exchange Library   4/7/16 5:27 AM
Ca, Sr, Ba, Ra: http://www.tc.uni-koeln.de/PP/index.en.html 3/16/17 1:54 PM

================================================================================
                                        WARNINGS
                       Please study these warnings very carefully!
================================================================================


WARNING: your system is open-shell and RHF/RKS was chosen
  ===> : WILL SWITCH to UHF/UKS


WARNING: MDCI localization with Augmented Hessian Foster-Boys
  ===> : Switching off randomization!

WARNING: Post HF methods need fully converged wavefunctions
  ===> : Setting SCFConvForced true
         You can overwrite this default with %scf ConvForced false 


INFO   : the flag for use of LIBINT has been found!

================================================================================
                                       INPUT FILE
================================================================================
NAME = 79_Au.in
|  1> #
|  2> # 79_Au CCSD(T)/aug-cc-pVTZ-PP
|  3> #
|  4> ! CCSD(T) aug-cc-pVTZ-PP tightscf slowconv
|  5> 
|  6> *xyz 0 2
|  7>  Au 0.0 0.0 0.0
|  8> *
|  9> 
| 10> %maxcore 5000 
| 11> 
| 12> %pal
| 13> nprocs 24
| 14> end
| 15> 
| 16> %method
| 17> NewNCore Au 60 end
| 18> end
| 19> 
| 20> 
| 21>                          ****END OF INPUT****
================================================================================

                       ****************************
                       * Single Point Calculation *
                       ****************************

---------------------------------
CARTESIAN COORDINATES (ANGSTROEM)
---------------------------------
  Au     0.000000    0.000000    0.000000

----------------------------
CARTESIAN COORDINATES (A.U.)
----------------------------
  NO LB      ZA    FRAG     MASS         X           Y           Z
   0 Au   19.0000*   0   196.966    0.000000    0.000000    0.000000
* core charge reduced due to ECP

--------------------------------
INTERNAL COORDINATES (ANGSTROEM)
--------------------------------
 Au     0   0   0     0.000000000000     0.00000000     0.00000000

---------------------------
INTERNAL COORDINATES (A.U.)
---------------------------
 Au     0   0   0     0.000000000000     0.00000000     0.00000000

---------------------
BASIS SET INFORMATION
---------------------
There are 1 groups of distinct atoms

 Group   1 Type Au  : 38s34p23d3f2g contracted to 6s6p5d3f2g pattern {999911/888811/77711/111/11}

Atom   0Au   basis set group =>   1
-------------------------
ECP PARAMETER INFORMATION
-------------------------

 Group 1, Type Au ECP SK MCDHF RSC (replacing 60 core electrons, lmax=5)

Atom   0Au   ECP group =>   1


Checking for AutoStart:
The File: 79_Au.gbw exists
Trying to determine its content:
     ... Fine, the file contains calculation information
     ... Fine, the calculation information was read
     ... Fine, the file contains a basis set
     ... Fine, the basis set was read
     ... Fine, the file contains a geometry
     ... Fine, the geometry was read
     ... Fine, the file contains a set of orbitals
     ... Fine, the orbitals can be read
     => possible old guess file was deleted
     => GBW file was renamed to GES file
     => GES file is set as startup file
     => Guess is set to MORead
     ... now leaving AutoStart



           ************************************************************
           *        Program running with 24 parallel MPI-processes    *
           *              working on a common directory               *
           ************************************************************
------------------------------------------------------------------------------
                           ORCA GTO INTEGRAL CALCULATION
------------------------------------------------------------------------------

                         BASIS SET STATISTICS AND STARTUP INFO

 # of primitive gaussian shells          ...  100
 # of primitive gaussian functions       ...  294
 # of contracted shells                  ...   22
 # of contracted basis functions         ...   88
 Highest angular momentum                ...    4
 Maximum contraction depth               ...    9
 Integral package used                   ... LIBINT
 Integral threshhold            Thresh   ...  2.500e-11
 Primitive cut-off              TCut     ...  2.500e-12


------------------------------ INTEGRAL EVALUATION ----------------------------


 * One electron integrals 

   ECP integrals                         ... done
 Pre-screening matrix                    ... done
 Shell pair data                         ... done (   0.000 sec)



           ************************************************************
           *        Program running with 24 parallel MPI-processes    *
           *              working on a common directory               *
           ************************************************************
-------------------------------------------------------------------------------
                                 ORCA SCF
-------------------------------------------------------------------------------

------------
SCF SETTINGS
------------
Hamiltonian:
 Ab initio Hamiltonian  Method          .... Hartree-Fock(GTOs)


General Settings:
 Integral files         IntName         .... 79_Au
 Hartree-Fock type      HFTyp           .... UHF
 Total Charge           Charge          ....    0
 Multiplicity           Mult            ....    2
 Number of Electrons    NEL             ....   19
 Basis Dimension        Dim             ....   88
 Nuclear Repulsion      ENuc            ....      0.0000000000 Eh

Convergence Acceleration:
 DIIS                   CNVDIIS         .... on
   Start iteration      DIISMaxIt       ....     0
   Startup error        DIISStart       ....  0.200000
   # of expansion vecs  DIISMaxEq       ....     5
   Bias factor          DIISBfac        ....   1.050
   Max. coefficient     DIISMaxC        ....  10.000
 Newton-Raphson         CNVNR           .... off
 SOSCF                  CNVSOSCF        .... off
 Level Shifting         CNVShift        .... on
   Level shift para.    LevelShift      ....    0.2500
   Turn off err/grad.   ShiftErr        ....    0.0000
 Zerner damping         CNVZerner       .... off
 Static damping         CNVDamp         .... on
   Fraction old density DampFac         ....    0.8500
   Max. Damping (<1)    DampMax         ....    0.9800
   Min. Damping (>=0)   DampMin         ....    0.0000
   Turn off err/grad.   DampErr         ....    0.0300
 Fernandez-Rico         CNVRico         .... off

SCF Procedure:
 Maximum # iterations   MaxIter         ....   125
 SCF integral mode      SCFMode         .... Direct
   Integral package                     .... LIBINT
 Reset frequency        DirectResetFreq ....    20
 Integral Threshold     Thresh          ....  2.500e-11 Eh
 Primitive CutOff       TCut            ....  2.500e-12 Eh

Convergence Tolerance:
 Convergence Check Mode ConvCheckMode   .... Total+1el-Energy
 Convergence forced     ConvForced      .... 1
 Energy Change          TolE            ....  1.000e-08 Eh
 1-El. energy change                    ....  1.000e-05 Eh
 DIIS Error             TolErr          ....  5.000e-07


Diagonalization of the overlap matrix:
Smallest eigenvalue                        ... 6.716e-03
Time for diagonalization                   ...    0.003 sec
Threshold for overlap eigenvalues          ... 1.000e-08
Number of eigenvalues below threshold      ... 0
Time for construction of square roots      ...    0.023 sec
Total time needed                          ...    0.026 sec

---------------------
INITIAL GUESS: MOREAD
---------------------
Guess MOs are being read from file: 79_Au.ges
Input Geometry matches current geometry (good)
Atom 0: N(Shells)= 22 and 32 - projection required
Input basis set needs projection
NBasis(read)= 118
NBasis(calc)= 88
Basis set overlap was calculated
Using GuessMode=FMatrix for the initial guess
C*T matrix was formed
Effective Fockian was calculated
Effective Fockian was diagonalized
Initial density was built
C*T matrix was formed
Effective Fockian was calculated
Effective Fockian was diagonalized
Initial density was built
                      ------------------
                      INITIAL GUESS DONE (   0.0 sec)
                      ------------------
--------------
SCF ITERATIONS
--------------
ITER       Energy         Delta-E        Max-DP      RMS-DP      [F,P]     Damp
               ***  Starting incremental Fock matrix formation  ***
  0    -79.1694540789   0.000000000000 7.65491985  0.15174299  3.9718259 0.8500
  1    -88.5185712004  -9.349117121471 6.47829560  0.12880927  3.1169289 0.8500
                               ***Turning on DIIS***
  2    -95.3410247226  -6.822453522194 5.48622253  0.10941548  2.4682122 0.8500
  3   -102.7328367653  -7.391812042741 4.65971236  0.09302275  2.0515994 0.8500
  4   -107.7955015141  -5.062664748813 3.95968492  0.07908036  1.7387185 0.8500
  5   -111.4941685537  -3.698667039538 3.36528804  0.06722313  1.4952330 0.8500
  6   -114.7027971975  -3.208628643857 2.86044586  0.05714214  1.2900720 0.8500
  7   -117.2762689762  -2.573471778612 2.43155069  0.04857217  1.1123058 0.8500
  8   -119.8391862752  -2.562917299052 2.06704467  0.04128711  0.9538724 0.8500
  9   -122.1444661646  -2.305279889356 1.75714535  0.03509434  0.8157062 0.8500
 10   -124.0910950227  -1.946628858152 1.49366729  0.02983025  0.6967901 0.8500
 11   -125.7112719978  -1.620176975137 1.26968001  0.02535571  0.5947837 0.8500
 12   -127.0623552417  -1.351083243862 1.07927932  0.02155235  0.5072892 0.8500
 13   -128.2068578547  -1.144502612966 0.91743094  0.01831950  0.4322264 0.8500
 14   -129.1825986166  -0.975740761934 0.77985181  0.01557158  0.3679195 0.8500
 15   -130.0138116823  -0.831213065655 0.66290259  0.01323585  0.3129406 0.8500
 16   -130.7203426327  -0.706530950461 0.56349064  0.01125048  0.2660192 0.8500
 17   -131.3202045119  -0.599861879129 0.47898695  0.00956292  0.2260239 0.8500
 18   -131.8296422084  -0.509437696538 0.40715623  0.00812850  0.1919618 0.8500
 19   -132.2625637854  -0.432921576971 0.34609806  0.00690924  0.1629732 0.8500
               *** Restarting incremental Fock matrix formation ***
                                   *** Resetting DIIS ***
 20   -132.6511139683  -0.388550182908 0.29407797  0.00587200  0.1383186 0.8500
 21   -132.9789641529  -0.327850184596 0.24990004  0.00499138  0.1135440 0.8500
 22   -133.2355848584  -0.256620705515 0.21243832  0.00424302  0.0945433 0.8500
 23   -133.4447333549  -0.209148496545 0.18061663  0.00360678  0.0797777 0.8500
 24   -133.6269555071  -0.182222152184 0.15356575  0.00306588  0.0676355 0.8500
 25   -133.7802937224  -0.153338215288 0.13056888  0.00260607  0.0574232 0.8500
 26   -133.9190623352  -0.138768612824 0.11101453  0.00221520  0.0486813 0.8500
 27   -134.0407470758  -0.121684740608 0.09438567  0.00188294  0.0412447 0.8500
 28   -134.1441503988  -0.103403322957 0.08024540  0.00160051  0.0349495 0.8500
 29   -134.2311946521  -0.087044253344 0.45481725  0.00906963  0.0296242 0.0000
 30   -134.7188808862  -0.487686234045 0.00158402  0.00001966  0.0012950 0.0000
 31   -134.7191504470  -0.000269560776 0.00131732  0.00001594  0.0013610 0.0000
 32   -134.7187835638   0.000366883111 0.00027507  0.00000350  0.0014211 0.0000
 33   -134.7187415068   0.000042057051 0.00002852  0.00000056  0.0014356 0.0000
 34   -134.7184332819   0.000308224854 0.00065534  0.00000791  0.0014356 0.0000
 35   -134.7178309681   0.000602313812 0.00018355  0.00000225  0.0014645 0.0000
 36   -134.7180136458  -0.000182677703 0.00107468  0.00001292  0.0014740 0.0000
 37   -134.7177481640   0.000265481806 0.00036774  0.00000452  0.0015211 0.0000
 38   -134.7179976009  -0.000249436848 0.00045742  0.00000552  0.0015076 0.0000
 39   -134.7184342804  -0.000436679502 0.00082465  0.00000990  0.0015276 0.0000
               *** Restarting incremental Fock matrix formation ***
                                   *** Resetting DIIS ***
 40   -134.7187526754  -0.000318395048 0.00196539  0.00002360  0.0015631 0.0000
 41   -134.7188551872  -0.000102511779 0.00077711  0.00000935  0.0016491 0.0000
 42   -134.7190771776  -0.000221990405 0.00065008  0.00000785  0.0016859 0.0000
 43   -134.7191148792  -0.000037701573 0.00037541  0.00000450  0.0016599 0.0000
 44   -134.7190757555   0.000039123714 0.00038249  0.00000459  0.0016436 0.0000
 45   -134.7187960340   0.000279721458 0.00181034  0.00002177  0.0016268 0.0000
 46   -134.7187032192   0.000092814788 0.00102207  0.00001228  0.0017046 0.0000
 47   -134.7188458954  -0.000142676148 0.00172227  0.00002075  0.0017512 0.0000
 48   -134.7187946861   0.000051209236 0.00043627  0.00000525  0.0016799 0.0000
 49   -134.7188342390  -0.000039552914 0.00005040  0.00000073  0.0016597 0.0000
 50   -134.7189314948  -0.000097255789 0.00060232  0.00000725  0.0016610 0.0000
 51   -134.7189653328  -0.000033838003 0.00026295  0.00000323  0.0016870 0.0000
 52   -134.7188491654   0.000116167446 0.00166766  0.00002007  0.0016996 0.0000
 53   -134.7192127793  -0.000363613926 0.00145682  0.00001761  0.0017711 0.0000
 54   -134.7191302811   0.000082498260 0.00002746  0.00000073  0.0017115 0.0000
 55   -134.7189149943   0.000215286800 0.00091017  0.00001095  0.0017112 0.0000
 56   -134.7188371487   0.000077845550 0.00113285  0.00001361  0.0017499 0.0000
 57   -134.7189484056  -0.000111256854 0.00005579  0.00000088  0.0017995 0.0000
 58   -134.7190671508  -0.000118745243 0.00052830  0.00000639  0.0018021 0.0000
 59   -134.7190074922   0.000059658598 0.00069795  0.00000842  0.0017798 0.0000
               *** Restarting incremental Fock matrix formation ***
                                   *** Resetting DIIS ***
 60   -134.7188014017   0.000206090485 0.00227288  0.00002735  0.0018088 0.0000
 61   -134.7190236860  -0.000222284314 0.00095001  0.00001144  0.0019064 0.0000
 62   -134.7195303465  -0.000506660460 0.00088725  0.00001074  0.0019503 0.0000
 63   -134.7195637284  -0.000033381952 0.00048271  0.00000580  0.0019148 0.0000
 64   -134.7194951051   0.000068623392 0.00047416  0.00000570  0.0018938 0.0000
 65   -134.7189067487   0.000588356307 0.00192256  0.00002317  0.0018730 0.0000
 66   -134.7188313971   0.000075351604 0.00139296  0.00001676  0.0019548 0.0000
 67   -134.7193194038  -0.000488006693 0.00186093  0.00002250  0.0020168 0.0000
 68   -134.7191974762   0.000121927662 0.00052206  0.00000629  0.0019408 0.0000
 69   -134.7191180104   0.000079465787 0.00012520  0.00000158  0.0019170 0.0000
 70   -134.7190856714   0.000032338994 0.00089412  0.00001077  0.0019213 0.0000
 71   -134.7191077778  -0.000022106385 0.00065804  0.00000793  0.0019594 0.0000
 72   -134.7191340814  -0.000026303585 0.00103108  0.00001247  0.0019891 0.0000
 73   -134.7197287587  -0.000594677375 0.00139695  0.00001692  0.0020339 0.0000
 74   -134.7194568578   0.000271900913 0.00044198  0.00000541  0.0019758 0.0000
 75   -134.7190522640   0.000404593829 0.00151286  0.00001823  0.0019933 0.0000
 76   -134.7190419688   0.000010295150 0.00086827  0.00001049  0.0020579 0.0000
 77   -134.7193436174  -0.000301648558 0.00088381  0.00001071  0.0020976 0.0000
 78   -134.7191936215   0.000149995902 0.00007344  0.00000105  0.0020619 0.0000
 79   -134.7190779884   0.000115633109 0.00116919  0.00001411  0.0020645 0.0000
               *** Restarting incremental Fock matrix formation ***
                                   *** Resetting DIIS ***
 80   -134.7188732021   0.000204786264 0.00265735  0.00003207  0.0021137 0.0000
 81   -134.7193471861  -0.000473983978 0.00101709  0.00001230  0.0022278 0.0000
 82   -134.7201754227  -0.000828236571 0.00088629  0.00001077  0.0022751 0.0000
 83   -134.7202416605  -0.000066237777 0.00050784  0.00000613  0.0022397 0.0000
 84   -134.7201439904   0.000097670051 0.00051170  0.00000618  0.0022178 0.0000
 85   -134.7190202331   0.001123757266 0.00246401  0.00002980  0.0021956 0.0000
 86   -134.7189299480   0.000090285155 0.00138300  0.00001671  0.0023005 0.0000
 87   -134.7196685780  -0.000738629967 0.00224992  0.00002729  0.0023630 0.0000
 88   -134.7194035975   0.000264980486 0.00058503  0.00000708  0.0022710 0.0000
 89   -134.7193574935   0.000046103999 0.00009306  0.00000125  0.0022441 0.0000
 90   -134.7194028605  -0.000045367005 0.00092400  0.00001117  0.0022466 0.0000
 91   -134.7194981340  -0.000095273501 0.00051012  0.00000621  0.0022858 0.0000
 92   -134.7193008317   0.000197302304 0.00186583  0.00002263  0.0023093 0.0000
 93   -134.7204700656  -0.001169233924 0.00195372  0.00002378  0.0023889 0.0000
 94   -134.7200268400   0.000443225558 0.00018931  0.00000253  0.0023085 0.0000
 95   -134.7193497011   0.000677138901 0.00139824  0.00001692  0.0023152 0.0000
 96   -134.7191331305   0.000216570655 0.00159101  0.00001924  0.0023746 0.0000
 97   -134.7196304226  -0.000497292115 0.00060484  0.00000748  0.0024440 0.0000
 98   -134.7195281677   0.000102254854 0.00005447  0.00000074  0.0024219 0.0000
 99   -134.7194402085   0.000087959218 0.00096088  0.00001165  0.0024244 0.0000
               *** Restarting incremental Fock matrix formation ***
                                   *** Resetting DIIS ***
100   -134.7189696574   0.000470551106 0.00309244  0.00003750  0.0024646 0.0000
101   -134.7196553088  -0.000685651390 0.00126479  0.00001536  0.0025964 0.0000
102   -134.7209840848  -0.001328776005 0.00115853  0.00001416  0.0026544 0.0000
103   -134.7210493356  -0.000065250796 0.00063812  0.00000774  0.0026078 0.0000
104   -134.7208889272   0.000160408439 0.00062729  0.00000761  0.0025803 0.0000
105   -134.7192215771   0.001667350111 0.00271429  0.00003300  0.0025532 0.0000
106   -134.7190821252   0.000139451892 0.00183654  0.00002231  0.0026688 0.0000
107   -134.7203604974  -0.001278372216 0.00249029  0.00003041  0.0027505 0.0000
108   -134.7199717698   0.000388727630 0.00070753  0.00000860  0.0026494 0.0000
109   -134.7198012575   0.000170512290 0.00014836  0.00000190  0.0026174 0.0000
110   -134.7197323702   0.000068887308 0.00124710  0.00001515  0.0026220 0.0000
111   -134.7198312307  -0.000098860515 0.00091663  0.00001115  0.0026745 0.0000
112   -134.7199382906  -0.000107059920 0.00131127  0.00001606  0.0027157 0.0000
113   -134.7214756008  -0.001537310249 0.00178524  0.00002188  0.0027721 0.0000
114   -134.7206781099   0.000797490897 0.00066404  0.00000818  0.0026974 0.0000
115   -134.7195948902   0.001083219717 0.00216034  0.00002630  0.0027244 0.0000
116   -134.7196772871  -0.000082396846 0.00090625  0.00001109  0.0028168 0.0000
117   -134.7201820881  -0.000504801068 0.00081713  0.00001002  0.0028595 0.0000
118   -134.7198222930   0.000359795158 0.00026945  0.00000336  0.0028272 0.0000
119   -134.7195749305   0.000247362459 0.00176973  0.00002160  0.0028382 0.0000
               *** Restarting incremental Fock matrix formation ***
                                   *** Resetting DIIS ***
120   -134.7191166239   0.000458306647 0.00364937  0.00004460  0.0029123 0.0000
121   -134.7203531652  -0.001236541327 0.00136899  0.00001679  0.0030685 0.0000
122   -134.7223210722  -0.001967907005 0.00113520  0.00001402  0.0031316 0.0000
123   -134.7224675783  -0.000146506106 0.00066309  0.00000811  0.0030855 0.0000
124   -134.7222630247   0.000204553647 0.00067033  0.00000820  0.0030572 0.0000

               *****************************************************
               *                      ERROR                        *
               *        SCF NOT CONVERGED AFTER 125 CYCLES         *
               *****************************************************


---------------
SCF CONVERGENCE
---------------

  Last Energy change         ...    2.0455e-04  Tolerance :   1.0000e-08
  Last MAX-Density change    ...    6.7033e-04  Tolerance :   1.0000e-07
  Last RMS-Density change    ...    8.2031e-06  Tolerance :   5.0000e-09
  Last DIIS Error            ...    3.0572e-03  Tolerance :   5.0000e-07

     --------------------------------------------------------------------
                                      ERROR
     This wavefunction IS NOT CONVERGED! 
     But SCFConvergence was forced (by user or by method)
     Aborting ...
     --------------------------------------------------------------------



ORCA finished by error termination in SCF
Calling Command: mpirun -np 24  /sw/apps/orca/orca_4_2_0_linux_x86-64_openmpi314/orca_scf_mpi 79_Au.gbw b 79_Au 
[file orca_tools/qcmsg.cpp, line 458]: 
  .... aborting the run

