
                                 *****************
                                 * O   R   C   A *
                                 *****************

           --- An Ab Initio, DFT and Semiempirical electronic structure package ---

                  #######################################################
                  #                        -***-                        #
                  #          Department of theory and spectroscopy      #
                  #               Directorship: Frank Neese             #
                  #        Max Planck Institute fuer Kohlenforschung    #
                  #                Kaiser Wilhelm Platz 1               #
                  #                 D-45470 Muelheim/Ruhr               #
                  #                      Germany                        #
                  #                                                     #
                  #                  All rights reserved                #
                  #                        -***-                        #
                  #######################################################


                         Program Version 4.2.0 -  RELEASE  -


 With contributions from (in alphabetic order):
   Daniel Aravena         : Magnetic Suceptibility
   Michael Atanasov       : Ab Initio Ligand Field Theory (pilot matlab implementation)
   Alexander A. Auer      : GIAO ZORA, VPT2
   Ute Becker             : Parallelization
   Giovanni Bistoni       : ED, misc. LED, open-shell LED, HFLED
   Martin Brehm           : Molecular dynamics
   Dmytro Bykov           : SCF Hessian
   Vijay G. Chilkuri      : MRCI spin determinant printing, contributions to CSF-ICE
   Dipayan Datta          : RHF DLPNO-CCSD density
   Achintya Kumar Dutta   : EOM-CC, STEOM-CC
   Dmitry Ganyushin       : Spin-Orbit,Spin-Spin,Magnetic field MRCI
   Miquel Garcia          : C-PCM Hessian, Gaussian charge scheme
   Yang Guo               : DLPNO-NEVPT2, CIM, IAO-localization
   Andreas Hansen         : Spin unrestricted coupled pair/coupled cluster methods
   Benjamin Helmich-Paris : CASSCF linear response (MC-RPA)
   Lee Huntington         : MR-EOM, pCC
   Robert Izsak           : Overlap fitted RIJCOSX, COSX-SCS-MP3, EOM
   Christian Kollmar      : KDIIS, OOCD, Brueckner-CCSD(T), CCSD density
   Simone Kossmann        : Meta GGA functionals, TD-DFT gradient, OOMP2, MP2 Hessian
   Martin Krupicka        : AUTO-CI
   Lucas Lang             : DCDCAS
   Dagmar Lenk            : GEPOL surface, SMD
   Dimitrios Liakos       : Extrapolation schemes; Compound Job, initial MDCI parallelization
   Dimitrios Manganas     : Further ROCIS development; embedding schemes
   Dimitrios Pantazis     : SARC Basis sets
   Taras Petrenko         : DFT Hessian,TD-DFT gradient, ASA, ECA, R-Raman, ABS, FL, XAS/XES, NRVS
   Peter Pinski           : DLPNO-MP2, DLPNO-MP2 Gradient
   Christoph Reimann      : Effective Core Potentials
   Marius Retegan         : Local ZFS, SOC
   Christoph Riplinger    : Optimizer, TS searches, QM/MM, DLPNO-CCSD(T), (RO)-DLPNO pert. Triples
   Tobias Risthaus        : Range-separated hybrids, TD-DFT gradient, RPA, STAB
   Michael Roemelt        : Original ROCIS implementation
   Masaaki Saitow         : Open-shell DLPNO-CCSD energy and density
   Barbara Sandhoefer     : DKH picture change effects
   Avijit Sen             : IP-ROCIS
   Kantharuban Sivalingam : CASSCF convergence, NEVPT2, FIC-MRCI
   Bernardo de Souza      : ESD, SOC TD-DFT
   Georgi Stoychev        : AutoAux, RI-MP2 NMR
   Willem Van den Heuvel  : Paramagnetic NMR
   Boris Wezisla          : Elementary symmetry handling
   Frank Wennmohs         : Technical directorship


 We gratefully acknowledge several colleagues who have allowed us to
 interface, adapt or use parts of their codes:
   Stefan Grimme, W. Hujo, H. Kruse,             : VdW corrections, initial TS optimization,
                  C. Bannwarth                     DFT functionals, gCP, sTDA/sTD-DF
   Ed Valeev, F. Pavosevic, A. Kumar             : LibInt (2-el integral package), F12 methods
   Garnet Chan, S. Sharma, J. Yang, R. Olivares  : DMRG
   Ulf Ekstrom                                   : XCFun DFT Library
   Mihaly Kallay                                 : mrcc  (arbitrary order and MRCC methods)
   Andreas Klamt, Michael Diedenhofen            : otool_cosmo (COSMO solvation model)
   Jiri Pittner, Ondrej Demel                    : Mk-CCSD
   Frank Weinhold                                : gennbo (NPA and NBO analysis)
   Christopher J. Cramer and Donald G. Truhlar   : smd solvation model
   Lars Goerigk                                  : TD-DFT with DH, B97 family of functionals
   V. Asgeirsson, H. Jonsson                     : NEB implementation
   FAccTs GmbH                                   : IRC, NEB, NEB-TS, Multilevel, MM, QM/MM, CI optimization
   S Lehtola, MJT Oliveira, MAL Marques          : LibXC Library


 Your calculation uses the libint2 library for the computation of 2-el integrals
 For citations please refer to: http://libint.valeyev.net

 Your ORCA version has been built with support for libXC version: 4.2.3
 For citations please refer to: https://tddft.org/programs/libxc/

 This ORCA versions uses:
   CBLAS   interface :  Fast vector & matrix operations
   LAPACKE interface :  Fast linear algebra routines
   SCALAPACK package :  Parallel linear algebra routines


----- Orbital basis set information -----
Your calculation utilizes the basis: def2-SVP
   F. Weigend and R. Ahlrichs, Phys. Chem. Chem. Phys. 7, 3297 (2005).

----- AuxJ basis set information -----
Your calculation utilizes the auxiliary basis: def2/J
   F. Weigend, Phys. Chem. Chem. Phys. 8, 1057 (2006).

================================================================================
                                        WARNINGS
                       Please study these warnings very carefully!
================================================================================


INFO   : the flag for use of LIBINT has been found!

================================================================================
                                       INPUT FILE
================================================================================
NAME = 83_Bi_atom83.inp
|  1> # input to generate an atomic fitting density for Bi
|  2> # this file is use internally by ORCA
|  3> #
|  4> # atomic ground state (S=4): 1s2 2s2 2p6 3s2 3p6 4s2 3d10 4p6 5s2 4d10 5p6 6s2 4f14 5d10 6p3 
|  5> #
|  6> ! RHF AllowRHF def2-SVP def2/J  NoMulliken NoLoewdin NoMayer NoPrintMOs 
|  7> 
|  8> %output print[p_atomdensfit] 2 end
|  9> 
| 10> %scf
| 11>   guess hcore
| 12>   maxiter 1000
| 13>   maxdisk 500000
| 14>   SCFMode Conventional
| 15>   lshift 1.000000
| 16>   hftyp rohf
| 17>   rohf_case sahf
| 18>   rohf_numop   2
| 19>   rohf_norb[1] 3
| 20>   rohf_nel[1]  3
| 21> end
| 22> 
| 23> %basis
| 24>   NewECP 83
| 25>     N_core 60
| 26>     lmax h
| 27>     s 2
| 28>       1      13.0430900000    283.2642270000  2
| 29>       2       8.2216820000     62.4719590000  2
| 30>     p 4
| 31>       1      10.4677770000     72.0014990000  2
| 32>       2       9.1189010000    144.0022770000  2
| 33>       3       6.7547910000      5.0079450000  2
| 34>       4       6.2525920000      9.9915500000  2
| 35>     d 4
| 36>       1       8.0814740000     36.3962590000  2
| 37>       2       7.8905950000     54.5976640000  2
| 38>       3       4.9555560000      9.9842940000  2
| 39>       4       4.7045590000     14.9814850000  2
| 40>     f 2
| 41>       1       4.2145460000     13.7133830000  2
| 42>       2       4.1334000000     18.1943080000  2
| 43>     g 2
| 44>       1       6.2057090000    -10.2474430000  2
| 45>       2       6.2277820000    -12.9557100000  2
| 46>     h 1
| 47>       1       1.0000000000      0.0000000000  2
| 48>   end
| 49>   NewGTO 83
| 50>     s 9 
| 51>      1     798.6330000000      0.0003984904
| 52>      2      95.0023000000      0.0021553308
| 53>      3      21.2520000000     -0.1328448001
| 54>      4      13.2919000000      0.6813457685
| 55>      5       8.3121000000     -0.7929056521
| 56>      6       5.1947600000     -0.4689145574
| 57>      7       1.9097200000      0.9230552642
| 58>      8       0.9622710000      0.5578188816
| 59>      9       0.0732650000      0.0010612751
| 60>     s 9 
| 61>      1     798.6330000000     -0.0002501579
| 62>      2      95.0023000000     -0.0011591086
| 63>      3      21.2520000000      0.0721044142
| 64>      4      13.2919000000     -0.3960693782
| 65>      5       8.3121000000      0.5192845885
| 66>      6       5.1947600000      0.2335544921
| 67>      7       1.9097200000     -0.7471902270
| 68>      8       0.9622710000     -0.6276985712
| 69>      9       0.0732650000      0.3033302112
| 70>     s 1 
| 71>      1       0.3560260000      1.0000000000
| 72>     s 1 
| 73>      1       0.1683270000      1.0000000000
| 74>     s 1 
| 75>      1       0.0784000000      1.0000000000
| 76>     s 1 
| 77>      1       0.0297000000      1.0000000000
| 78>     p 9 
| 79>      1      19.2259000000     -0.0161519958
| 80>      2      12.0378000000      0.1760309541
| 81>      3       7.5362100000     -0.4201028906
| 82>      4       2.1608400000      0.5526738560
| 83>      5       1.1303600000      0.4995618699
| 84>      6       0.5667780000      0.1344949650
| 85>      7       0.2716080000      0.0080459979
| 86>      8       0.1177690000      0.0010309997
| 87>      9       0.0493040000     -0.0001620000
| 88>     p 9 
| 89>      1      19.2259000000      0.0027329996
| 90>      2      12.0378000000     -0.0488429935
| 91>      3       7.5362100000      0.1318399825
| 92>      4       2.1608400000     -0.2252709701
| 93>      5       1.1303600000     -0.2078759724
| 94>      6       0.5667780000     -0.0155849979
| 95>      7       0.2716080000      0.3938489477
| 96>      8       0.1177690000      0.5508799269
| 97>      9       0.0493040000      0.2111499720
| 98>     p 1 
| 99>      1       0.4469000000      1.0000000000
|100>     p 1 
|101>      1       0.0743000000      1.0000000000
|102>     p 1 
|103>      1       0.0276000000      1.0000000000
|104>   end
|105>   NewAuxGTO 83
|106>     S 1
|107>      1 1310.72 1.0
|108>     S 1
|109>      1  655.36 1.0
|110>     S 1
|111>      1  327.68 1.0
|112>     S 1
|113>      1  163.84 1.0
|114>     S 1
|115>      1   81.82 1.0
|116>     S 1
|117>      1   40.96 1.0
|118>     S 1
|119>      1   20.48 1.0
|120>     S 1
|121>      1   10.24 1.0
|122>     S 1
|123>      1    5.12 1.0
|124>     S 1
|125>      1    2.56 1.0
|126>     S 1
|127>      1    1.28 1.0
|128>     S 1
|129>      1    0.64 1.0
|130>     S 1
|131>      1    0.32 1.0
|132>     S 1
|133>      1    0.16 1.0
|134>     S 1
|135>      1    0.08 1.0
|136>     S 1
|137>      1    0.04 1.0
|138>     S 1
|139>      1    0.02 1.0
|140>     S 1
|141>      1    0.01 1.0
|142>   end
|143> end
|144> 
|145> * xyz 0 4
|146> 83  0.0 0.0 0.0
|147> *
|148> 
|149> 
|150>                          ****END OF INPUT****
================================================================================

                       ****************************
                       * Single Point Calculation *
                       ****************************

---------------------------------
CARTESIAN COORDINATES (ANGSTROEM)
---------------------------------
  Bi     0.000000    0.000000    0.000000

----------------------------
CARTESIAN COORDINATES (A.U.)
----------------------------
  NO LB      ZA    FRAG     MASS         X           Y           Z
   0 Bi   23.0000*   0   208.980    0.000000    0.000000    0.000000
* core charge reduced due to ECP

--------------------------------
INTERNAL COORDINATES (ANGSTROEM)
--------------------------------
 Bi     0   0   0     0.000000000000     0.00000000     0.00000000

---------------------------
INTERNAL COORDINATES (A.U.)
---------------------------
 Bi     0   0   0     0.000000000000     0.00000000     0.00000000

---------------------
BASIS SET INFORMATION
---------------------
There are 1 groups of distinct atoms

 Group   1 Type Bi  : 22s21p contracted to 6s5p pattern {991111/99111}

Atom   0Bi   basis set group =>   1
---------------------------------
AUXILIARY/J BASIS SET INFORMATION
---------------------------------
There are 1 groups of distinct atoms

 Group   1 Type Bi  : 18s contracted to 18s pattern {111111111111111111}

Atom   0Bi   basis set group =>   1
-------------------------
ECP PARAMETER INFORMATION
-------------------------

 Group 1, Type Bi ECP (replacing 60 core electrons, lmax=5)

Atom   0Bi   ECP group =>   1

------------------------------------------------------------------------------
                           ORCA GTO INTEGRAL CALCULATION
------------------------------------------------------------------------------

                         BASIS SET STATISTICS AND STARTUP INFO

 # of primitive gaussian shells          ...   43
 # of primitive gaussian functions       ...   85
 # of contracted shells                  ...   11
 # of contracted basis functions         ...   21
 Highest angular momentum                ...    1
 Maximum contraction depth               ...    9
 Integral package used                   ... LIBINT
 Integral threshhold            Thresh   ...  1.000e-10
 Primitive cut-off              TCut     ...  1.000e-11
 Storage cut-off                TCutStore... -1.000e+00
 Buffer length                           ... 1048576 integrals/buffer
 Generate file with integrals 4 distinct ...false


------------------------------ INTEGRAL EVALUATION ----------------------------


 * One electron integrals 

   ECP integrals                         ... done
 Pre-screening matrix                    ... done
 Shell pair data                         ... done (   0.000 sec)
 Statistics run                          ... done
 Maximum amount of storage needed        ...     0 MB
 Maximum amount of storage dedicated     ... 500000 MB
 Beginning two electron integral evaluation:
 Starting repulsion integrals
  <ss|ss>  ...          231 b.         0 skpd (  0.0%)     0.001 s. (  0.003 ms/b)
  <ss|sp>  ...          630 b.         0 skpd (  0.0%)     0.003 s. (  0.005 ms/b)
  <ss|pp>  ...          315 b.         0 skpd (  0.0%)     0.009 s. (  0.027 ms/b)
  <sp|sp>  ...          465 b.         0 skpd (  0.0%)     0.009 s. (  0.020 ms/b)
  <sp|pp>  ...          450 b.         0 skpd (  0.0%)     0.018 s. (  0.039 ms/b)
  <pp|pp>  ...          120 b.         0 skpd (  0.0%)     0.016 s. (  0.134 ms/b)


                                      INTEGRAL STATISTICS

Integral type statistics:
 Number of integrals retained            ...      26796 
 One   Center Integrals retained         ...      26796 (100.0%)
 Two   Center Integrals retained         ...          0 (  0.0%)
 Three Center Integrals retained         ...          0 (  0.0%)
 Four  Center Integrals retained         ...          0 (  0.0%)

Storage statistics:
 Number of char integrals                ...          0 (  0.0%)
 Number of short int integrals           ...          0 (  0.0%)
 Number of double/float integrals        ...      26796 (100.0%)
 Amount of memory used                   ...          0 MB
 Amount of memory estimated              ...          0 MB ( 95.2%)

Prescreening statistics:
 Total number of shell quadruples        ...       2211 
 Number of skipped shell quadruples      ...          0 (  0.0%)
 # of negligible batches done            ...          0 (  0.0%)

Timings:
 Total evaluation time               ...     0.232 sec (   0.004 min)
 One electron matrix time            ...     0.016 sec (   0.000 min) =  6.8%
 Schwartz matrix evaluation time     ...     0.084 sec (   0.001 min) = 36.3%
 Statistics run                      ...     0.000 sec (   0.000 min) =  0.1%
 Repulsion integral time             ...     0.056 sec (   0.001 min) = 24.0%

-------------------------------------------------------------------------------
                                 ORCA SCF
-------------------------------------------------------------------------------

------------
SCF SETTINGS
------------
Hamiltonian:
 Ab initio Hamiltonian  Method          .... Hartree-Fock(GTOs)


General Settings:
 Integral files         IntName         .... 83_Bi_atom83
 Hartree-Fock type      HFTyp           .... ROHF
 Total Charge           Charge          ....    0
 Multiplicity           Mult            ....    4
 Number of Electrons    NEL             ....   23
 Basis Dimension        Dim             ....   21
 Nuclear Repulsion      ENuc            ....      0.0000000000 Eh

Convergence Acceleration:
 DIIS                   CNVDIIS         .... on
   Start iteration      DIISMaxIt       ....    12
   Startup error        DIISStart       ....  0.200000
   # of expansion vecs  DIISMaxEq       ....     5
   Bias factor          DIISBfac        ....   1.050
   Max. coefficient     DIISMaxC        ....  10.000
 Newton-Raphson         CNVNR           .... off
 SOSCF                  CNVSOSCF        .... off
 Level Shifting         CNVShift        .... on
   Level shift para.    LevelShift      ....    1.0000
   Turn off err/grad.   ShiftErr        ....    0.0010
 Zerner damping         CNVZerner       .... off
 Static damping         CNVDamp         .... on
   Fraction old density DampFac         ....    0.7000
   Max. Damping (<1)    DampMax         ....    0.9800
   Min. Damping (>=0)   DampMin         ....    0.0000
   Turn off err/grad.   DampErr         ....    0.1000
 Fernandez-Rico         CNVRico         .... off

SCF Procedure:
 Maximum # iterations   MaxIter         ....  1000
 SCF integral mode      SCFMode         .... Conventional
 Integral Threshold     Thresh          ....  1.000e-10 Eh
 Primitive CutOff       TCut            ....  1.000e-11 Eh
 Integral Buffer length BufferLength    .... 1048576
 Integral index format  IndFormat       ....     0
 Integral value format  ValFormat       ....     0
 Integral Storage       Thresh          ....  1.000e-10 Eh

Convergence Tolerance:
 Convergence Check Mode ConvCheckMode   .... Total+1el-Energy
 Convergence forced     ConvForced      .... 0
 Energy Change          TolE            ....  1.000e-06 Eh
 1-El. energy change                    ....  1.000e-03 Eh
 DIIS Error             TolErr          ....  1.000e-06


Diagonalization of the overlap matrix:
Smallest eigenvalue                        ... 5.650e-03
Time for diagonalization                   ...    0.000 sec
Threshold for overlap eigenvalues          ... 1.000e-08
Number of eigenvalues below threshold      ... 0
Time for construction of square roots      ...    0.002 sec
Total time needed                          ...    0.003 sec

--------------------
INITIAL GUESS: HCORE
--------------------
AVERAGE-CONFIGURATION (SAHF) CASE FOUND

-------------------
FINAL ROHF SETTINGS
-------------------
Number of operators             ... 2
  operator   0:  10 orbitals  20 electrons n(mue)= 2.000
  operator   1:   3 orbitals   3 electrons n(mue)= 1.000
Vector coupling coefficients a and b (Zerner convention):
   1.000    1.000           1.000    1.000 
   1.000    1.000           1.000    2.000 

                      -----------------
                      INTIAL GUESS DONE 
                      -----------------

 InCore treatment chosen:
   Memory dedicated               ...    1024 MB
   Memory needed                  ...      0 MB
   Number of tiny    integrals    ...       0
   Number of small   integrals    ...       0
   Number of regular integrals    ...   26796

--------------
SCF ITERATIONS
--------------
ITER       Energy         Delta-E        Max-DP      RMS-DP      [F,P]     Damp
  0   -186.4349985917   0.000000000000 2.95169937  0.34179360  1.0941208 0.7000
  1   -188.5949391136  -2.159940521925 4.10999492  0.35882154  0.6858074 0.7000
  2   -189.5695930057  -0.974653892118 4.22831410  0.32839785  0.3441695 0.7000
                            ****Activating DIIS****
  3   -190.1382806890  -0.568687683297 4.82796477  0.40139621  0.1648602 0.7000
  4   -190.5953902327  -0.45710954368219.12469818  1.29680122  0.0806498 0.0000
  5   -191.4326738450  -0.837283612324 5.55511689  0.26938942  0.0643853 0.0000
  6   -191.4743991484  -0.041725303404 5.12721287  0.24796029  0.0519125 0.0000
  7   -191.5143711473  -0.039971998896 3.62216898  0.19000367  0.0369226 0.0000
  8   -191.5408645871  -0.026493439763 1.83351864  0.11866650  0.0244284 0.0000
  9   -191.5509361957  -0.010071608593 1.23383230  0.08052402  0.0145767 0.0000
 10   -191.5538118259  -0.002875630220 0.40196425  0.02540697  0.0078681 0.0000
 11   -191.5541322308  -0.000320404931 0.05793013  0.00390877  0.0047993 0.0000
 12   -191.5543005499  -0.000168319126 0.16062334  0.00868022  0.0041631 0.0000
 13   -191.5544776625  -0.000177112599 0.20625844  0.01114689  0.0033027 0.0000
 14   -191.5546054722  -0.000127809618 0.13650722  0.00746880  0.0021317 0.0000
 15   -191.5546536540  -0.000048181855 0.09654741  0.00546545  0.0013139 0.0000
 16   -191.5546744239  -0.000020769861 0.03835547  0.00229072  0.0007000 0.0000
 17   -191.5546787282  -0.000004304297 0.01603565  0.00101642  0.0004432 0.0000
 18   -191.5546798098  -0.000001081599 0.01492298  0.00097067  0.0003330 0.0000
 19   -191.5546805668  -0.000000757036 0.01636118  0.00108128  0.0002309 0.0000
 20   -191.5546811206  -0.000000553844 0.01738902  0.00117020  0.0001195 0.0000
                 **** Energy Check signals convergence ****

               *****************************************************
               *                     SUCCESS                       *
               *           SCF CONVERGED AFTER  21 CYCLES          *
               *****************************************************


----------------
TOTAL SCF ENERGY
----------------

Total Energy       :         -191.55468137 Eh           -5212.46788 eV

Components:
Nuclear Repulsion  :            0.00000000 Eh               0.00000 eV
Electronic Energy  :         -191.55468137 Eh           -5212.46788 eV
One Electron Energy:         -297.83490917 Eh           -8104.49990 eV
Two Electron Energy:          106.28022780 Eh            2892.03203 eV

Virial components:
Potential Energy   :         -240.15835989 Eh           -6535.04121 eV
Kinetic Energy     :           48.60367852 Eh            1322.57333 eV
Virial Ratio       :            4.94115604


---------------
SCF CONVERGENCE
---------------

  Last Energy change         ...   -2.4645e-07  Tolerance :   1.0000e-06
  Last MAX-Density change    ...    9.2019e-03  Tolerance :   1.0000e-05
  Last RMS-Density change    ...    6.3953e-04  Tolerance :   1.0000e-06
  Last DIIS Error            ...    4.0236e-05  Tolerance :   1.0000e-06

             **** THE GBW FILE WAS UPDATED (83_Bi_atom83.gbw) ****
             **** DENSITY FILE WAS UPDATED (83_Bi_atom83.scfp) ****
             **** ENERGY FILE WAS UPDATED (83_Bi_atom83.en.tmp) ****
             **** THE GBW FILE WAS UPDATED (83_Bi_atom83.gbw) ****
             **** DENSITY FILE WAS UPDATED (83_Bi_atom83.scfp) ****
----------------
ORBITAL ENERGIES
----------------

  NO   OCC          E(Eh)            E(eV) 
   0   2.0000     -10.464202      -284.7454 
   1   2.0000      -7.689276      -209.2358 
   2   2.0000      -7.689276      -209.2358 
   3   2.0000      -7.683936      -209.0905 
   4   2.0000      -2.768721       -75.3407 
   5   2.0000      -1.732150       -47.1342 
   6   2.0000      -1.732150       -47.1342 
   7   2.0000      -1.718825       -46.7716 
   8   2.0000      -0.558698       -15.2029 
   9   2.0000      -0.252740        -6.8774 
  10   1.0000      -0.301580        -8.2064 
  11   1.0000      -0.301580        -8.2064 
  12   1.0000      -0.091377        -2.4865 
  13   0.0000       0.068431         1.8621 
  14   0.0000       0.068431         1.8621 
  15   0.0000       0.081144         2.2080 
  16   0.0000       0.392445        10.6790 
  17   0.0000       2.015699        54.8500 
  18   0.0000       2.015699        54.8500 
  19   0.0000       2.036347        55.4118 
  20   0.0000      53.820379      1464.5270 
CleanUpVectors: The p-vectors have cracked symmetry
CleanUpVectors: The p-vectors have cracked symmetry
CleanUpVectors: The p-vectors have cracked symmetry
CleanUpVectors: The p-vectors have cracked symmetry
CleanUpVectors: The p-vectors have cracked symmetry
CleanUpVectors: The p-vectors have cracked symmetry
CleanUpVectors: The p-vectors have cracked symmetry
CleanUpVectors: The p-vectors have cracked symmetry
CleanUpVectors: The p-vectors have cracked symmetry
CleanUpVectors: The p-vectors have cracked symmetry
CleanUpVectors: The p-vectors have cracked symmetry
CleanUpVectors: The p-vectors have cracked symmetry
CleanUpVectors: The p-vectors have cracked symmetry
CleanUpVectors: The p-vectors have cracked symmetry
--------------------------
ATOM BASIS FOR ELEMENT Bi
--------------------------
 NewGTO Bi
 S 22
    1        798.633000000000         0.000370230224
    2         95.002300000000         0.002002478868
    3         21.252000000000        -0.123423701343
    4         13.291900000000         0.633026031724
    5          8.312100000000        -0.736674302073
    6          5.194760000000        -0.435660035201
    7          1.909720000000         0.857593952986
    8          0.962271000000         0.518259435026
    9          0.073265000000         0.000986011503
   10        798.633000000000         0.000045043810
   11         95.002300000000         0.000208710851
   12         21.252000000000        -0.012983230055
   13         13.291900000000         0.071316852262
   14          8.312100000000        -0.093503169693
   15          5.194760000000        -0.042054175670
   16          1.909720000000         0.134540204227
   17          0.962271000000         0.113024355660
   18          0.073265000000        -0.054618097358
   19          0.356026000000        -0.259642562195
   20          0.168327000000         0.206763063672
   21          0.078400000000        -0.043825399606
   22          0.029700000000         0.024468442642
 P 43
    1         19.225900000000         0.018311762682
    2         12.037800000000        -0.199568963242
    3          7.536210000000         0.476277020487
    4          2.160840000000        -0.626574735205
    5          1.130360000000        -0.566360870798
    6          0.566778000000        -0.152478982254
    7          0.271608000000        -0.009121869886
    8          0.117769000000        -0.001168860001
    9          0.049304000000         0.000183661858
   10         19.225900000000         0.004047727921
   11         12.037800000000        -0.044113768773
   12          7.536210000000         0.105278766861
   13          2.160840000000        -0.138501360828
   14          1.130360000000        -0.125191372900
   15          0.566778000000        -0.033704752766
   16          0.271608000000        -0.002016345891
   17          0.117769000000        -0.000258370936
   18          0.049304000000         0.000040597579
   19         19.225900000000         0.001318490602
   20         12.037800000000        -0.014369441496
   21          7.536210000000         0.034293081804
   22          2.160840000000        -0.045114875852
   23          1.130360000000        -0.040779333953
   24          0.566778000000        -0.010978850515
   25          0.271608000000        -0.000656796395
   26          0.117769000000        -0.000084160709
   27          0.049304000000         0.000013224092
   28         19.225900000000        -0.000212250233
   29         12.037800000000         0.003793244878
   30          7.536210000000        -0.010238957577
   31          2.160840000000         0.017494995542
   32          1.130360000000         0.016144065118
   33          0.566778000000         0.001210362208
   34          0.271608000000        -0.030587099533
   35          0.117769000000        -0.042782440458
   36          0.049304000000        -0.016398330496
   37         19.225900000000        -0.000046916903
   38         12.037800000000         0.000838478713
   39          7.536210000000        -0.002263272804
   40          2.160840000000         0.003867185436
   41          1.130360000000         0.003568568700
   42          0.566778000000         0.000267544801
   43          0.271608000000        -0.006761132665
 S 22
    1        798.633000000000        -0.000143203700
    2         95.002300000000        -0.000774551519
    3         21.252000000000         0.047739837289
    4         13.291900000000        -0.244852159071
    5          8.312100000000         0.284942931815
    6          5.194760000000         0.168511711832
    7          1.909720000000        -0.331714211536
    8          0.962271000000        -0.200460858267
    9          0.073265000000        -0.000381385651
   10        798.633000000000         0.000427276479
   11         95.002300000000         0.001979788932
   12         21.252000000000        -0.123156295432
   13         13.291900000000         0.676497242152
   14          8.312100000000        -0.886952163807
   15          5.194760000000        -0.398917408147
   16          1.909720000000         1.276221176769
   17          0.962271000000         1.072126187208
   18          0.073265000000        -0.518096229178
   19          0.356026000000        -2.342261704462
   20          0.168327000000         0.871073877997
   21          0.078400000000         0.091541398890
   22          0.029700000000         0.121234495106
 P 43
    1         19.225900000000         0.007076952501
    2         12.037800000000        -0.077127478013
    3          7.536210000000         0.184066925181
    4          2.160840000000        -0.242152528769
    5          1.130360000000        -0.218881658250
    6          0.566778000000        -0.058928598717
    7          0.271608000000        -0.003525331833
    8          0.117769000000        -0.000451729681
    9          0.049304000000         0.000070979854
   10         19.225900000000         0.001544943232
   11         12.037800000000        -0.016837413440
   12          7.536210000000         0.040182967209
   13          2.160840000000        -0.052863419724
   14          1.130360000000        -0.047783242358
   15          0.566778000000        -0.012864483652
   16          0.271608000000        -0.000769602107
   17          0.117769000000        -0.000098615430
   18          0.049304000000         0.000015495348
   19         19.225900000000         0.000804570030
   20         12.037800000000        -0.008768528160
   21          7.536210000000         0.020926342444
   22          2.160840000000        -0.027530023310
   23          1.130360000000        -0.024884386648
   24          0.566778000000        -0.006699519945
   25          0.271608000000        -0.000400790642
   26          0.117769000000        -0.000051356592
   27          0.049304000000         0.000008069612
   28         19.225900000000         0.002429501058
   29         12.037800000000        -0.043418998079
   30          7.536210000000         0.117199203749
   31          2.160840000000        -0.200254716534
   32          1.130360000000        -0.184791426559
   33          0.566778000000        -0.013854289948
   34          0.271608000000         0.350112175323
   35          0.117769000000         0.489704925391
   36          0.049304000000         0.187701849778
   37         19.225900000000         0.000530375358
   38         12.037800000000        -0.009478640306
   39          7.536210000000         0.025585323145
   40          2.160840000000        -0.043716863853
   41          1.130360000000        -0.040341130415
   42          0.566778000000        -0.003024478614
   43          0.271608000000         0.076431689434
 S 22
    1        798.633000000000        -0.000261274896
    2         95.002300000000        -0.001413167874
    3         21.252000000000         0.087101248551
    4         13.291900000000        -0.446732330409
    5          8.312100000000         0.519877874250
    6          5.194760000000         0.307449319676
    7          1.909720000000        -0.605211991233
    8          0.962271000000        -0.365740480742
    9          0.073265000000        -0.000695837445
   10        798.633000000000         0.000419563917
   11         95.002300000000         0.001944052713
   12         21.252000000000        -0.120933260335
   13         13.291900000000         0.664286115574
   14          8.312100000000        -0.870942216588
   15          5.194760000000        -0.391716741741
   16          1.909720000000         1.253184721689
   17          0.962271000000         1.052773752692
   18          0.073265000000        -0.508744323154
   19          0.356026000000        -5.353591787366
   20          0.168327000000         9.329156227088
   21          0.078400000000        -6.549699306925
   22          0.029700000000         2.163153988244
 P 43
    1         19.225900000000        -0.000684395399
    2         12.037800000000         0.007458816646
    3          7.536210000000        -0.017800678575
    4          2.160840000000         0.023418000418
    5          1.130360000000         0.021167529369
    6          0.566778000000         0.005698845915
    7          0.271608000000         0.000340926534
    8          0.117769000000         0.000043685713
    9          0.049304000000        -0.000006864294
   10         19.225900000000        -0.000629466416
   11         12.037800000000         0.006860178472
   12          7.536210000000        -0.016372011507
   13          2.160840000000         0.021538491956
   14          1.130360000000         0.019468641767
   15          0.566778000000         0.005241461470
   16          0.271608000000         0.000313564065
   17          0.117769000000         0.000040179535
   18          0.049304000000        -0.000006313372
   19         19.225900000000         0.007228610807
   20         12.037800000000        -0.078780311294
   21          7.536210000000         0.188011458930
   22          2.160840000000        -0.247341830547
   23          1.130360000000        -0.223572267859
   24          0.566778000000        -0.060191432038
   25          0.271608000000        -0.003600879303
   26          0.117769000000        -0.000461410198
   27          0.049304000000         0.000072500944
   28         19.225900000000        -0.000234951322
   29         12.037800000000         0.004198948986
   30          7.536210000000        -0.011334058811
   31          2.160840000000         0.019366161730
   32          1.130360000000         0.017870743396
   33          0.566778000000         0.001339815733
   34          0.271608000000        -0.033858523426
   35          0.117769000000        -0.047358209331
   36          0.049304000000        -0.018152203567
   37         19.225900000000        -0.000216094332
   38         12.037800000000         0.003861944972
   39          7.536210000000        -0.010424397053
   40          2.160840000000         0.017811850337
   41          1.130360000000         0.016436452986
   42          0.566778000000         0.001232283281
   43          0.271608000000        -0.031141067617
 P 43
    1         19.225900000000        -0.000129682938
    2         12.037800000000         0.001413336879
    3          7.536210000000        -0.003372968755
    4          2.160840000000         0.004437369249
    5          1.130360000000         0.004010937835
    6          0.566778000000         0.001079848115
    7          0.271608000000         0.000064600602
    8          0.117769000000         0.000008277805
    9         19.225900000000        -0.000149445804
   10         12.037800000000         0.001628720548
   11          7.536210000000        -0.003886988022
   12          2.160840000000         0.005113596470
   13          1.130360000000         0.004622179585
   14          0.566778000000         0.001244410190
   15          0.271608000000         0.000074445328
   16          0.117769000000         0.000009539290
   17         19.225900000000         0.001828915883
   18         12.037800000000        -0.019932261742
   19          7.536210000000         0.047568910916
   20          2.160840000000        -0.062580129796
   21          1.130360000000        -0.056566176091
   22          0.566778000000        -0.015229076381
   23          0.271608000000        -0.000911060995
   24          0.117769000000        -0.000116741717
   25          0.049304000000         0.000018343515
   26         19.225900000000        -0.000100981260
   27         12.037800000000         0.001804693643
   28          7.536210000000        -0.004871338983
   29          2.160840000000         0.008323508830
   30          1.130360000000         0.007680783241
   31          0.566778000000         0.000575848133
   32          0.271608000000        -0.014552275388
   33          0.117769000000        -0.020354393350
   34          0.049304000000        -0.007801753841
   35         19.225900000000        -0.000116370170
   36         12.037800000000         0.002079717627
   37          7.536210000000        -0.005613700468
   38          2.160840000000         0.009591959331
   39          1.130360000000         0.008851286397
   40          0.566778000000         0.000663603774
   41          0.271608000000        -0.016769950817
   42          0.117769000000        -0.023456275138
   43          0.049304000000        -0.008990692158
 P 43
    1         19.225900000000        -0.000773961392
    2         12.037800000000         0.008434942900
    3          7.536210000000        -0.020130231711
    4          2.160840000000         0.026482685625
    5          1.130360000000         0.023937698169
    6          0.566778000000         0.006444646942
    7          0.271608000000         0.000385543175
    8          0.117769000000         0.000049402809
    9          0.049304000000        -0.000007762616
   10         19.225900000000        -0.000187375149
   11         12.037800000000         0.002042089829
   12          7.536210000000        -0.004873505596
   13          2.160840000000         0.006411427273
   14          1.130360000000         0.005795288781
   15          0.566778000000         0.001560241501
   16          0.271608000000         0.000093339552
   17          0.117769000000         0.000011960362
   18         19.225900000000         0.000192275336
   19         12.037800000000        -0.002095494032
   20          7.536210000000         0.005000956250
   21          2.160840000000        -0.006579097255
   22          1.130360000000        -0.005946845669
   23          0.566778000000        -0.001601044532
   24          0.271608000000        -0.000095780544
   25          0.117769000000        -0.000012273147
   26         19.225900000000         0.001467764688
   27         12.037800000000        -0.026231259278
   28          7.536210000000         0.070805012478
   29          2.160840000000        -0.120982372315
   30          1.130360000000        -0.111640342637
   31          0.566778000000        -0.008369964482
   32          0.271608000000         0.211517622556
   33          0.117769000000         0.295851526663
   34          0.049304000000         0.113398652811
   35         19.225900000000         0.000355344117
   36         12.037800000000        -0.006350557248
   37          7.536210000000         0.017141810859
   38          2.160840000000        -0.029289691096
   39          1.130360000000        -0.027027996618
   40          0.566778000000        -0.002026358629
   41          0.271608000000         0.051208169484
   42          0.117769000000         0.071625309213
   43          0.049304000000         0.027453681458
 P 43
    1         19.225900000000         0.002467154711
    2         12.037800000000        -0.026888045478
    3          7.536210000000         0.064169087111
    4          2.160840000000        -0.084418787881
    5          1.130360000000        -0.076306138006
    6          0.566778000000        -0.020543584246
    7          0.271608000000        -0.001228994972
    8          0.117769000000        -0.000157481205
    9          0.049304000000         0.000024744872
   10         19.225900000000        -0.003503476813
   11         12.037800000000         0.038182301045
   12          7.536210000000        -0.091123150020
   13          2.160840000000         0.119878686435
   14          1.130360000000         0.108358338478
   15          0.566778000000         0.029172864903
   16          0.271608000000         0.001745231204
   17          0.117769000000         0.000223630788
   18          0.049304000000        -0.000035138892
   19         19.225900000000         0.061800212268
   20         12.037800000000        -0.673523598184
   21          7.536210000000         1.607383269215
   22          2.160840000000        -2.114621749444
   23          1.130360000000        -1.911406490129
   24          0.566778000000        -0.514600021499
   25          0.271608000000        -0.030785321163
   26          0.117769000000        -0.003944775686
   27          0.049304000000         0.000619838843
   28         19.225900000000        -0.000695915838
   29         12.037800000000         0.012437108568
   30          7.536210000000        -0.033571000842
   31          2.160840000000         0.057361748564
   32          1.130360000000         0.052932382970
   33          0.566778000000         0.003968477299
   34          0.271608000000        -0.100287508418
   35          0.117769000000        -0.140273004737
   36          0.049304000000        -0.053766056043
   37         19.225900000000         0.000988233527
   38         12.037800000000        -0.017661284597
   39          7.536210000000         0.047672414924
   40          2.160840000000        -0.081456406117
   41          1.130360000000        -0.075166496696
   42          0.566778000000        -0.005635426161
   43          0.271608000000         0.142413022939
 end
  // -----------------------------------------------
  // The basis set
  // -----------------------------------------------
  BAS[ATNO] = new BFNGauss[NSH];
  // Basis function   1 L = s
  InitBFNGauss(BAS[ATNO][  0]);
  BAS[ATNO][  0].l  = 0;
  BAS[ATNO][  0].ng = 22;
  BAS[ATNO][  0].a[  0] =       798.633000000000;     BAS[ATNO][  0].d[  0] =         0.000370230224;
  BAS[ATNO][  0].a[  1] =        95.002300000000;     BAS[ATNO][  0].d[  1] =         0.002002478868;
  BAS[ATNO][  0].a[  2] =        21.252000000000;     BAS[ATNO][  0].d[  2] =        -0.123423701343;
  BAS[ATNO][  0].a[  3] =        13.291900000000;     BAS[ATNO][  0].d[  3] =         0.633026031724;
  BAS[ATNO][  0].a[  4] =         8.312100000000;     BAS[ATNO][  0].d[  4] =        -0.736674302073;
  BAS[ATNO][  0].a[  5] =         5.194760000000;     BAS[ATNO][  0].d[  5] =        -0.435660035201;
  BAS[ATNO][  0].a[  6] =         1.909720000000;     BAS[ATNO][  0].d[  6] =         0.857593952986;
  BAS[ATNO][  0].a[  7] =         0.962271000000;     BAS[ATNO][  0].d[  7] =         0.518259435026;
  BAS[ATNO][  0].a[  8] =         0.073265000000;     BAS[ATNO][  0].d[  8] =         0.000986011503;
  BAS[ATNO][  0].a[  9] =       798.633000000000;     BAS[ATNO][  0].d[  9] =         0.000045043810;
  BAS[ATNO][  0].a[ 10] =        95.002300000000;     BAS[ATNO][  0].d[ 10] =         0.000208710851;
  BAS[ATNO][  0].a[ 11] =        21.252000000000;     BAS[ATNO][  0].d[ 11] =        -0.012983230055;
  BAS[ATNO][  0].a[ 12] =        13.291900000000;     BAS[ATNO][  0].d[ 12] =         0.071316852262;
  BAS[ATNO][  0].a[ 13] =         8.312100000000;     BAS[ATNO][  0].d[ 13] =        -0.093503169693;
  BAS[ATNO][  0].a[ 14] =         5.194760000000;     BAS[ATNO][  0].d[ 14] =        -0.042054175670;
  BAS[ATNO][  0].a[ 15] =         1.909720000000;     BAS[ATNO][  0].d[ 15] =         0.134540204227;
  BAS[ATNO][  0].a[ 16] =         0.962271000000;     BAS[ATNO][  0].d[ 16] =         0.113024355660;
  BAS[ATNO][  0].a[ 17] =         0.073265000000;     BAS[ATNO][  0].d[ 17] =        -0.054618097358;
  BAS[ATNO][  0].a[ 18] =         0.356026000000;     BAS[ATNO][  0].d[ 18] =        -0.259642562195;
  BAS[ATNO][  0].a[ 19] =         0.168327000000;     BAS[ATNO][  0].d[ 19] =         0.206763063672;
  BAS[ATNO][  0].a[ 20] =         0.078400000000;     BAS[ATNO][  0].d[ 20] =        -0.043825399606;
  BAS[ATNO][  0].a[ 21] =         0.029700000000;     BAS[ATNO][  0].d[ 21] =         0.024468442642;

  // Basis function   2 L = p
  InitBFNGauss(BAS[ATNO][  1]);
  BAS[ATNO][  1].l  = 1;
  BAS[ATNO][  1].ng = 43;
  BAS[ATNO][  1].a[  0] =        19.225900000000;     BAS[ATNO][  1].d[  0] =        -0.018311762682;
  BAS[ATNO][  1].a[  1] =        12.037800000000;     BAS[ATNO][  1].d[  1] =         0.199568963242;
  BAS[ATNO][  1].a[  2] =         7.536210000000;     BAS[ATNO][  1].d[  2] =        -0.476277020487;
  BAS[ATNO][  1].a[  3] =         2.160840000000;     BAS[ATNO][  1].d[  3] =         0.626574735205;
  BAS[ATNO][  1].a[  4] =         1.130360000000;     BAS[ATNO][  1].d[  4] =         0.566360870798;
  BAS[ATNO][  1].a[  5] =         0.566778000000;     BAS[ATNO][  1].d[  5] =         0.152478982254;
  BAS[ATNO][  1].a[  6] =         0.271608000000;     BAS[ATNO][  1].d[  6] =         0.009121869886;
  BAS[ATNO][  1].a[  7] =         0.117769000000;     BAS[ATNO][  1].d[  7] =         0.001168860001;
  BAS[ATNO][  1].a[  8] =         0.049304000000;     BAS[ATNO][  1].d[  8] =        -0.000183661858;
  BAS[ATNO][  1].a[  9] =        19.225900000000;     BAS[ATNO][  1].d[  9] =        -0.004047727921;
  BAS[ATNO][  1].a[ 10] =        12.037800000000;     BAS[ATNO][  1].d[ 10] =         0.044113768773;
  BAS[ATNO][  1].a[ 11] =         7.536210000000;     BAS[ATNO][  1].d[ 11] =        -0.105278766861;
  BAS[ATNO][  1].a[ 12] =         2.160840000000;     BAS[ATNO][  1].d[ 12] =         0.138501360828;
  BAS[ATNO][  1].a[ 13] =         1.130360000000;     BAS[ATNO][  1].d[ 13] =         0.125191372900;
  BAS[ATNO][  1].a[ 14] =         0.566778000000;     BAS[ATNO][  1].d[ 14] =         0.033704752766;
  BAS[ATNO][  1].a[ 15] =         0.271608000000;     BAS[ATNO][  1].d[ 15] =         0.002016345891;
  BAS[ATNO][  1].a[ 16] =         0.117769000000;     BAS[ATNO][  1].d[ 16] =         0.000258370936;
  BAS[ATNO][  1].a[ 17] =         0.049304000000;     BAS[ATNO][  1].d[ 17] =        -0.000040597579;
  BAS[ATNO][  1].a[ 18] =        19.225900000000;     BAS[ATNO][  1].d[ 18] =        -0.001318490602;
  BAS[ATNO][  1].a[ 19] =        12.037800000000;     BAS[ATNO][  1].d[ 19] =         0.014369441496;
  BAS[ATNO][  1].a[ 20] =         7.536210000000;     BAS[ATNO][  1].d[ 20] =        -0.034293081804;
  BAS[ATNO][  1].a[ 21] =         2.160840000000;     BAS[ATNO][  1].d[ 21] =         0.045114875852;
  BAS[ATNO][  1].a[ 22] =         1.130360000000;     BAS[ATNO][  1].d[ 22] =         0.040779333953;
  BAS[ATNO][  1].a[ 23] =         0.566778000000;     BAS[ATNO][  1].d[ 23] =         0.010978850515;
  BAS[ATNO][  1].a[ 24] =         0.271608000000;     BAS[ATNO][  1].d[ 24] =         0.000656796395;
  BAS[ATNO][  1].a[ 25] =         0.117769000000;     BAS[ATNO][  1].d[ 25] =         0.000084160709;
  BAS[ATNO][  1].a[ 26] =         0.049304000000;     BAS[ATNO][  1].d[ 26] =        -0.000013224092;
  BAS[ATNO][  1].a[ 27] =        19.225900000000;     BAS[ATNO][  1].d[ 27] =         0.000212250233;
  BAS[ATNO][  1].a[ 28] =        12.037800000000;     BAS[ATNO][  1].d[ 28] =        -0.003793244878;
  BAS[ATNO][  1].a[ 29] =         7.536210000000;     BAS[ATNO][  1].d[ 29] =         0.010238957577;
  BAS[ATNO][  1].a[ 30] =         2.160840000000;     BAS[ATNO][  1].d[ 30] =        -0.017494995542;
  BAS[ATNO][  1].a[ 31] =         1.130360000000;     BAS[ATNO][  1].d[ 31] =        -0.016144065118;
  BAS[ATNO][  1].a[ 32] =         0.566778000000;     BAS[ATNO][  1].d[ 32] =        -0.001210362208;
  BAS[ATNO][  1].a[ 33] =         0.271608000000;     BAS[ATNO][  1].d[ 33] =         0.030587099533;
  BAS[ATNO][  1].a[ 34] =         0.117769000000;     BAS[ATNO][  1].d[ 34] =         0.042782440458;
  BAS[ATNO][  1].a[ 35] =         0.049304000000;     BAS[ATNO][  1].d[ 35] =         0.016398330496;
  BAS[ATNO][  1].a[ 36] =        19.225900000000;     BAS[ATNO][  1].d[ 36] =         0.000046916903;
  BAS[ATNO][  1].a[ 37] =        12.037800000000;     BAS[ATNO][  1].d[ 37] =        -0.000838478713;
  BAS[ATNO][  1].a[ 38] =         7.536210000000;     BAS[ATNO][  1].d[ 38] =         0.002263272804;
  BAS[ATNO][  1].a[ 39] =         2.160840000000;     BAS[ATNO][  1].d[ 39] =        -0.003867185436;
  BAS[ATNO][  1].a[ 40] =         1.130360000000;     BAS[ATNO][  1].d[ 40] =        -0.003568568700;
  BAS[ATNO][  1].a[ 41] =         0.566778000000;     BAS[ATNO][  1].d[ 41] =        -0.000267544801;
  BAS[ATNO][  1].a[ 42] =         0.271608000000;     BAS[ATNO][  1].d[ 42] =         0.006761132665;

  // Basis function   3 L = s
  InitBFNGauss(BAS[ATNO][  2]);
  BAS[ATNO][  2].l  = 0;
  BAS[ATNO][  2].ng = 22;
  BAS[ATNO][  2].a[  0] =       798.633000000000;     BAS[ATNO][  2].d[  0] =         0.000143203700;
  BAS[ATNO][  2].a[  1] =        95.002300000000;     BAS[ATNO][  2].d[  1] =         0.000774551519;
  BAS[ATNO][  2].a[  2] =        21.252000000000;     BAS[ATNO][  2].d[  2] =        -0.047739837289;
  BAS[ATNO][  2].a[  3] =        13.291900000000;     BAS[ATNO][  2].d[  3] =         0.244852159071;
  BAS[ATNO][  2].a[  4] =         8.312100000000;     BAS[ATNO][  2].d[  4] =        -0.284942931815;
  BAS[ATNO][  2].a[  5] =         5.194760000000;     BAS[ATNO][  2].d[  5] =        -0.168511711832;
  BAS[ATNO][  2].a[  6] =         1.909720000000;     BAS[ATNO][  2].d[  6] =         0.331714211536;
  BAS[ATNO][  2].a[  7] =         0.962271000000;     BAS[ATNO][  2].d[  7] =         0.200460858267;
  BAS[ATNO][  2].a[  8] =         0.073265000000;     BAS[ATNO][  2].d[  8] =         0.000381385651;
  BAS[ATNO][  2].a[  9] =       798.633000000000;     BAS[ATNO][  2].d[  9] =        -0.000427276479;
  BAS[ATNO][  2].a[ 10] =        95.002300000000;     BAS[ATNO][  2].d[ 10] =        -0.001979788932;
  BAS[ATNO][  2].a[ 11] =        21.252000000000;     BAS[ATNO][  2].d[ 11] =         0.123156295432;
  BAS[ATNO][  2].a[ 12] =        13.291900000000;     BAS[ATNO][  2].d[ 12] =        -0.676497242152;
  BAS[ATNO][  2].a[ 13] =         8.312100000000;     BAS[ATNO][  2].d[ 13] =         0.886952163807;
  BAS[ATNO][  2].a[ 14] =         5.194760000000;     BAS[ATNO][  2].d[ 14] =         0.398917408147;
  BAS[ATNO][  2].a[ 15] =         1.909720000000;     BAS[ATNO][  2].d[ 15] =        -1.276221176769;
  BAS[ATNO][  2].a[ 16] =         0.962271000000;     BAS[ATNO][  2].d[ 16] =        -1.072126187208;
  BAS[ATNO][  2].a[ 17] =         0.073265000000;     BAS[ATNO][  2].d[ 17] =         0.518096229178;
  BAS[ATNO][  2].a[ 18] =         0.356026000000;     BAS[ATNO][  2].d[ 18] =         2.342261704462;
  BAS[ATNO][  2].a[ 19] =         0.168327000000;     BAS[ATNO][  2].d[ 19] =        -0.871073877997;
  BAS[ATNO][  2].a[ 20] =         0.078400000000;     BAS[ATNO][  2].d[ 20] =        -0.091541398890;
  BAS[ATNO][  2].a[ 21] =         0.029700000000;     BAS[ATNO][  2].d[ 21] =        -0.121234495106;

  // Basis function   4 L = p
  InitBFNGauss(BAS[ATNO][  3]);
  BAS[ATNO][  3].l  = 1;
  BAS[ATNO][  3].ng = 43;
  BAS[ATNO][  3].a[  0] =        19.225900000000;     BAS[ATNO][  3].d[  0] =         0.007076952501;
  BAS[ATNO][  3].a[  1] =        12.037800000000;     BAS[ATNO][  3].d[  1] =        -0.077127478013;
  BAS[ATNO][  3].a[  2] =         7.536210000000;     BAS[ATNO][  3].d[  2] =         0.184066925181;
  BAS[ATNO][  3].a[  3] =         2.160840000000;     BAS[ATNO][  3].d[  3] =        -0.242152528769;
  BAS[ATNO][  3].a[  4] =         1.130360000000;     BAS[ATNO][  3].d[  4] =        -0.218881658250;
  BAS[ATNO][  3].a[  5] =         0.566778000000;     BAS[ATNO][  3].d[  5] =        -0.058928598717;
  BAS[ATNO][  3].a[  6] =         0.271608000000;     BAS[ATNO][  3].d[  6] =        -0.003525331833;
  BAS[ATNO][  3].a[  7] =         0.117769000000;     BAS[ATNO][  3].d[  7] =        -0.000451729681;
  BAS[ATNO][  3].a[  8] =         0.049304000000;     BAS[ATNO][  3].d[  8] =         0.000070979854;
  BAS[ATNO][  3].a[  9] =        19.225900000000;     BAS[ATNO][  3].d[  9] =         0.001544943232;
  BAS[ATNO][  3].a[ 10] =        12.037800000000;     BAS[ATNO][  3].d[ 10] =        -0.016837413440;
  BAS[ATNO][  3].a[ 11] =         7.536210000000;     BAS[ATNO][  3].d[ 11] =         0.040182967209;
  BAS[ATNO][  3].a[ 12] =         2.160840000000;     BAS[ATNO][  3].d[ 12] =        -0.052863419724;
  BAS[ATNO][  3].a[ 13] =         1.130360000000;     BAS[ATNO][  3].d[ 13] =        -0.047783242358;
  BAS[ATNO][  3].a[ 14] =         0.566778000000;     BAS[ATNO][  3].d[ 14] =        -0.012864483652;
  BAS[ATNO][  3].a[ 15] =         0.271608000000;     BAS[ATNO][  3].d[ 15] =        -0.000769602107;
  BAS[ATNO][  3].a[ 16] =         0.117769000000;     BAS[ATNO][  3].d[ 16] =        -0.000098615430;
  BAS[ATNO][  3].a[ 17] =         0.049304000000;     BAS[ATNO][  3].d[ 17] =         0.000015495348;
  BAS[ATNO][  3].a[ 18] =        19.225900000000;     BAS[ATNO][  3].d[ 18] =         0.000804570030;
  BAS[ATNO][  3].a[ 19] =        12.037800000000;     BAS[ATNO][  3].d[ 19] =        -0.008768528160;
  BAS[ATNO][  3].a[ 20] =         7.536210000000;     BAS[ATNO][  3].d[ 20] =         0.020926342444;
  BAS[ATNO][  3].a[ 21] =         2.160840000000;     BAS[ATNO][  3].d[ 21] =        -0.027530023310;
  BAS[ATNO][  3].a[ 22] =         1.130360000000;     BAS[ATNO][  3].d[ 22] =        -0.024884386648;
  BAS[ATNO][  3].a[ 23] =         0.566778000000;     BAS[ATNO][  3].d[ 23] =        -0.006699519945;
  BAS[ATNO][  3].a[ 24] =         0.271608000000;     BAS[ATNO][  3].d[ 24] =        -0.000400790642;
  BAS[ATNO][  3].a[ 25] =         0.117769000000;     BAS[ATNO][  3].d[ 25] =        -0.000051356592;
  BAS[ATNO][  3].a[ 26] =         0.049304000000;     BAS[ATNO][  3].d[ 26] =         0.000008069612;
  BAS[ATNO][  3].a[ 27] =        19.225900000000;     BAS[ATNO][  3].d[ 27] =         0.002429501058;
  BAS[ATNO][  3].a[ 28] =        12.037800000000;     BAS[ATNO][  3].d[ 28] =        -0.043418998079;
  BAS[ATNO][  3].a[ 29] =         7.536210000000;     BAS[ATNO][  3].d[ 29] =         0.117199203749;
  BAS[ATNO][  3].a[ 30] =         2.160840000000;     BAS[ATNO][  3].d[ 30] =        -0.200254716534;
  BAS[ATNO][  3].a[ 31] =         1.130360000000;     BAS[ATNO][  3].d[ 31] =        -0.184791426559;
  BAS[ATNO][  3].a[ 32] =         0.566778000000;     BAS[ATNO][  3].d[ 32] =        -0.013854289948;
  BAS[ATNO][  3].a[ 33] =         0.271608000000;     BAS[ATNO][  3].d[ 33] =         0.350112175323;
  BAS[ATNO][  3].a[ 34] =         0.117769000000;     BAS[ATNO][  3].d[ 34] =         0.489704925391;
  BAS[ATNO][  3].a[ 35] =         0.049304000000;     BAS[ATNO][  3].d[ 35] =         0.187701849778;
  BAS[ATNO][  3].a[ 36] =        19.225900000000;     BAS[ATNO][  3].d[ 36] =         0.000530375358;
  BAS[ATNO][  3].a[ 37] =        12.037800000000;     BAS[ATNO][  3].d[ 37] =        -0.009478640306;
  BAS[ATNO][  3].a[ 38] =         7.536210000000;     BAS[ATNO][  3].d[ 38] =         0.025585323145;
  BAS[ATNO][  3].a[ 39] =         2.160840000000;     BAS[ATNO][  3].d[ 39] =        -0.043716863853;
  BAS[ATNO][  3].a[ 40] =         1.130360000000;     BAS[ATNO][  3].d[ 40] =        -0.040341130415;
  BAS[ATNO][  3].a[ 41] =         0.566778000000;     BAS[ATNO][  3].d[ 41] =        -0.003024478614;
  BAS[ATNO][  3].a[ 42] =         0.271608000000;     BAS[ATNO][  3].d[ 42] =         0.076431689434;

  // Basis function   5 L = s
  InitBFNGauss(BAS[ATNO][  4]);
  BAS[ATNO][  4].l  = 0;
  BAS[ATNO][  4].ng = 22;
  BAS[ATNO][  4].a[  0] =       798.633000000000;     BAS[ATNO][  4].d[  0] =        -0.000261274896;
  BAS[ATNO][  4].a[  1] =        95.002300000000;     BAS[ATNO][  4].d[  1] =        -0.001413167874;
  BAS[ATNO][  4].a[  2] =        21.252000000000;     BAS[ATNO][  4].d[  2] =         0.087101248551;
  BAS[ATNO][  4].a[  3] =        13.291900000000;     BAS[ATNO][  4].d[  3] =        -0.446732330409;
  BAS[ATNO][  4].a[  4] =         8.312100000000;     BAS[ATNO][  4].d[  4] =         0.519877874250;
  BAS[ATNO][  4].a[  5] =         5.194760000000;     BAS[ATNO][  4].d[  5] =         0.307449319676;
  BAS[ATNO][  4].a[  6] =         1.909720000000;     BAS[ATNO][  4].d[  6] =        -0.605211991233;
  BAS[ATNO][  4].a[  7] =         0.962271000000;     BAS[ATNO][  4].d[  7] =        -0.365740480742;
  BAS[ATNO][  4].a[  8] =         0.073265000000;     BAS[ATNO][  4].d[  8] =        -0.000695837445;
  BAS[ATNO][  4].a[  9] =       798.633000000000;     BAS[ATNO][  4].d[  9] =         0.000419563917;
  BAS[ATNO][  4].a[ 10] =        95.002300000000;     BAS[ATNO][  4].d[ 10] =         0.001944052713;
  BAS[ATNO][  4].a[ 11] =        21.252000000000;     BAS[ATNO][  4].d[ 11] =        -0.120933260335;
  BAS[ATNO][  4].a[ 12] =        13.291900000000;     BAS[ATNO][  4].d[ 12] =         0.664286115574;
  BAS[ATNO][  4].a[ 13] =         8.312100000000;     BAS[ATNO][  4].d[ 13] =        -0.870942216588;
  BAS[ATNO][  4].a[ 14] =         5.194760000000;     BAS[ATNO][  4].d[ 14] =        -0.391716741741;
  BAS[ATNO][  4].a[ 15] =         1.909720000000;     BAS[ATNO][  4].d[ 15] =         1.253184721689;
  BAS[ATNO][  4].a[ 16] =         0.962271000000;     BAS[ATNO][  4].d[ 16] =         1.052773752692;
  BAS[ATNO][  4].a[ 17] =         0.073265000000;     BAS[ATNO][  4].d[ 17] =        -0.508744323154;
  BAS[ATNO][  4].a[ 18] =         0.356026000000;     BAS[ATNO][  4].d[ 18] =        -5.353591787366;
  BAS[ATNO][  4].a[ 19] =         0.168327000000;     BAS[ATNO][  4].d[ 19] =         9.329156227088;
  BAS[ATNO][  4].a[ 20] =         0.078400000000;     BAS[ATNO][  4].d[ 20] =        -6.549699306925;
  BAS[ATNO][  4].a[ 21] =         0.029700000000;     BAS[ATNO][  4].d[ 21] =         2.163153988244;

  // Basis function   6 L = p
  InitBFNGauss(BAS[ATNO][  5]);
  BAS[ATNO][  5].l  = 1;
  BAS[ATNO][  5].ng = 43;
  BAS[ATNO][  5].a[  0] =        19.225900000000;     BAS[ATNO][  5].d[  0] =         0.000684395399;
  BAS[ATNO][  5].a[  1] =        12.037800000000;     BAS[ATNO][  5].d[  1] =        -0.007458816646;
  BAS[ATNO][  5].a[  2] =         7.536210000000;     BAS[ATNO][  5].d[  2] =         0.017800678575;
  BAS[ATNO][  5].a[  3] =         2.160840000000;     BAS[ATNO][  5].d[  3] =        -0.023418000418;
  BAS[ATNO][  5].a[  4] =         1.130360000000;     BAS[ATNO][  5].d[  4] =        -0.021167529369;
  BAS[ATNO][  5].a[  5] =         0.566778000000;     BAS[ATNO][  5].d[  5] =        -0.005698845915;
  BAS[ATNO][  5].a[  6] =         0.271608000000;     BAS[ATNO][  5].d[  6] =        -0.000340926534;
  BAS[ATNO][  5].a[  7] =         0.117769000000;     BAS[ATNO][  5].d[  7] =        -0.000043685713;
  BAS[ATNO][  5].a[  8] =         0.049304000000;     BAS[ATNO][  5].d[  8] =         0.000006864294;
  BAS[ATNO][  5].a[  9] =        19.225900000000;     BAS[ATNO][  5].d[  9] =         0.000629466416;
  BAS[ATNO][  5].a[ 10] =        12.037800000000;     BAS[ATNO][  5].d[ 10] =        -0.006860178472;
  BAS[ATNO][  5].a[ 11] =         7.536210000000;     BAS[ATNO][  5].d[ 11] =         0.016372011507;
  BAS[ATNO][  5].a[ 12] =         2.160840000000;     BAS[ATNO][  5].d[ 12] =        -0.021538491956;
  BAS[ATNO][  5].a[ 13] =         1.130360000000;     BAS[ATNO][  5].d[ 13] =        -0.019468641767;
  BAS[ATNO][  5].a[ 14] =         0.566778000000;     BAS[ATNO][  5].d[ 14] =        -0.005241461470;
  BAS[ATNO][  5].a[ 15] =         0.271608000000;     BAS[ATNO][  5].d[ 15] =        -0.000313564065;
  BAS[ATNO][  5].a[ 16] =         0.117769000000;     BAS[ATNO][  5].d[ 16] =        -0.000040179535;
  BAS[ATNO][  5].a[ 17] =         0.049304000000;     BAS[ATNO][  5].d[ 17] =         0.000006313372;
  BAS[ATNO][  5].a[ 18] =        19.225900000000;     BAS[ATNO][  5].d[ 18] =        -0.007228610807;
  BAS[ATNO][  5].a[ 19] =        12.037800000000;     BAS[ATNO][  5].d[ 19] =         0.078780311294;
  BAS[ATNO][  5].a[ 20] =         7.536210000000;     BAS[ATNO][  5].d[ 20] =        -0.188011458930;
  BAS[ATNO][  5].a[ 21] =         2.160840000000;     BAS[ATNO][  5].d[ 21] =         0.247341830547;
  BAS[ATNO][  5].a[ 22] =         1.130360000000;     BAS[ATNO][  5].d[ 22] =         0.223572267859;
  BAS[ATNO][  5].a[ 23] =         0.566778000000;     BAS[ATNO][  5].d[ 23] =         0.060191432038;
  BAS[ATNO][  5].a[ 24] =         0.271608000000;     BAS[ATNO][  5].d[ 24] =         0.003600879303;
  BAS[ATNO][  5].a[ 25] =         0.117769000000;     BAS[ATNO][  5].d[ 25] =         0.000461410198;
  BAS[ATNO][  5].a[ 26] =         0.049304000000;     BAS[ATNO][  5].d[ 26] =        -0.000072500944;
  BAS[ATNO][  5].a[ 27] =        19.225900000000;     BAS[ATNO][  5].d[ 27] =         0.000234951322;
  BAS[ATNO][  5].a[ 28] =        12.037800000000;     BAS[ATNO][  5].d[ 28] =        -0.004198948986;
  BAS[ATNO][  5].a[ 29] =         7.536210000000;     BAS[ATNO][  5].d[ 29] =         0.011334058811;
  BAS[ATNO][  5].a[ 30] =         2.160840000000;     BAS[ATNO][  5].d[ 30] =        -0.019366161730;
  BAS[ATNO][  5].a[ 31] =         1.130360000000;     BAS[ATNO][  5].d[ 31] =        -0.017870743396;
  BAS[ATNO][  5].a[ 32] =         0.566778000000;     BAS[ATNO][  5].d[ 32] =        -0.001339815733;
  BAS[ATNO][  5].a[ 33] =         0.271608000000;     BAS[ATNO][  5].d[ 33] =         0.033858523426;
  BAS[ATNO][  5].a[ 34] =         0.117769000000;     BAS[ATNO][  5].d[ 34] =         0.047358209331;
  BAS[ATNO][  5].a[ 35] =         0.049304000000;     BAS[ATNO][  5].d[ 35] =         0.018152203567;
  BAS[ATNO][  5].a[ 36] =        19.225900000000;     BAS[ATNO][  5].d[ 36] =         0.000216094332;
  BAS[ATNO][  5].a[ 37] =        12.037800000000;     BAS[ATNO][  5].d[ 37] =        -0.003861944972;
  BAS[ATNO][  5].a[ 38] =         7.536210000000;     BAS[ATNO][  5].d[ 38] =         0.010424397053;
  BAS[ATNO][  5].a[ 39] =         2.160840000000;     BAS[ATNO][  5].d[ 39] =        -0.017811850337;
  BAS[ATNO][  5].a[ 40] =         1.130360000000;     BAS[ATNO][  5].d[ 40] =        -0.016436452986;
  BAS[ATNO][  5].a[ 41] =         0.566778000000;     BAS[ATNO][  5].d[ 41] =        -0.001232283281;
  BAS[ATNO][  5].a[ 42] =         0.271608000000;     BAS[ATNO][  5].d[ 42] =         0.031141067617;

  // Basis function   7 L = p
  InitBFNGauss(BAS[ATNO][  6]);
  BAS[ATNO][  6].l  = 1;
  BAS[ATNO][  6].ng = 43;
  BAS[ATNO][  6].a[  0] =        19.225900000000;     BAS[ATNO][  6].d[  0] =         0.000129682938;
  BAS[ATNO][  6].a[  1] =        12.037800000000;     BAS[ATNO][  6].d[  1] =        -0.001413336879;
  BAS[ATNO][  6].a[  2] =         7.536210000000;     BAS[ATNO][  6].d[  2] =         0.003372968755;
  BAS[ATNO][  6].a[  3] =         2.160840000000;     BAS[ATNO][  6].d[  3] =        -0.004437369249;
  BAS[ATNO][  6].a[  4] =         1.130360000000;     BAS[ATNO][  6].d[  4] =        -0.004010937835;
  BAS[ATNO][  6].a[  5] =         0.566778000000;     BAS[ATNO][  6].d[  5] =        -0.001079848115;
  BAS[ATNO][  6].a[  6] =         0.271608000000;     BAS[ATNO][  6].d[  6] =        -0.000064600602;
  BAS[ATNO][  6].a[  7] =         0.117769000000;     BAS[ATNO][  6].d[  7] =        -0.000008277805;
  BAS[ATNO][  6].a[  8] =        19.225900000000;     BAS[ATNO][  6].d[  8] =         0.000149445804;
  BAS[ATNO][  6].a[  9] =        12.037800000000;     BAS[ATNO][  6].d[  9] =        -0.001628720548;
  BAS[ATNO][  6].a[ 10] =         7.536210000000;     BAS[ATNO][  6].d[ 10] =         0.003886988022;
  BAS[ATNO][  6].a[ 11] =         2.160840000000;     BAS[ATNO][  6].d[ 11] =        -0.005113596470;
  BAS[ATNO][  6].a[ 12] =         1.130360000000;     BAS[ATNO][  6].d[ 12] =        -0.004622179585;
  BAS[ATNO][  6].a[ 13] =         0.566778000000;     BAS[ATNO][  6].d[ 13] =        -0.001244410190;
  BAS[ATNO][  6].a[ 14] =         0.271608000000;     BAS[ATNO][  6].d[ 14] =        -0.000074445328;
  BAS[ATNO][  6].a[ 15] =         0.117769000000;     BAS[ATNO][  6].d[ 15] =        -0.000009539290;
  BAS[ATNO][  6].a[ 16] =        19.225900000000;     BAS[ATNO][  6].d[ 16] =        -0.001828915883;
  BAS[ATNO][  6].a[ 17] =        12.037800000000;     BAS[ATNO][  6].d[ 17] =         0.019932261742;
  BAS[ATNO][  6].a[ 18] =         7.536210000000;     BAS[ATNO][  6].d[ 18] =        -0.047568910916;
  BAS[ATNO][  6].a[ 19] =         2.160840000000;     BAS[ATNO][  6].d[ 19] =         0.062580129796;
  BAS[ATNO][  6].a[ 20] =         1.130360000000;     BAS[ATNO][  6].d[ 20] =         0.056566176091;
  BAS[ATNO][  6].a[ 21] =         0.566778000000;     BAS[ATNO][  6].d[ 21] =         0.015229076381;
  BAS[ATNO][  6].a[ 22] =         0.271608000000;     BAS[ATNO][  6].d[ 22] =         0.000911060995;
  BAS[ATNO][  6].a[ 23] =         0.117769000000;     BAS[ATNO][  6].d[ 23] =         0.000116741717;
  BAS[ATNO][  6].a[ 24] =         0.049304000000;     BAS[ATNO][  6].d[ 24] =        -0.000018343515;
  BAS[ATNO][  6].a[ 25] =        19.225900000000;     BAS[ATNO][  6].d[ 25] =         0.000100981260;
  BAS[ATNO][  6].a[ 26] =        12.037800000000;     BAS[ATNO][  6].d[ 26] =        -0.001804693643;
  BAS[ATNO][  6].a[ 27] =         7.536210000000;     BAS[ATNO][  6].d[ 27] =         0.004871338983;
  BAS[ATNO][  6].a[ 28] =         2.160840000000;     BAS[ATNO][  6].d[ 28] =        -0.008323508830;
  BAS[ATNO][  6].a[ 29] =         1.130360000000;     BAS[ATNO][  6].d[ 29] =        -0.007680783241;
  BAS[ATNO][  6].a[ 30] =         0.566778000000;     BAS[ATNO][  6].d[ 30] =        -0.000575848133;
  BAS[ATNO][  6].a[ 31] =         0.271608000000;     BAS[ATNO][  6].d[ 31] =         0.014552275388;
  BAS[ATNO][  6].a[ 32] =         0.117769000000;     BAS[ATNO][  6].d[ 32] =         0.020354393350;
  BAS[ATNO][  6].a[ 33] =         0.049304000000;     BAS[ATNO][  6].d[ 33] =         0.007801753841;
  BAS[ATNO][  6].a[ 34] =        19.225900000000;     BAS[ATNO][  6].d[ 34] =         0.000116370170;
  BAS[ATNO][  6].a[ 35] =        12.037800000000;     BAS[ATNO][  6].d[ 35] =        -0.002079717627;
  BAS[ATNO][  6].a[ 36] =         7.536210000000;     BAS[ATNO][  6].d[ 36] =         0.005613700468;
  BAS[ATNO][  6].a[ 37] =         2.160840000000;     BAS[ATNO][  6].d[ 37] =        -0.009591959331;
  BAS[ATNO][  6].a[ 38] =         1.130360000000;     BAS[ATNO][  6].d[ 38] =        -0.008851286397;
  BAS[ATNO][  6].a[ 39] =         0.566778000000;     BAS[ATNO][  6].d[ 39] =        -0.000663603774;
  BAS[ATNO][  6].a[ 40] =         0.271608000000;     BAS[ATNO][  6].d[ 40] =         0.016769950817;
  BAS[ATNO][  6].a[ 41] =         0.117769000000;     BAS[ATNO][  6].d[ 41] =         0.023456275138;
  BAS[ATNO][  6].a[ 42] =         0.049304000000;     BAS[ATNO][  6].d[ 42] =         0.008990692158;

  // Basis function   8 L = p
  InitBFNGauss(BAS[ATNO][  7]);
  BAS[ATNO][  7].l  = 1;
  BAS[ATNO][  7].ng = 43;
  BAS[ATNO][  7].a[  0] =        19.225900000000;     BAS[ATNO][  7].d[  0] =        -0.000773961392;
  BAS[ATNO][  7].a[  1] =        12.037800000000;     BAS[ATNO][  7].d[  1] =         0.008434942900;
  BAS[ATNO][  7].a[  2] =         7.536210000000;     BAS[ATNO][  7].d[  2] =        -0.020130231711;
  BAS[ATNO][  7].a[  3] =         2.160840000000;     BAS[ATNO][  7].d[  3] =         0.026482685625;
  BAS[ATNO][  7].a[  4] =         1.130360000000;     BAS[ATNO][  7].d[  4] =         0.023937698169;
  BAS[ATNO][  7].a[  5] =         0.566778000000;     BAS[ATNO][  7].d[  5] =         0.006444646942;
  BAS[ATNO][  7].a[  6] =         0.271608000000;     BAS[ATNO][  7].d[  6] =         0.000385543175;
  BAS[ATNO][  7].a[  7] =         0.117769000000;     BAS[ATNO][  7].d[  7] =         0.000049402809;
  BAS[ATNO][  7].a[  8] =         0.049304000000;     BAS[ATNO][  7].d[  8] =        -0.000007762616;
  BAS[ATNO][  7].a[  9] =        19.225900000000;     BAS[ATNO][  7].d[  9] =        -0.000187375149;
  BAS[ATNO][  7].a[ 10] =        12.037800000000;     BAS[ATNO][  7].d[ 10] =         0.002042089829;
  BAS[ATNO][  7].a[ 11] =         7.536210000000;     BAS[ATNO][  7].d[ 11] =        -0.004873505596;
  BAS[ATNO][  7].a[ 12] =         2.160840000000;     BAS[ATNO][  7].d[ 12] =         0.006411427273;
  BAS[ATNO][  7].a[ 13] =         1.130360000000;     BAS[ATNO][  7].d[ 13] =         0.005795288781;
  BAS[ATNO][  7].a[ 14] =         0.566778000000;     BAS[ATNO][  7].d[ 14] =         0.001560241501;
  BAS[ATNO][  7].a[ 15] =         0.271608000000;     BAS[ATNO][  7].d[ 15] =         0.000093339552;
  BAS[ATNO][  7].a[ 16] =         0.117769000000;     BAS[ATNO][  7].d[ 16] =         0.000011960362;
  BAS[ATNO][  7].a[ 17] =        19.225900000000;     BAS[ATNO][  7].d[ 17] =         0.000192275336;
  BAS[ATNO][  7].a[ 18] =        12.037800000000;     BAS[ATNO][  7].d[ 18] =        -0.002095494032;
  BAS[ATNO][  7].a[ 19] =         7.536210000000;     BAS[ATNO][  7].d[ 19] =         0.005000956250;
  BAS[ATNO][  7].a[ 20] =         2.160840000000;     BAS[ATNO][  7].d[ 20] =        -0.006579097255;
  BAS[ATNO][  7].a[ 21] =         1.130360000000;     BAS[ATNO][  7].d[ 21] =        -0.005946845669;
  BAS[ATNO][  7].a[ 22] =         0.566778000000;     BAS[ATNO][  7].d[ 22] =        -0.001601044532;
  BAS[ATNO][  7].a[ 23] =         0.271608000000;     BAS[ATNO][  7].d[ 23] =        -0.000095780544;
  BAS[ATNO][  7].a[ 24] =         0.117769000000;     BAS[ATNO][  7].d[ 24] =        -0.000012273147;
  BAS[ATNO][  7].a[ 25] =        19.225900000000;     BAS[ATNO][  7].d[ 25] =         0.001467764688;
  BAS[ATNO][  7].a[ 26] =        12.037800000000;     BAS[ATNO][  7].d[ 26] =        -0.026231259278;
  BAS[ATNO][  7].a[ 27] =         7.536210000000;     BAS[ATNO][  7].d[ 27] =         0.070805012478;
  BAS[ATNO][  7].a[ 28] =         2.160840000000;     BAS[ATNO][  7].d[ 28] =        -0.120982372315;
  BAS[ATNO][  7].a[ 29] =         1.130360000000;     BAS[ATNO][  7].d[ 29] =        -0.111640342637;
  BAS[ATNO][  7].a[ 30] =         0.566778000000;     BAS[ATNO][  7].d[ 30] =        -0.008369964482;
  BAS[ATNO][  7].a[ 31] =         0.271608000000;     BAS[ATNO][  7].d[ 31] =         0.211517622556;
  BAS[ATNO][  7].a[ 32] =         0.117769000000;     BAS[ATNO][  7].d[ 32] =         0.295851526663;
  BAS[ATNO][  7].a[ 33] =         0.049304000000;     BAS[ATNO][  7].d[ 33] =         0.113398652811;
  BAS[ATNO][  7].a[ 34] =        19.225900000000;     BAS[ATNO][  7].d[ 34] =         0.000355344117;
  BAS[ATNO][  7].a[ 35] =        12.037800000000;     BAS[ATNO][  7].d[ 35] =        -0.006350557248;
  BAS[ATNO][  7].a[ 36] =         7.536210000000;     BAS[ATNO][  7].d[ 36] =         0.017141810859;
  BAS[ATNO][  7].a[ 37] =         2.160840000000;     BAS[ATNO][  7].d[ 37] =        -0.029289691096;
  BAS[ATNO][  7].a[ 38] =         1.130360000000;     BAS[ATNO][  7].d[ 38] =        -0.027027996618;
  BAS[ATNO][  7].a[ 39] =         0.566778000000;     BAS[ATNO][  7].d[ 39] =        -0.002026358629;
  BAS[ATNO][  7].a[ 40] =         0.271608000000;     BAS[ATNO][  7].d[ 40] =         0.051208169484;
  BAS[ATNO][  7].a[ 41] =         0.117769000000;     BAS[ATNO][  7].d[ 41] =         0.071625309213;
  BAS[ATNO][  7].a[ 42] =         0.049304000000;     BAS[ATNO][  7].d[ 42] =         0.027453681458;

  // Basis function   9 L = p
  InitBFNGauss(BAS[ATNO][  8]);
  BAS[ATNO][  8].l  = 1;
  BAS[ATNO][  8].ng = 43;
  BAS[ATNO][  8].a[  0] =        19.225900000000;     BAS[ATNO][  8].d[  0] =        -0.002467154711;
  BAS[ATNO][  8].a[  1] =        12.037800000000;     BAS[ATNO][  8].d[  1] =         0.026888045478;
  BAS[ATNO][  8].a[  2] =         7.536210000000;     BAS[ATNO][  8].d[  2] =        -0.064169087111;
  BAS[ATNO][  8].a[  3] =         2.160840000000;     BAS[ATNO][  8].d[  3] =         0.084418787881;
  BAS[ATNO][  8].a[  4] =         1.130360000000;     BAS[ATNO][  8].d[  4] =         0.076306138006;
  BAS[ATNO][  8].a[  5] =         0.566778000000;     BAS[ATNO][  8].d[  5] =         0.020543584246;
  BAS[ATNO][  8].a[  6] =         0.271608000000;     BAS[ATNO][  8].d[  6] =         0.001228994972;
  BAS[ATNO][  8].a[  7] =         0.117769000000;     BAS[ATNO][  8].d[  7] =         0.000157481205;
  BAS[ATNO][  8].a[  8] =         0.049304000000;     BAS[ATNO][  8].d[  8] =        -0.000024744872;
  BAS[ATNO][  8].a[  9] =        19.225900000000;     BAS[ATNO][  8].d[  9] =         0.003503476813;
  BAS[ATNO][  8].a[ 10] =        12.037800000000;     BAS[ATNO][  8].d[ 10] =        -0.038182301045;
  BAS[ATNO][  8].a[ 11] =         7.536210000000;     BAS[ATNO][  8].d[ 11] =         0.091123150020;
  BAS[ATNO][  8].a[ 12] =         2.160840000000;     BAS[ATNO][  8].d[ 12] =        -0.119878686435;
  BAS[ATNO][  8].a[ 13] =         1.130360000000;     BAS[ATNO][  8].d[ 13] =        -0.108358338478;
  BAS[ATNO][  8].a[ 14] =         0.566778000000;     BAS[ATNO][  8].d[ 14] =        -0.029172864903;
  BAS[ATNO][  8].a[ 15] =         0.271608000000;     BAS[ATNO][  8].d[ 15] =        -0.001745231204;
  BAS[ATNO][  8].a[ 16] =         0.117769000000;     BAS[ATNO][  8].d[ 16] =        -0.000223630788;
  BAS[ATNO][  8].a[ 17] =         0.049304000000;     BAS[ATNO][  8].d[ 17] =         0.000035138892;
  BAS[ATNO][  8].a[ 18] =        19.225900000000;     BAS[ATNO][  8].d[ 18] =        -0.061800212268;
  BAS[ATNO][  8].a[ 19] =        12.037800000000;     BAS[ATNO][  8].d[ 19] =         0.673523598184;
  BAS[ATNO][  8].a[ 20] =         7.536210000000;     BAS[ATNO][  8].d[ 20] =        -1.607383269215;
  BAS[ATNO][  8].a[ 21] =         2.160840000000;     BAS[ATNO][  8].d[ 21] =         2.114621749444;
  BAS[ATNO][  8].a[ 22] =         1.130360000000;     BAS[ATNO][  8].d[ 22] =         1.911406490129;
  BAS[ATNO][  8].a[ 23] =         0.566778000000;     BAS[ATNO][  8].d[ 23] =         0.514600021499;
  BAS[ATNO][  8].a[ 24] =         0.271608000000;     BAS[ATNO][  8].d[ 24] =         0.030785321163;
  BAS[ATNO][  8].a[ 25] =         0.117769000000;     BAS[ATNO][  8].d[ 25] =         0.003944775686;
  BAS[ATNO][  8].a[ 26] =         0.049304000000;     BAS[ATNO][  8].d[ 26] =        -0.000619838843;
  BAS[ATNO][  8].a[ 27] =        19.225900000000;     BAS[ATNO][  8].d[ 27] =         0.000695915838;
  BAS[ATNO][  8].a[ 28] =        12.037800000000;     BAS[ATNO][  8].d[ 28] =        -0.012437108568;
  BAS[ATNO][  8].a[ 29] =         7.536210000000;     BAS[ATNO][  8].d[ 29] =         0.033571000842;
  BAS[ATNO][  8].a[ 30] =         2.160840000000;     BAS[ATNO][  8].d[ 30] =        -0.057361748564;
  BAS[ATNO][  8].a[ 31] =         1.130360000000;     BAS[ATNO][  8].d[ 31] =        -0.052932382970;
  BAS[ATNO][  8].a[ 32] =         0.566778000000;     BAS[ATNO][  8].d[ 32] =        -0.003968477299;
  BAS[ATNO][  8].a[ 33] =         0.271608000000;     BAS[ATNO][  8].d[ 33] =         0.100287508418;
  BAS[ATNO][  8].a[ 34] =         0.117769000000;     BAS[ATNO][  8].d[ 34] =         0.140273004737;
  BAS[ATNO][  8].a[ 35] =         0.049304000000;     BAS[ATNO][  8].d[ 35] =         0.053766056043;
  BAS[ATNO][  8].a[ 36] =        19.225900000000;     BAS[ATNO][  8].d[ 36] =        -0.000988233527;
  BAS[ATNO][  8].a[ 37] =        12.037800000000;     BAS[ATNO][  8].d[ 37] =         0.017661284597;
  BAS[ATNO][  8].a[ 38] =         7.536210000000;     BAS[ATNO][  8].d[ 38] =        -0.047672414924;
  BAS[ATNO][  8].a[ 39] =         2.160840000000;     BAS[ATNO][  8].d[ 39] =         0.081456406117;
  BAS[ATNO][  8].a[ 40] =         1.130360000000;     BAS[ATNO][  8].d[ 40] =         0.075166496696;
  BAS[ATNO][  8].a[ 41] =         0.566778000000;     BAS[ATNO][  8].d[ 41] =         0.005635426161;
  BAS[ATNO][  8].a[ 42] =         0.271608000000;     BAS[ATNO][  8].d[ 42] =        -0.142413022939;

-------------------------------------------
RADIAL EXPECTATION VALUES <R**-3> TO <R**3>
-------------------------------------------
   0 :     0.000000     1.809367     1.292838     0.833270     0.748353     0.740868
   1 :     1.985861     1.455957     1.160103     0.929520     0.929302     0.998130
   2 :     1.985861     1.455957     1.160103     0.929520     0.929302     0.998130
   3 :     1.986202     1.456175     1.160210     0.929401     0.929030     0.997656
   4 :     0.000000     0.580496     0.681166     1.681573     3.110883     6.447114
   5 :     0.337391     0.377219     0.557931     2.025170     4.503483    11.194123
   6 :     0.000000     0.170896     0.348487     3.353372    12.347361    49.312396
   7 :     0.000000     0.051603     0.181722     6.494900    45.872115   343.580179
   8 :     0.000000     0.141985     0.279248     5.112591    32.617049   241.486254
   9 :     0.337391     0.377219     0.557931     2.025170     4.503483    11.194123
  10 :     0.338579     0.378212     0.558759     2.021874     4.489377    11.153215
  11 :     0.046223     0.081973     0.251182     4.495267    21.822348   112.884865
  12 :     0.046189     0.081920     0.251002     4.498526    21.847151   113.008881
  13 :     0.046189     0.081920     0.251002     4.498526    21.847151   113.008881
  14 :     0.015490     0.032438     0.149682     7.771262    65.324805   578.470864
  15 :     0.015490     0.032438     0.149682     7.771262    65.324805   578.470864
  16 :     0.015328     0.032317     0.149606     7.770967    65.317651   578.380818
  17 :     1.031780     0.424029     0.438612     3.761341    19.988884   136.030469
  18 :     1.031780     0.424029     0.438612     3.761341    19.988884   136.030469
  19 :     1.030379     0.422886     0.437573     3.768310    20.035218   136.285912
  20 :     0.000000    16.801517     3.380358     0.406424     0.314437     0.804387
Making the total density                ... o.k.
o.k.
Initializing the integrals              ... done
Making exponents                        ... done
Making rho(0)                           ... done (         0.022575208)
Integral calculation                    ... Two index integrals                     ... done
Solving the equation system             ... done
atomic density will be written to file 83_Bi_atom83.adf

-------
TIMINGS
-------

Total SCF time: 0 days 0 hours 0 min 0 sec 

Total time                  ....       0.607 sec
Sum of individual times     ....       0.212 sec  ( 35.0%)

Fock matrix formation       ....       0.145 sec  ( 23.8%)
Diagonalization             ....       0.029 sec  (  4.8%)
Density matrix formation    ....       0.000 sec  (  0.0%)
Population analysis         ....       0.000 sec  (  0.0%)
Initial guess               ....       0.000 sec  (  0.0%)
Orbital Transformation      ....       0.000 sec  (  0.0%)
Orbital Orthonormalization  ....       0.000 sec  (  0.0%)
DIIS solution               ....       0.038 sec  (  6.3%)

-------------------------   --------------------
FINAL SINGLE POINT ENERGY      -191.554681367100
-------------------------   --------------------


                            ***************************************
                            *     ORCA property calculations      *
                            ***************************************

                                    ---------------------
                                    Active property flags
                                    ---------------------
   (+) Dipole Moment


------------------------------------------------------------------------------
                       ORCA ELECTRIC PROPERTIES CALCULATION
------------------------------------------------------------------------------

Dipole Moment Calculation                       ... on
Quadrupole Moment Calculation                   ... off
Polarizability Calculation                      ... off
GBWName                                         ... 83_Bi_atom83.gbw
Electron density file                           ... 83_Bi_atom83.scfp
The origin for moment calculation is the CENTER OF MASS  = ( 0.000000,  0.000000  0.000000)

-------------
DIPOLE MOMENT
-------------
                                X             Y             Z
Electronic contribution:      0.00000      -0.00000       0.00000
Nuclear contribution   :      0.00000       0.00000       0.00000
                        -----------------------------------------
Total Dipole Moment    :      0.00000      -0.00000       0.00000
                        -----------------------------------------
Magnitude (a.u.)       :      0.00000
Magnitude (Debye)      :      0.00000



--------------------
Rotational spectrum 
--------------------
 
Rotational constants in cm-1:     0.000000     0.000000     0.000000 
Rotational constants in MHz :     0.000000     0.000000     0.000000 

 Dipole components along the rotational axes: 
x,y,z [a.u.] :     0.000000    -0.000000     0.000000 
x,y,z [Debye]:     0.000000    -0.000000     0.000000 

 

Timings for individual modules:

Sum of individual times         ...        0.929 sec (=   0.015 min)
GTO integral calculation        ...        0.298 sec (=   0.005 min)  32.1 %
SCF iterations                  ...        0.631 sec (=   0.011 min)  67.9 %
                             ****ORCA TERMINATED NORMALLY****
TOTAL RUN TIME: 0 days 0 hours 0 minutes 1 seconds 151 msec
