
                                 *****************
                                 * O   R   C   A *
                                 *****************

           --- An Ab Initio, DFT and Semiempirical electronic structure package ---

                  #######################################################
                  #                        -***-                        #
                  #          Department of theory and spectroscopy      #
                  #               Directorship: Frank Neese             #
                  #        Max Planck Institute fuer Kohlenforschung    #
                  #                Kaiser Wilhelm Platz 1               #
                  #                 D-45470 Muelheim/Ruhr               #
                  #                      Germany                        #
                  #                                                     #
                  #                  All rights reserved                #
                  #                        -***-                        #
                  #######################################################


                         Program Version 4.2.0 -  RELEASE  -


 With contributions from (in alphabetic order):
   Daniel Aravena         : Magnetic Suceptibility
   Michael Atanasov       : Ab Initio Ligand Field Theory (pilot matlab implementation)
   Alexander A. Auer      : GIAO ZORA, VPT2
   Ute Becker             : Parallelization
   Giovanni Bistoni       : ED, misc. LED, open-shell LED, HFLED
   Martin Brehm           : Molecular dynamics
   Dmytro Bykov           : SCF Hessian
   Vijay G. Chilkuri      : MRCI spin determinant printing, contributions to CSF-ICE
   Dipayan Datta          : RHF DLPNO-CCSD density
   Achintya Kumar Dutta   : EOM-CC, STEOM-CC
   Dmitry Ganyushin       : Spin-Orbit,Spin-Spin,Magnetic field MRCI
   Miquel Garcia          : C-PCM Hessian, Gaussian charge scheme
   Yang Guo               : DLPNO-NEVPT2, CIM, IAO-localization
   Andreas Hansen         : Spin unrestricted coupled pair/coupled cluster methods
   Benjamin Helmich-Paris : CASSCF linear response (MC-RPA)
   Lee Huntington         : MR-EOM, pCC
   Robert Izsak           : Overlap fitted RIJCOSX, COSX-SCS-MP3, EOM
   Christian Kollmar      : KDIIS, OOCD, Brueckner-CCSD(T), CCSD density
   Simone Kossmann        : Meta GGA functionals, TD-DFT gradient, OOMP2, MP2 Hessian
   Martin Krupicka        : AUTO-CI
   Lucas Lang             : DCDCAS
   Dagmar Lenk            : GEPOL surface, SMD
   Dimitrios Liakos       : Extrapolation schemes; Compound Job, initial MDCI parallelization
   Dimitrios Manganas     : Further ROCIS development; embedding schemes
   Dimitrios Pantazis     : SARC Basis sets
   Taras Petrenko         : DFT Hessian,TD-DFT gradient, ASA, ECA, R-Raman, ABS, FL, XAS/XES, NRVS
   Peter Pinski           : DLPNO-MP2, DLPNO-MP2 Gradient
   Christoph Reimann      : Effective Core Potentials
   Marius Retegan         : Local ZFS, SOC
   Christoph Riplinger    : Optimizer, TS searches, QM/MM, DLPNO-CCSD(T), (RO)-DLPNO pert. Triples
   Tobias Risthaus        : Range-separated hybrids, TD-DFT gradient, RPA, STAB
   Michael Roemelt        : Original ROCIS implementation
   Masaaki Saitow         : Open-shell DLPNO-CCSD energy and density
   Barbara Sandhoefer     : DKH picture change effects
   Avijit Sen             : IP-ROCIS
   Kantharuban Sivalingam : CASSCF convergence, NEVPT2, FIC-MRCI
   Bernardo de Souza      : ESD, SOC TD-DFT
   Georgi Stoychev        : AutoAux, RI-MP2 NMR
   Willem Van den Heuvel  : Paramagnetic NMR
   Boris Wezisla          : Elementary symmetry handling
   Frank Wennmohs         : Technical directorship


 We gratefully acknowledge several colleagues who have allowed us to
 interface, adapt or use parts of their codes:
   Stefan Grimme, W. Hujo, H. Kruse,             : VdW corrections, initial TS optimization,
                  C. Bannwarth                     DFT functionals, gCP, sTDA/sTD-DF
   Ed Valeev, F. Pavosevic, A. Kumar             : LibInt (2-el integral package), F12 methods
   Garnet Chan, S. Sharma, J. Yang, R. Olivares  : DMRG
   Ulf Ekstrom                                   : XCFun DFT Library
   Mihaly Kallay                                 : mrcc  (arbitrary order and MRCC methods)
   Andreas Klamt, Michael Diedenhofen            : otool_cosmo (COSMO solvation model)
   Jiri Pittner, Ondrej Demel                    : Mk-CCSD
   Frank Weinhold                                : gennbo (NPA and NBO analysis)
   Christopher J. Cramer and Donald G. Truhlar   : smd solvation model
   Lars Goerigk                                  : TD-DFT with DH, B97 family of functionals
   V. Asgeirsson, H. Jonsson                     : NEB implementation
   FAccTs GmbH                                   : IRC, NEB, NEB-TS, Multilevel, MM, QM/MM, CI optimization
   S Lehtola, MJT Oliveira, MAL Marques          : LibXC Library


 Your calculation uses the libint2 library for the computation of 2-el integrals
 For citations please refer to: http://libint.valeyev.net

 Your ORCA version has been built with support for libXC version: 4.2.3
 For citations please refer to: https://tddft.org/programs/libxc/

 This ORCA versions uses:
   CBLAS   interface :  Fast vector & matrix operations
   LAPACKE interface :  Fast linear algebra routines
   SCALAPACK package :  Parallel linear algebra routines


----- Orbital basis set information -----
Your calculation utilizes the basis: def2-SVP
   F. Weigend and R. Ahlrichs, Phys. Chem. Chem. Phys. 7, 3297 (2005).

----- AuxJ basis set information -----
Your calculation utilizes the auxiliary basis: def2/J
   F. Weigend, Phys. Chem. Chem. Phys. 8, 1057 (2006).

================================================================================
                                        WARNINGS
                       Please study these warnings very carefully!
================================================================================


INFO   : the flag for use of LIBINT has been found!

================================================================================
                                       INPUT FILE
================================================================================
NAME = 85_At_atom85.inp
|  1> # input to generate an atomic fitting density for At
|  2> # this file is use internally by ORCA
|  3> #
|  4> # atomic ground state (S=2): 1s2 2s2 2p6 3s2 3p6 4s2 3d10 4p6 5s2 4d10 5p6 6s2 4f14 5d10 6p5 
|  5> #
|  6> ! RHF AllowRHF def2-SVP def2/J  NoMulliken NoLoewdin NoMayer NoPrintMOs 
|  7> 
|  8> %output print[p_atomdensfit] 2 end
|  9> 
| 10> %scf
| 11>   guess hcore
| 12>   maxiter 1000
| 13>   maxdisk 500000
| 14>   SCFMode Conventional
| 15>   lshift 1.000000
| 16>   hftyp rohf
| 17>   rohf_case sahf
| 18>   rohf_numop   2
| 19>   rohf_norb[1] 3
| 20>   rohf_nel[1]  5
| 21> end
| 22> 
| 23> %basis
| 24>   NewECP 85
| 25>     N_core 60
| 26>     lmax h
| 27>     s 3
| 28>       1      30.2008320000     49.9571580000  2
| 29>       2      13.6123060000    283.2103710000  2
| 30>       3       8.5293400000     62.2810520000  2
| 31>     p 4
| 32>       1      10.8540650000     71.9823710000  2
| 33>       2       9.4682290000    143.9035320000  2
| 34>       3       7.0311140000      4.8717590000  2
| 35>       4       6.1438580000      8.9830590000  2
| 36>     d 4
| 37>       1       8.3135150000     36.3632370000  2
| 38>       2       7.9989650000     54.5489700000  2
| 39>       3       5.1799660000      9.7762850000  2
| 40>       4       4.9422260000     14.2647550000  2
| 41>     f 4
| 42>       1       5.8121630000     19.8701980000  2
| 43>       2       5.7537150000     26.4164520000  2
| 44>       3       2.5134720000      0.9949700000  2
| 45>       4       2.5362610000      1.4907010000  2
| 46>     g 4
| 47>       1       9.8957780000    -22.2232030000  2
| 48>       2       9.7373340000    -26.7154760000  2
| 49>       3       3.0133310000     -0.3730440000  2
| 50>       4       3.0977630000     -0.4859460000  2
| 51>     h 1
| 52>       1       1.0000000000      0.0000000000  2
| 53>   end
| 54>   NewGTO 85
| 55>     s 9 
| 56>      1    2405.3100000000      0.0001732522
| 57>      2     365.5650000000      0.0008346678
| 58>      3      41.9062000000      0.0229171861
| 59>      4      26.2026000000     -0.1606720278
| 60>      5      16.3915000000      0.4615631548
| 61>      6       7.0834100000     -1.0107154748
| 62>      7       2.0331300000      0.9401519027
| 63>      8       1.0700700000      0.5149074992
| 64>      9       0.0818330000      0.0013737878
| 65>     s 9 
| 66>      1    2405.3100000000     -0.0000972957
| 67>      2     365.5650000000     -0.0005849608
| 68>      3      41.9062000000     -0.0064096519
| 69>      4      26.2026000000      0.0630879659
| 70>      5      16.3915000000     -0.2239510070
| 71>      6       7.0834100000      0.5929426358
| 72>      7       2.0331300000     -0.8391126620
| 73>      8       1.0700700000     -0.5146611133
| 74>      9       0.0818330000      0.1619736360
| 75>     s 1 
| 76>      1       0.3760710000      1.0000000000
| 77>     s 1 
| 78>      1       0.1794470000      1.0000000000
| 79>     s 1 
| 80>      1       0.0966000000      1.0000000000
| 81>     s 1 
| 82>      1       0.0384000000      1.0000000000
| 83>     p 9 
| 84>      1      20.2970000000     -0.0118100018
| 85>      2      12.7312000000      0.1669480251
| 86>      3       8.0003400000     -0.4251720640
| 87>      4       2.4479600000      0.5371220809
| 88>      5       1.3108200000      0.5267320793
| 89>      6       0.6458650000      0.1326450200
| 90>      7       0.3337580000      0.0045660007
| 91>      8       0.1461660000      0.0028370004
| 92>      9       0.0608710000     -0.0000470000
| 93>     p 9 
| 94>      1      20.2970000000      0.0010179999
| 95>      2      12.7312000000     -0.0512499952
| 96>      3       8.0003400000      0.1534749856
| 97>      4       2.4479600000     -0.2616099754
| 98>      5       1.3108200000     -0.2555449760
| 99>      6       0.6458650000      0.0133139987
|100>      7       0.3337580000      0.4434769583
|101>      8       0.1461660000      0.5252819506
|102>      9       0.0608710000      0.1879619823
|103>     p 1 
|104>      1       0.5686000000      1.0000000000
|105>     p 1 
|106>      1       0.0929000000      1.0000000000
|107>     p 1 
|108>      1       0.0368000000      1.0000000000
|109>   end
|110>   NewAuxGTO 85
|111>     S 1
|112>      1 1310.72 1.0
|113>     S 1
|114>      1  655.36 1.0
|115>     S 1
|116>      1  327.68 1.0
|117>     S 1
|118>      1  163.84 1.0
|119>     S 1
|120>      1   81.82 1.0
|121>     S 1
|122>      1   40.96 1.0
|123>     S 1
|124>      1   20.48 1.0
|125>     S 1
|126>      1   10.24 1.0
|127>     S 1
|128>      1    5.12 1.0
|129>     S 1
|130>      1    2.56 1.0
|131>     S 1
|132>      1    1.28 1.0
|133>     S 1
|134>      1    0.64 1.0
|135>     S 1
|136>      1    0.32 1.0
|137>     S 1
|138>      1    0.16 1.0
|139>     S 1
|140>      1    0.08 1.0
|141>     S 1
|142>      1    0.04 1.0
|143>     S 1
|144>      1    0.02 1.0
|145>     S 1
|146>      1    0.01 1.0
|147>   end
|148> end
|149> 
|150> * xyz 0 2
|151> 85  0.0 0.0 0.0
|152> *
|153> 
|154> 
|155>                          ****END OF INPUT****
================================================================================

                       ****************************
                       * Single Point Calculation *
                       ****************************

---------------------------------
CARTESIAN COORDINATES (ANGSTROEM)
---------------------------------
  At     0.000000    0.000000    0.000000

----------------------------
CARTESIAN COORDINATES (A.U.)
----------------------------
  NO LB      ZA    FRAG     MASS         X           Y           Z
   0 At   25.0000*   0   210.000    0.000000    0.000000    0.000000
* core charge reduced due to ECP

--------------------------------
INTERNAL COORDINATES (ANGSTROEM)
--------------------------------
 At     0   0   0     0.000000000000     0.00000000     0.00000000

---------------------------
INTERNAL COORDINATES (A.U.)
---------------------------
 At     0   0   0     0.000000000000     0.00000000     0.00000000

---------------------
BASIS SET INFORMATION
---------------------
There are 1 groups of distinct atoms

 Group   1 Type At  : 22s21p contracted to 6s5p pattern {991111/99111}

Atom   0At   basis set group =>   1
---------------------------------
AUXILIARY/J BASIS SET INFORMATION
---------------------------------
There are 1 groups of distinct atoms

 Group   1 Type At  : 18s contracted to 18s pattern {111111111111111111}

Atom   0At   basis set group =>   1
-------------------------
ECP PARAMETER INFORMATION
-------------------------

 Group 1, Type At ECP (replacing 60 core electrons, lmax=5)

Atom   0At   ECP group =>   1

------------------------------------------------------------------------------
                           ORCA GTO INTEGRAL CALCULATION
------------------------------------------------------------------------------

                         BASIS SET STATISTICS AND STARTUP INFO

 # of primitive gaussian shells          ...   43
 # of primitive gaussian functions       ...   85
 # of contracted shells                  ...   11
 # of contracted basis functions         ...   21
 Highest angular momentum                ...    1
 Maximum contraction depth               ...    9
 Integral package used                   ... LIBINT
 Integral threshhold            Thresh   ...  1.000e-10
 Primitive cut-off              TCut     ...  1.000e-11
 Storage cut-off                TCutStore... -1.000e+00
 Buffer length                           ... 1048576 integrals/buffer
 Generate file with integrals 4 distinct ...false


------------------------------ INTEGRAL EVALUATION ----------------------------


 * One electron integrals 

   ECP integrals                         ... done
 Pre-screening matrix                    ... done
 Shell pair data                         ... done (   0.000 sec)
 Statistics run                          ... done
 Maximum amount of storage needed        ...     0 MB
 Maximum amount of storage dedicated     ... 500000 MB
 Beginning two electron integral evaluation:
 Starting repulsion integrals
  <ss|ss>  ...          231 b.         0 skpd (  0.0%)     0.001 s. (  0.003 ms/b)
  <ss|sp>  ...          630 b.         0 skpd (  0.0%)     0.003 s. (  0.005 ms/b)
  <ss|pp>  ...          315 b.         0 skpd (  0.0%)     0.009 s. (  0.027 ms/b)
  <sp|sp>  ...          465 b.         0 skpd (  0.0%)     0.009 s. (  0.020 ms/b)
  <sp|pp>  ...          450 b.         0 skpd (  0.0%)     0.017 s. (  0.039 ms/b)
  <pp|pp>  ...          120 b.         0 skpd (  0.0%)     0.016 s. (  0.133 ms/b)


                                      INTEGRAL STATISTICS

Integral type statistics:
 Number of integrals retained            ...      26796 
 One   Center Integrals retained         ...      26796 (100.0%)
 Two   Center Integrals retained         ...          0 (  0.0%)
 Three Center Integrals retained         ...          0 (  0.0%)
 Four  Center Integrals retained         ...          0 (  0.0%)

Storage statistics:
 Number of char integrals                ...          0 (  0.0%)
 Number of short int integrals           ...          0 (  0.0%)
 Number of double/float integrals        ...      26796 (100.0%)
 Amount of memory used                   ...          0 MB
 Amount of memory estimated              ...          0 MB ( 95.2%)

Prescreening statistics:
 Total number of shell quadruples        ...       2211 
 Number of skipped shell quadruples      ...          0 (  0.0%)
 # of negligible batches done            ...          0 (  0.0%)

Timings:
 Total evaluation time               ...     0.228 sec (   0.004 min)
 One electron matrix time            ...     0.014 sec (   0.000 min) =  6.3%
 Schwartz matrix evaluation time     ...     0.083 sec (   0.001 min) = 36.5%
 Statistics run                      ...     0.000 sec (   0.000 min) =  0.1%
 Repulsion integral time             ...     0.055 sec (   0.001 min) = 24.1%

-------------------------------------------------------------------------------
                                 ORCA SCF
-------------------------------------------------------------------------------

------------
SCF SETTINGS
------------
Hamiltonian:
 Ab initio Hamiltonian  Method          .... Hartree-Fock(GTOs)


General Settings:
 Integral files         IntName         .... 85_At_atom85
 Hartree-Fock type      HFTyp           .... ROHF
 Total Charge           Charge          ....    0
 Multiplicity           Mult            ....    2
 Number of Electrons    NEL             ....   25
 Basis Dimension        Dim             ....   21
 Nuclear Repulsion      ENuc            ....      0.0000000000 Eh

Convergence Acceleration:
 DIIS                   CNVDIIS         .... on
   Start iteration      DIISMaxIt       ....    12
   Startup error        DIISStart       ....  0.200000
   # of expansion vecs  DIISMaxEq       ....     5
   Bias factor          DIISBfac        ....   1.050
   Max. coefficient     DIISMaxC        ....  10.000
 Newton-Raphson         CNVNR           .... off
 SOSCF                  CNVSOSCF        .... off
 Level Shifting         CNVShift        .... on
   Level shift para.    LevelShift      ....    1.0000
   Turn off err/grad.   ShiftErr        ....    0.0010
 Zerner damping         CNVZerner       .... off
 Static damping         CNVDamp         .... on
   Fraction old density DampFac         ....    0.7000
   Max. Damping (<1)    DampMax         ....    0.9800
   Min. Damping (>=0)   DampMin         ....    0.0000
   Turn off err/grad.   DampErr         ....    0.1000
 Fernandez-Rico         CNVRico         .... off

SCF Procedure:
 Maximum # iterations   MaxIter         ....  1000
 SCF integral mode      SCFMode         .... Conventional
 Integral Threshold     Thresh          ....  1.000e-10 Eh
 Primitive CutOff       TCut            ....  1.000e-11 Eh
 Integral Buffer length BufferLength    .... 1048576
 Integral index format  IndFormat       ....     0
 Integral value format  ValFormat       ....     0
 Integral Storage       Thresh          ....  1.000e-10 Eh

Convergence Tolerance:
 Convergence Check Mode ConvCheckMode   .... Total+1el-Energy
 Convergence forced     ConvForced      .... 0
 Energy Change          TolE            ....  1.000e-06 Eh
 1-El. energy change                    ....  1.000e-03 Eh
 DIIS Error             TolErr          ....  1.000e-06


Diagonalization of the overlap matrix:
Smallest eigenvalue                        ... 3.375e-03
Time for diagonalization                   ...    0.000 sec
Threshold for overlap eigenvalues          ... 1.000e-08
Number of eigenvalues below threshold      ... 0
Time for construction of square roots      ...    0.003 sec
Total time needed                          ...    0.003 sec

--------------------
INITIAL GUESS: HCORE
--------------------
AVERAGE-CONFIGURATION (SAHF) CASE FOUND

-------------------
FINAL ROHF SETTINGS
-------------------
Number of operators             ... 2
  operator   0:  10 orbitals  20 electrons n(mue)= 2.000
  operator   1:   3 orbitals   5 electrons n(mue)= 1.667
Vector coupling coefficients a and b (Zerner convention):
   1.000    1.000           1.000    1.000 
   1.000    0.960           1.000    0.960 

                      -----------------
                      INTIAL GUESS DONE 
                      -----------------

 InCore treatment chosen:
   Memory dedicated               ...    1024 MB
   Memory needed                  ...      0 MB
   Number of tiny    integrals    ...       0
   Number of small   integrals    ...       0
   Number of regular integrals    ...   26796

--------------
SCF ITERATIONS
--------------
ITER       Energy         Delta-E        Max-DP      RMS-DP      [F,P]     Damp
  0   -223.5211028305   0.000000000000 3.62329587  0.36988230  1.5897438 0.7000
  1   -227.1182162086  -3.597113378096 6.07685993  0.45797659  0.7070642 0.7000
  2   -228.2979024087  -1.179686200087 7.63399849  0.50530183  0.2650646 0.7000
                            ****Activating DIIS****
  3   -228.9521297671  -0.65422735843810.03364030  0.60633987  0.1316395 0.7000
  4   -229.4499042502  -0.49777448303736.93417758  2.11508059  0.0953429 0.0000
  5   -230.5308282513  -1.080924001157 5.62410367  0.42935048  0.0387198 0.0000
  6   -230.5431404049  -0.012312153618 0.50276639  0.03018208  0.0480809 0.0000
  7   -230.5519835159  -0.008843110996 1.51902054  0.11346694  0.0343884 0.0000
  8   -230.5696048436  -0.017621327691 0.80411143  0.06158759  0.0240006 0.0000
  9   -230.5761568753  -0.006552031685 0.70099457  0.05999505  0.0213054 0.0000
 10   -230.5813532160  -0.005196340716 0.46512311  0.04229880  0.0169352 0.0000
 11   -230.5837392171  -0.002386001041 0.23402772  0.01992406  0.0133216 0.0000
 12   -230.5848012118  -0.001061994704 0.24067946  0.01830336  0.0112823 0.0000
 13   -230.5856337133  -0.000832501494 0.31987547  0.02529988  0.0093327 0.0000
 14   -230.5864780391  -0.000844325875 0.16321893  0.01383148  0.0064547 0.0000
 15   -230.5868210439  -0.000343004794 0.09092798  0.00718277  0.0049214 0.0000
 16   -230.5869604148  -0.000139370917 0.13987209  0.01082298  0.0043565 0.0000
 17   -230.5871253851  -0.000164970289 0.28809171  0.02216731  0.0035513 0.0000
 18   -230.5873182814  -0.000192896269 0.13842833  0.01139723  0.0017311 0.0000
 19   -230.5873583003  -0.000040018891 0.06570869  0.00445700  0.0015792 0.0000
 20   -230.5873784933  -0.000020193055 0.06111134  0.00463021  0.0007886 0.0000
 21   -230.5873887982  -0.000010304889 0.03332175  0.00244032  0.0003877 0.0000
 22   -230.5873915711  -0.000002772898 0.01461086  0.00116855  0.0005031 0.0000
                 **** Energy Check signals convergence ****

               *****************************************************
               *                     SUCCESS                       *
               *           SCF CONVERGED AFTER  23 CYCLES          *
               *****************************************************


----------------
TOTAL SCF ENERGY
----------------

Total Energy       :         -230.58739245 Eh           -6274.60194 eV

Components:
Nuclear Repulsion  :            0.00000000 Eh               0.00000 eV
Electronic Energy  :         -230.58739245 Eh           -6274.60194 eV
One Electron Energy:         -357.30806842 Eh           -9722.84684 eV
Two Electron Energy:          126.72067597 Eh            3448.24490 eV

Virial components:
Potential Energy   :         -288.02385170 Eh           -7837.52746 eV
Kinetic Energy     :           57.43645925 Eh            1562.92551 eV
Virial Ratio       :            5.01465194


---------------
SCF CONVERGENCE
---------------

  Last Energy change         ...   -8.7455e-07  Tolerance :   1.0000e-06
  Last MAX-Density change    ...    7.7899e-03  Tolerance :   1.0000e-05
  Last RMS-Density change    ...    6.8924e-04  Tolerance :   1.0000e-06
  Last DIIS Error            ...    3.5431e-04  Tolerance :   1.0000e-06

             **** THE GBW FILE WAS UPDATED (85_At_atom85.gbw) ****
             **** DENSITY FILE WAS UPDATED (85_At_atom85.scfp) ****
             **** ENERGY FILE WAS UPDATED (85_At_atom85.en.tmp) ****
             **** THE GBW FILE WAS UPDATED (85_At_atom85.gbw) ****
             **** DENSITY FILE WAS UPDATED (85_At_atom85.scfp) ****
----------------
ORBITAL ENERGIES
----------------

  NO   OCC          E(Eh)            E(eV) 
   0   2.0000     -12.284843      -334.2876 
   1   2.0000      -9.188521      -250.0324 
   2   2.0000      -9.188521      -250.0324 
   3   2.0000      -9.186319      -249.9724 
   4   2.0000      -3.460937       -94.1769 
   5   2.0000      -2.269619       -61.7595 
   6   2.0000      -2.269619       -61.7595 
   7   2.0000      -2.264305       -61.6149 
   8   2.0000      -0.757235       -20.6054 
   9   2.0000      -0.366348        -9.9688 
  10   1.6667      -0.372267       -10.1299 
  11   1.6667      -0.372267       -10.1299 
  12   1.6667      -0.092651        -2.5212 
  13   0.0000       0.064046         1.7428 
  14   0.0000       0.064046         1.7428 
  15   0.0000       0.068327         1.8593 
  16   0.0000       0.376883        10.2555 
  17   0.0000       2.978843        81.0584 
  18   0.0000       2.978843        81.0584 
  19   0.0000       2.984534        81.2133 
  20   0.0000      55.771581      1517.6219 
CleanUpVectors: The p-vectors have cracked symmetry
CleanUpVectors: The p-vectors have cracked symmetry
CleanUpVectors: The p-vectors have cracked symmetry
CleanUpVectors: The p-vectors have cracked symmetry
CleanUpVectors: The p-vectors have cracked symmetry
CleanUpVectors: The p-vectors have cracked symmetry
CleanUpVectors: The p-vectors have cracked symmetry
CleanUpVectors: The p-vectors have cracked symmetry
CleanUpVectors: The p-vectors have cracked symmetry
CleanUpVectors: The p-vectors have cracked symmetry
CleanUpVectors: The p-vectors have cracked symmetry
CleanUpVectors: The p-vectors have cracked symmetry
CleanUpVectors: The p-vectors have cracked symmetry
CleanUpVectors: The p-vectors have cracked symmetry
--------------------------
ATOM BASIS FOR ELEMENT At
--------------------------
 NewGTO At
 S 22
    1       2405.310000000000        -0.000162834540
    2        365.565000000000        -0.000784479199
    3         41.906200000000        -0.021539174969
    4         26.202600000000         0.151010813642
    5         16.391500000000        -0.433809347574
    6          7.083410000000         0.949941121050
    7          2.033130000000        -0.883620538792
    8          1.070070000000        -0.483946094843
    9          0.081833000000        -0.001291181896
   10       2405.310000000000        -0.000016210057
   11        365.565000000000        -0.000097458034
   12         41.906200000000        -0.001067887065
   13         26.202600000000         0.010510839555
   14         16.391500000000        -0.037311602447
   15          7.083410000000         0.098787856314
   16          2.033130000000        -0.139801282755
   17          1.070070000000        -0.085745677645
   18          0.081833000000         0.026985794770
   19          0.376071000000         0.271335611914
   20          0.179447000000        -0.267246402254
   21          0.096600000000         0.120933088387
   22          0.038400000000        -0.031881180250
 P 43
    1         20.297000000000        -0.000451332401
    2         12.731200000000         0.006380105119
    3          8.000340000000        -0.016248424983
    4          2.447960000000         0.020526719832
    5          1.310820000000         0.020129654324
    6          0.645865000000         0.005069177492
    7          0.333758000000         0.000174494813
    8          0.146166000000         0.000108419137
    9         20.297000000000        -0.000201526699
   10         12.731200000000         0.002848812806
   11          8.000340000000        -0.007255165911
   12          2.447960000000         0.009165488849
   13          1.310820000000         0.008988193133
   14          0.645865000000         0.002263463922
   15          0.333758000000         0.000077914556
   16          0.146166000000         0.000048410774
   17         20.297000000000         0.013688714140
   18         12.731200000000        -0.193505795384
   19          8.000340000000         0.492807617042
   20          2.447960000000        -0.622566427010
   21          1.310820000000        -0.610523603967
   22          0.645865000000        -0.153745934302
   23          0.333758000000        -0.005292351297
   24          0.146166000000        -0.003288304959
   25          0.060871000000         0.000054476669
   26         20.297000000000         0.000001202735
   27         12.731200000000        -0.000060550281
   28          8.000340000000         0.000181325938
   29          2.447960000000        -0.000309084077
   30          1.310820000000        -0.000301918468
   31          0.645865000000         0.000015730077
   32          0.333758000000         0.000523954280
   33          0.146166000000         0.000620604343
   34          0.060871000000         0.000222071256
   35         20.297000000000         0.000000537039
   36         12.731200000000        -0.000027036610
   37          8.000340000000         0.000080964756
   38          2.447960000000        -0.000138010685
   39          1.310820000000        -0.000134811133
   40          0.645865000000         0.000007023716
   41          0.333758000000         0.000233953459
   42          0.146166000000         0.000277109164
   43          0.060871000000         0.000099158153
 S 22
    1       2405.310000000000         0.000054139737
    2        365.565000000000         0.000260826096
    3         41.906200000000         0.007161412207
    4         26.202600000000        -0.050208547252
    5         16.391500000000         0.144234287603
    6          7.083410000000        -0.315839392641
    7          2.033130000000         0.293788918190
    8          1.070070000000         0.160903910021
    9          0.081833000000         0.000429296192
   10       2405.310000000000        -0.000161690130
   11        365.565000000000        -0.000972112723
   12         41.906200000000        -0.010651831993
   13         26.202600000000         0.104842263515
   14         16.391500000000        -0.372171303282
   15          7.083410000000         0.985377277349
   16          2.033130000000        -1.394473091237
   17          1.070070000000        -0.855285715618
   18          0.081833000000         0.269174673581
   19          0.376071000000         2.588594285421
   20          0.179447000000        -1.463798014189
   21          0.096600000000         0.511177546242
   22          0.038400000000        -0.184266035206
 P 43
    1         20.297000000000        -0.000192196259
    2         12.731200000000         0.002716916256
    3          8.000340000000        -0.006919260600
    4          2.447960000000         0.008741137921
    5          1.310820000000         0.008572050780
    6          0.645865000000         0.002158668309
    7          0.333758000000         0.000074307207
    8          0.146166000000         0.000046169414
    9         20.297000000000        -0.000134026687
   10         12.731200000000         0.001894622124
   11          8.000340000000        -0.004825096905
   12          2.447960000000         0.006095570028
   13          1.310820000000         0.005977658319
   14          0.645865000000         0.001505331911
   15          0.333758000000         0.000051817600
   16          0.146166000000         0.000032195911
   17         20.297000000000         0.004862333949
   18         12.731200000000        -0.068734710114
   19          8.000340000000         0.175048962396
   20          2.447960000000        -0.221140265089
   21          1.310820000000        -0.216862564004
   22          0.645865000000        -0.054611709197
   23          0.333758000000        -0.001879882882
   24          0.146166000000        -0.001168030589
   25          0.060871000000         0.000019350522
   26         20.297000000000        -0.000041662842
   27         12.731200000000         0.002097466264
   28          8.000340000000        -0.006281144095
   29          2.447960000000         0.010706695594
   30          1.310820000000         0.010458478369
   31          0.645865000000        -0.000544891039
   32          0.333758000000        -0.018149815535
   33          0.146166000000        -0.021497780953
   34          0.060871000000        -0.007692564952
   35         20.297000000000        -0.000029053285
   36         12.731200000000         0.001462653102
   37          8.000340000000        -0.004380110923
   38          2.447960000000         0.007466237617
   39          1.310820000000         0.007293145110
   40          0.645865000000        -0.000379975870
   41          0.333758000000        -0.012656644088
   42          0.146166000000        -0.014991323834
   43          0.060871000000        -0.005364355166
 S 22
    1       2405.310000000000         0.000092036727
    2        365.565000000000         0.000443400387
    3         41.906200000000         0.012174291609
    4         26.202600000000        -0.085353765129
    5         16.391500000000         0.245196090735
    6          7.083410000000        -0.536922153964
    7          2.033130000000         0.499436683456
    8          1.070070000000         0.273534194792
    9          0.081833000000         0.000729796983
   10       2405.310000000000        -0.000136138897
   11        365.565000000000        -0.000818493706
   12         41.906200000000        -0.008968566332
   13         26.202600000000         0.088274467276
   14         16.391500000000        -0.313358586804
   15          7.083410000000         0.829662116278
   16          2.033130000000        -1.174110183545
   17          1.070070000000        -0.720128394631
   18          0.081833000000         0.226638095343
   19          0.376071000000         5.476626301167
   20          0.179447000000       -11.889762895911
   21          0.096600000000         9.641648141385
   22          0.038400000000        -2.737682775593
 P 43
    1         20.297000000000         0.002207335605
    2         12.731200000000        -0.031203239952
    3          8.000340000000         0.079466324481
    4          2.447960000000        -0.100390221232
    5          1.310820000000        -0.098448289228
    6          0.645865000000        -0.024791873909
    7          0.333758000000        -0.000853403419
    8          0.146166000000        -0.000530246489
    9          0.060871000000         0.000008784484
   10         20.297000000000         0.004333836019
   11         12.731200000000        -0.061263781044
   12          8.000340000000         0.156022499933
   13          2.447960000000        -0.197104036052
   14          1.310820000000        -0.193291287847
   15          0.645865000000        -0.048675840622
   16          0.333758000000        -0.001675554215
   17          0.146166000000        -0.001041074737
   18          0.060871000000         0.000017247270
   19         20.297000000000         0.000206709646
   20         12.731200000000        -0.002922079755
   21          8.000340000000         0.007441757275
   22          2.447960000000        -0.009401210690
   23          1.310820000000        -0.009219355210
   24          0.645865000000        -0.002321676625
   25          0.333758000000        -0.000079918395
   26          0.146166000000        -0.000049655822
   27         20.297000000000         0.000478489409
   28         12.731200000000        -0.024088980658
   29          8.000340000000         0.072137684018
   30          2.447960000000        -0.122964258100
   31          1.310820000000        -0.120113532892
   32          0.645865000000         0.006257964628
   33          0.333758000000         0.208447002369
   34          0.146166000000         0.246897715770
   35          0.060871000000         0.088347570345
   36         20.297000000000         0.000939455980
   37         12.731200000000        -0.047295794888
   38          8.000340000000         0.141633602325
   39          2.447960000000        -0.241425422359
   40          1.310820000000        -0.235828368808
   41          0.645865000000         0.012286755329
   42          0.333758000000         0.409260433592
   43          0.146166000000         0.484753750645
 P 43
    1         20.297000000000         0.000637144278
    2         12.731200000000        -0.009006770757
    3          8.000340000000         0.022937841346
    4          2.447960000000        -0.028977494333
    5          1.310820000000        -0.028416958427
    6          0.645865000000        -0.007156139083
    7          0.333758000000        -0.000246333681
    8          0.146166000000        -0.000153054894
    9          0.060871000000         0.000002535629
   10         20.297000000000         0.001248470703
   11         12.731200000000        -0.017648576335
   12          8.000340000000         0.044946213785
   13          2.447960000000        -0.056780785759
   14          1.310820000000        -0.055682427534
   15          0.645865000000        -0.014022302807
   16          0.333758000000        -0.000482685625
   17          0.146166000000        -0.000299907819
   18          0.060871000000         0.000004968511
   19         20.297000000000         0.000009827888
   20         12.731200000000        -0.000138928553
   21          8.000340000000         0.000353813946
   22          2.447960000000        -0.000446974999
   23          1.310820000000        -0.000438328788
   24          0.645865000000        -0.000110382741
   25          0.333758000000        -0.000003799673
   26          0.146166000000        -0.000002360857
   27         20.297000000000         0.000266327725
   28         12.731200000000        -0.013407952812
   29          8.000340000000         0.040151913317
   30          2.447960000000        -0.068442039685
   31          1.310820000000        -0.066855322936
   32          0.645865000000         0.003483189913
   33          0.333758000000         0.116021828040
   34          0.146166000000         0.137423536904
   35          0.060871000000         0.049174353662
   36         20.297000000000         0.000521863530
   37         12.731200000000        -0.026272599257
   38          8.000340000000         0.078676822835
   39          2.447960000000        -0.134110725640
   40          1.310820000000        -0.131001587813
   41          0.645865000000         0.006825236783
   42          0.333758000000         0.227342312125
   43          0.146166000000         0.269278506880
 P 43
    1         20.297000000000        -0.000017007984
    2         12.731200000000         0.000240427512
    3          8.000340000000        -0.000612304707
    4          2.447960000000         0.000773527723
    5          1.310820000000         0.000758564729
    6          0.645865000000         0.000191026591
    7          0.333758000000         0.000006575652
    8          0.146166000000         0.000004085660
    9         20.297000000000        -0.000004405280
   10         12.731200000000         0.000062273729
   11          8.000340000000        -0.000158594569
   12          2.447960000000         0.000200353344
   13          1.310820000000         0.000196477742
   14          0.645865000000         0.000049478274
   15          0.333758000000         0.000001703176
   16          0.146166000000         0.000001058237
   17         20.297000000000         0.000579806178
   18         12.731200000000        -0.008196230448
   19          8.000340000000         0.020873611501
   20          2.447960000000        -0.026369742028
   21          1.310820000000        -0.025859650055
   22          0.645865000000        -0.006512141435
   23          0.333758000000        -0.000224165539
   24          0.146166000000        -0.000139281127
   25         20.297000000000         0.000015556527
   26         12.731200000000        -0.000783174841
   27          8.000340000000         0.002345322120
   28          2.447960000000        -0.003997782829
   29          1.310820000000        -0.003905100773
   30          0.645865000000         0.000203457362
   31          0.333758000000         0.006776976169
   32          0.146166000000         0.008027076029
   33          0.060871000000         0.002872333840
   34         20.297000000000         0.000004029335
   35         12.731200000000        -0.000202852068
   36          8.000340000000         0.000607467729
   37          2.447960000000        -0.001035475697
   38          1.310820000000        -0.001011469887
   39          0.645865000000         0.000052697998
   40          0.333758000000         0.001755321493
   41          0.146166000000         0.002079112974
   42          0.060871000000         0.000743970349
   43         20.297000000000        -0.000530325648
 P 43
    1         20.297000000000        -0.001849259653
    2         12.731200000000         0.026141422519
    3          8.000340000000        -0.066575226400
    4          2.447960000000         0.084104829946
    5          1.310820000000         0.082477919884
    6          0.645865000000         0.020770113996
    7          0.333758000000         0.000714963555
    8          0.146166000000         0.000444229431
    9          0.060871000000        -0.000007359457
   10         20.297000000000        -0.000975626629
   11         12.731200000000         0.013791610003
   12          8.000340000000        -0.035123549904
   13          2.447960000000         0.044371763364
   14          1.310820000000         0.043513443238
   15          0.645865000000         0.010957831838
   16          0.333758000000         0.000377198238
   17          0.146166000000         0.000234365175
   18          0.060871000000        -0.000003882679
   19         20.297000000000         0.053080655325
   20         12.731200000000        -0.750356412103
   21          8.000340000000         1.910957522729
   22          2.447960000000        -2.414122582427
   23          1.310820000000        -2.367424190412
   24          0.645865000000        -0.596179806445
   25          0.333758000000        -0.020522122983
   26          0.146166000000        -0.012751042967
   27          0.060871000000         0.000211243897
   28         20.297000000000         0.000217533161
   29         12.731200000000        -0.010951448471
   30          8.000340000000         0.032795581537
   31          2.447960000000        -0.055902603578
   32          1.310820000000        -0.054606593146
   33          0.645865000000         0.002845026036
   34          0.333758000000         0.094765180716
   35          0.146166000000         0.112245829335
   36          0.060871000000         0.040164998174
   37         20.297000000000         0.000114765465
   38         12.731200000000        -0.005777730962
   39          8.000340000000         0.017302190425
   40          2.447960000000        -0.029492920906
   41          1.310820000000        -0.028809175772
   42          0.645865000000         0.001500969946
   43          0.333758000000         0.049995917911
 end
  // -----------------------------------------------
  // The basis set
  // -----------------------------------------------
  BAS[ATNO] = new BFNGauss[NSH];
  // Basis function   1 L = s
  InitBFNGauss(BAS[ATNO][  0]);
  BAS[ATNO][  0].l  = 0;
  BAS[ATNO][  0].ng = 22;
  BAS[ATNO][  0].a[  0] =      2405.310000000000;     BAS[ATNO][  0].d[  0] =        -0.000162834540;
  BAS[ATNO][  0].a[  1] =       365.565000000000;     BAS[ATNO][  0].d[  1] =        -0.000784479199;
  BAS[ATNO][  0].a[  2] =        41.906200000000;     BAS[ATNO][  0].d[  2] =        -0.021539174969;
  BAS[ATNO][  0].a[  3] =        26.202600000000;     BAS[ATNO][  0].d[  3] =         0.151010813642;
  BAS[ATNO][  0].a[  4] =        16.391500000000;     BAS[ATNO][  0].d[  4] =        -0.433809347574;
  BAS[ATNO][  0].a[  5] =         7.083410000000;     BAS[ATNO][  0].d[  5] =         0.949941121050;
  BAS[ATNO][  0].a[  6] =         2.033130000000;     BAS[ATNO][  0].d[  6] =        -0.883620538792;
  BAS[ATNO][  0].a[  7] =         1.070070000000;     BAS[ATNO][  0].d[  7] =        -0.483946094843;
  BAS[ATNO][  0].a[  8] =         0.081833000000;     BAS[ATNO][  0].d[  8] =        -0.001291181896;
  BAS[ATNO][  0].a[  9] =      2405.310000000000;     BAS[ATNO][  0].d[  9] =        -0.000016210057;
  BAS[ATNO][  0].a[ 10] =       365.565000000000;     BAS[ATNO][  0].d[ 10] =        -0.000097458034;
  BAS[ATNO][  0].a[ 11] =        41.906200000000;     BAS[ATNO][  0].d[ 11] =        -0.001067887065;
  BAS[ATNO][  0].a[ 12] =        26.202600000000;     BAS[ATNO][  0].d[ 12] =         0.010510839555;
  BAS[ATNO][  0].a[ 13] =        16.391500000000;     BAS[ATNO][  0].d[ 13] =        -0.037311602447;
  BAS[ATNO][  0].a[ 14] =         7.083410000000;     BAS[ATNO][  0].d[ 14] =         0.098787856314;
  BAS[ATNO][  0].a[ 15] =         2.033130000000;     BAS[ATNO][  0].d[ 15] =        -0.139801282755;
  BAS[ATNO][  0].a[ 16] =         1.070070000000;     BAS[ATNO][  0].d[ 16] =        -0.085745677645;
  BAS[ATNO][  0].a[ 17] =         0.081833000000;     BAS[ATNO][  0].d[ 17] =         0.026985794770;
  BAS[ATNO][  0].a[ 18] =         0.376071000000;     BAS[ATNO][  0].d[ 18] =         0.271335611914;
  BAS[ATNO][  0].a[ 19] =         0.179447000000;     BAS[ATNO][  0].d[ 19] =        -0.267246402254;
  BAS[ATNO][  0].a[ 20] =         0.096600000000;     BAS[ATNO][  0].d[ 20] =         0.120933088387;
  BAS[ATNO][  0].a[ 21] =         0.038400000000;     BAS[ATNO][  0].d[ 21] =        -0.031881180250;

  // Basis function   2 L = p
  InitBFNGauss(BAS[ATNO][  1]);
  BAS[ATNO][  1].l  = 1;
  BAS[ATNO][  1].ng = 43;
  BAS[ATNO][  1].a[  0] =        20.297000000000;     BAS[ATNO][  1].d[  0] =         0.000451332401;
  BAS[ATNO][  1].a[  1] =        12.731200000000;     BAS[ATNO][  1].d[  1] =        -0.006380105119;
  BAS[ATNO][  1].a[  2] =         8.000340000000;     BAS[ATNO][  1].d[  2] =         0.016248424983;
  BAS[ATNO][  1].a[  3] =         2.447960000000;     BAS[ATNO][  1].d[  3] =        -0.020526719832;
  BAS[ATNO][  1].a[  4] =         1.310820000000;     BAS[ATNO][  1].d[  4] =        -0.020129654324;
  BAS[ATNO][  1].a[  5] =         0.645865000000;     BAS[ATNO][  1].d[  5] =        -0.005069177492;
  BAS[ATNO][  1].a[  6] =         0.333758000000;     BAS[ATNO][  1].d[  6] =        -0.000174494813;
  BAS[ATNO][  1].a[  7] =         0.146166000000;     BAS[ATNO][  1].d[  7] =        -0.000108419137;
  BAS[ATNO][  1].a[  8] =        20.297000000000;     BAS[ATNO][  1].d[  8] =         0.000201526699;
  BAS[ATNO][  1].a[  9] =        12.731200000000;     BAS[ATNO][  1].d[  9] =        -0.002848812806;
  BAS[ATNO][  1].a[ 10] =         8.000340000000;     BAS[ATNO][  1].d[ 10] =         0.007255165911;
  BAS[ATNO][  1].a[ 11] =         2.447960000000;     BAS[ATNO][  1].d[ 11] =        -0.009165488849;
  BAS[ATNO][  1].a[ 12] =         1.310820000000;     BAS[ATNO][  1].d[ 12] =        -0.008988193133;
  BAS[ATNO][  1].a[ 13] =         0.645865000000;     BAS[ATNO][  1].d[ 13] =        -0.002263463922;
  BAS[ATNO][  1].a[ 14] =         0.333758000000;     BAS[ATNO][  1].d[ 14] =        -0.000077914556;
  BAS[ATNO][  1].a[ 15] =         0.146166000000;     BAS[ATNO][  1].d[ 15] =        -0.000048410774;
  BAS[ATNO][  1].a[ 16] =        20.297000000000;     BAS[ATNO][  1].d[ 16] =        -0.013688714140;
  BAS[ATNO][  1].a[ 17] =        12.731200000000;     BAS[ATNO][  1].d[ 17] =         0.193505795384;
  BAS[ATNO][  1].a[ 18] =         8.000340000000;     BAS[ATNO][  1].d[ 18] =        -0.492807617042;
  BAS[ATNO][  1].a[ 19] =         2.447960000000;     BAS[ATNO][  1].d[ 19] =         0.622566427010;
  BAS[ATNO][  1].a[ 20] =         1.310820000000;     BAS[ATNO][  1].d[ 20] =         0.610523603967;
  BAS[ATNO][  1].a[ 21] =         0.645865000000;     BAS[ATNO][  1].d[ 21] =         0.153745934302;
  BAS[ATNO][  1].a[ 22] =         0.333758000000;     BAS[ATNO][  1].d[ 22] =         0.005292351297;
  BAS[ATNO][  1].a[ 23] =         0.146166000000;     BAS[ATNO][  1].d[ 23] =         0.003288304959;
  BAS[ATNO][  1].a[ 24] =         0.060871000000;     BAS[ATNO][  1].d[ 24] =        -0.000054476669;
  BAS[ATNO][  1].a[ 25] =        20.297000000000;     BAS[ATNO][  1].d[ 25] =        -0.000001202735;
  BAS[ATNO][  1].a[ 26] =        12.731200000000;     BAS[ATNO][  1].d[ 26] =         0.000060550281;
  BAS[ATNO][  1].a[ 27] =         8.000340000000;     BAS[ATNO][  1].d[ 27] =        -0.000181325938;
  BAS[ATNO][  1].a[ 28] =         2.447960000000;     BAS[ATNO][  1].d[ 28] =         0.000309084077;
  BAS[ATNO][  1].a[ 29] =         1.310820000000;     BAS[ATNO][  1].d[ 29] =         0.000301918468;
  BAS[ATNO][  1].a[ 30] =         0.645865000000;     BAS[ATNO][  1].d[ 30] =        -0.000015730077;
  BAS[ATNO][  1].a[ 31] =         0.333758000000;     BAS[ATNO][  1].d[ 31] =        -0.000523954280;
  BAS[ATNO][  1].a[ 32] =         0.146166000000;     BAS[ATNO][  1].d[ 32] =        -0.000620604343;
  BAS[ATNO][  1].a[ 33] =         0.060871000000;     BAS[ATNO][  1].d[ 33] =        -0.000222071256;
  BAS[ATNO][  1].a[ 34] =        20.297000000000;     BAS[ATNO][  1].d[ 34] =        -0.000000537039;
  BAS[ATNO][  1].a[ 35] =        12.731200000000;     BAS[ATNO][  1].d[ 35] =         0.000027036610;
  BAS[ATNO][  1].a[ 36] =         8.000340000000;     BAS[ATNO][  1].d[ 36] =        -0.000080964756;
  BAS[ATNO][  1].a[ 37] =         2.447960000000;     BAS[ATNO][  1].d[ 37] =         0.000138010685;
  BAS[ATNO][  1].a[ 38] =         1.310820000000;     BAS[ATNO][  1].d[ 38] =         0.000134811133;
  BAS[ATNO][  1].a[ 39] =         0.645865000000;     BAS[ATNO][  1].d[ 39] =        -0.000007023716;
  BAS[ATNO][  1].a[ 40] =         0.333758000000;     BAS[ATNO][  1].d[ 40] =        -0.000233953459;
  BAS[ATNO][  1].a[ 41] =         0.146166000000;     BAS[ATNO][  1].d[ 41] =        -0.000277109164;
  BAS[ATNO][  1].a[ 42] =         0.060871000000;     BAS[ATNO][  1].d[ 42] =        -0.000099158153;

  // Basis function   3 L = s
  InitBFNGauss(BAS[ATNO][  2]);
  BAS[ATNO][  2].l  = 0;
  BAS[ATNO][  2].ng = 22;
  BAS[ATNO][  2].a[  0] =      2405.310000000000;     BAS[ATNO][  2].d[  0] =         0.000054139737;
  BAS[ATNO][  2].a[  1] =       365.565000000000;     BAS[ATNO][  2].d[  1] =         0.000260826096;
  BAS[ATNO][  2].a[  2] =        41.906200000000;     BAS[ATNO][  2].d[  2] =         0.007161412207;
  BAS[ATNO][  2].a[  3] =        26.202600000000;     BAS[ATNO][  2].d[  3] =        -0.050208547252;
  BAS[ATNO][  2].a[  4] =        16.391500000000;     BAS[ATNO][  2].d[  4] =         0.144234287603;
  BAS[ATNO][  2].a[  5] =         7.083410000000;     BAS[ATNO][  2].d[  5] =        -0.315839392641;
  BAS[ATNO][  2].a[  6] =         2.033130000000;     BAS[ATNO][  2].d[  6] =         0.293788918190;
  BAS[ATNO][  2].a[  7] =         1.070070000000;     BAS[ATNO][  2].d[  7] =         0.160903910021;
  BAS[ATNO][  2].a[  8] =         0.081833000000;     BAS[ATNO][  2].d[  8] =         0.000429296192;
  BAS[ATNO][  2].a[  9] =      2405.310000000000;     BAS[ATNO][  2].d[  9] =        -0.000161690130;
  BAS[ATNO][  2].a[ 10] =       365.565000000000;     BAS[ATNO][  2].d[ 10] =        -0.000972112723;
  BAS[ATNO][  2].a[ 11] =        41.906200000000;     BAS[ATNO][  2].d[ 11] =        -0.010651831993;
  BAS[ATNO][  2].a[ 12] =        26.202600000000;     BAS[ATNO][  2].d[ 12] =         0.104842263515;
  BAS[ATNO][  2].a[ 13] =        16.391500000000;     BAS[ATNO][  2].d[ 13] =        -0.372171303282;
  BAS[ATNO][  2].a[ 14] =         7.083410000000;     BAS[ATNO][  2].d[ 14] =         0.985377277349;
  BAS[ATNO][  2].a[ 15] =         2.033130000000;     BAS[ATNO][  2].d[ 15] =        -1.394473091237;
  BAS[ATNO][  2].a[ 16] =         1.070070000000;     BAS[ATNO][  2].d[ 16] =        -0.855285715618;
  BAS[ATNO][  2].a[ 17] =         0.081833000000;     BAS[ATNO][  2].d[ 17] =         0.269174673581;
  BAS[ATNO][  2].a[ 18] =         0.376071000000;     BAS[ATNO][  2].d[ 18] =         2.588594285421;
  BAS[ATNO][  2].a[ 19] =         0.179447000000;     BAS[ATNO][  2].d[ 19] =        -1.463798014189;
  BAS[ATNO][  2].a[ 20] =         0.096600000000;     BAS[ATNO][  2].d[ 20] =         0.511177546242;
  BAS[ATNO][  2].a[ 21] =         0.038400000000;     BAS[ATNO][  2].d[ 21] =        -0.184266035206;

  // Basis function   4 L = p
  InitBFNGauss(BAS[ATNO][  3]);
  BAS[ATNO][  3].l  = 1;
  BAS[ATNO][  3].ng = 43;
  BAS[ATNO][  3].a[  0] =        20.297000000000;     BAS[ATNO][  3].d[  0] =         0.000192196259;
  BAS[ATNO][  3].a[  1] =        12.731200000000;     BAS[ATNO][  3].d[  1] =        -0.002716916256;
  BAS[ATNO][  3].a[  2] =         8.000340000000;     BAS[ATNO][  3].d[  2] =         0.006919260600;
  BAS[ATNO][  3].a[  3] =         2.447960000000;     BAS[ATNO][  3].d[  3] =        -0.008741137921;
  BAS[ATNO][  3].a[  4] =         1.310820000000;     BAS[ATNO][  3].d[  4] =        -0.008572050780;
  BAS[ATNO][  3].a[  5] =         0.645865000000;     BAS[ATNO][  3].d[  5] =        -0.002158668309;
  BAS[ATNO][  3].a[  6] =         0.333758000000;     BAS[ATNO][  3].d[  6] =        -0.000074307207;
  BAS[ATNO][  3].a[  7] =         0.146166000000;     BAS[ATNO][  3].d[  7] =        -0.000046169414;
  BAS[ATNO][  3].a[  8] =        20.297000000000;     BAS[ATNO][  3].d[  8] =         0.000134026687;
  BAS[ATNO][  3].a[  9] =        12.731200000000;     BAS[ATNO][  3].d[  9] =        -0.001894622124;
  BAS[ATNO][  3].a[ 10] =         8.000340000000;     BAS[ATNO][  3].d[ 10] =         0.004825096905;
  BAS[ATNO][  3].a[ 11] =         2.447960000000;     BAS[ATNO][  3].d[ 11] =        -0.006095570028;
  BAS[ATNO][  3].a[ 12] =         1.310820000000;     BAS[ATNO][  3].d[ 12] =        -0.005977658319;
  BAS[ATNO][  3].a[ 13] =         0.645865000000;     BAS[ATNO][  3].d[ 13] =        -0.001505331911;
  BAS[ATNO][  3].a[ 14] =         0.333758000000;     BAS[ATNO][  3].d[ 14] =        -0.000051817600;
  BAS[ATNO][  3].a[ 15] =         0.146166000000;     BAS[ATNO][  3].d[ 15] =        -0.000032195911;
  BAS[ATNO][  3].a[ 16] =        20.297000000000;     BAS[ATNO][  3].d[ 16] =        -0.004862333949;
  BAS[ATNO][  3].a[ 17] =        12.731200000000;     BAS[ATNO][  3].d[ 17] =         0.068734710114;
  BAS[ATNO][  3].a[ 18] =         8.000340000000;     BAS[ATNO][  3].d[ 18] =        -0.175048962396;
  BAS[ATNO][  3].a[ 19] =         2.447960000000;     BAS[ATNO][  3].d[ 19] =         0.221140265089;
  BAS[ATNO][  3].a[ 20] =         1.310820000000;     BAS[ATNO][  3].d[ 20] =         0.216862564004;
  BAS[ATNO][  3].a[ 21] =         0.645865000000;     BAS[ATNO][  3].d[ 21] =         0.054611709197;
  BAS[ATNO][  3].a[ 22] =         0.333758000000;     BAS[ATNO][  3].d[ 22] =         0.001879882882;
  BAS[ATNO][  3].a[ 23] =         0.146166000000;     BAS[ATNO][  3].d[ 23] =         0.001168030589;
  BAS[ATNO][  3].a[ 24] =         0.060871000000;     BAS[ATNO][  3].d[ 24] =        -0.000019350522;
  BAS[ATNO][  3].a[ 25] =        20.297000000000;     BAS[ATNO][  3].d[ 25] =         0.000041662842;
  BAS[ATNO][  3].a[ 26] =        12.731200000000;     BAS[ATNO][  3].d[ 26] =        -0.002097466264;
  BAS[ATNO][  3].a[ 27] =         8.000340000000;     BAS[ATNO][  3].d[ 27] =         0.006281144095;
  BAS[ATNO][  3].a[ 28] =         2.447960000000;     BAS[ATNO][  3].d[ 28] =        -0.010706695594;
  BAS[ATNO][  3].a[ 29] =         1.310820000000;     BAS[ATNO][  3].d[ 29] =        -0.010458478369;
  BAS[ATNO][  3].a[ 30] =         0.645865000000;     BAS[ATNO][  3].d[ 30] =         0.000544891039;
  BAS[ATNO][  3].a[ 31] =         0.333758000000;     BAS[ATNO][  3].d[ 31] =         0.018149815535;
  BAS[ATNO][  3].a[ 32] =         0.146166000000;     BAS[ATNO][  3].d[ 32] =         0.021497780953;
  BAS[ATNO][  3].a[ 33] =         0.060871000000;     BAS[ATNO][  3].d[ 33] =         0.007692564952;
  BAS[ATNO][  3].a[ 34] =        20.297000000000;     BAS[ATNO][  3].d[ 34] =         0.000029053285;
  BAS[ATNO][  3].a[ 35] =        12.731200000000;     BAS[ATNO][  3].d[ 35] =        -0.001462653102;
  BAS[ATNO][  3].a[ 36] =         8.000340000000;     BAS[ATNO][  3].d[ 36] =         0.004380110923;
  BAS[ATNO][  3].a[ 37] =         2.447960000000;     BAS[ATNO][  3].d[ 37] =        -0.007466237617;
  BAS[ATNO][  3].a[ 38] =         1.310820000000;     BAS[ATNO][  3].d[ 38] =        -0.007293145110;
  BAS[ATNO][  3].a[ 39] =         0.645865000000;     BAS[ATNO][  3].d[ 39] =         0.000379975870;
  BAS[ATNO][  3].a[ 40] =         0.333758000000;     BAS[ATNO][  3].d[ 40] =         0.012656644088;
  BAS[ATNO][  3].a[ 41] =         0.146166000000;     BAS[ATNO][  3].d[ 41] =         0.014991323834;
  BAS[ATNO][  3].a[ 42] =         0.060871000000;     BAS[ATNO][  3].d[ 42] =         0.005364355166;

  // Basis function   5 L = s
  InitBFNGauss(BAS[ATNO][  4]);
  BAS[ATNO][  4].l  = 0;
  BAS[ATNO][  4].ng = 22;
  BAS[ATNO][  4].a[  0] =      2405.310000000000;     BAS[ATNO][  4].d[  0] =        -0.000092036727;
  BAS[ATNO][  4].a[  1] =       365.565000000000;     BAS[ATNO][  4].d[  1] =        -0.000443400387;
  BAS[ATNO][  4].a[  2] =        41.906200000000;     BAS[ATNO][  4].d[  2] =        -0.012174291609;
  BAS[ATNO][  4].a[  3] =        26.202600000000;     BAS[ATNO][  4].d[  3] =         0.085353765129;
  BAS[ATNO][  4].a[  4] =        16.391500000000;     BAS[ATNO][  4].d[  4] =        -0.245196090735;
  BAS[ATNO][  4].a[  5] =         7.083410000000;     BAS[ATNO][  4].d[  5] =         0.536922153964;
  BAS[ATNO][  4].a[  6] =         2.033130000000;     BAS[ATNO][  4].d[  6] =        -0.499436683456;
  BAS[ATNO][  4].a[  7] =         1.070070000000;     BAS[ATNO][  4].d[  7] =        -0.273534194792;
  BAS[ATNO][  4].a[  8] =         0.081833000000;     BAS[ATNO][  4].d[  8] =        -0.000729796983;
  BAS[ATNO][  4].a[  9] =      2405.310000000000;     BAS[ATNO][  4].d[  9] =         0.000136138897;
  BAS[ATNO][  4].a[ 10] =       365.565000000000;     BAS[ATNO][  4].d[ 10] =         0.000818493706;
  BAS[ATNO][  4].a[ 11] =        41.906200000000;     BAS[ATNO][  4].d[ 11] =         0.008968566332;
  BAS[ATNO][  4].a[ 12] =        26.202600000000;     BAS[ATNO][  4].d[ 12] =        -0.088274467276;
  BAS[ATNO][  4].a[ 13] =        16.391500000000;     BAS[ATNO][  4].d[ 13] =         0.313358586804;
  BAS[ATNO][  4].a[ 14] =         7.083410000000;     BAS[ATNO][  4].d[ 14] =        -0.829662116278;
  BAS[ATNO][  4].a[ 15] =         2.033130000000;     BAS[ATNO][  4].d[ 15] =         1.174110183545;
  BAS[ATNO][  4].a[ 16] =         1.070070000000;     BAS[ATNO][  4].d[ 16] =         0.720128394631;
  BAS[ATNO][  4].a[ 17] =         0.081833000000;     BAS[ATNO][  4].d[ 17] =        -0.226638095343;
  BAS[ATNO][  4].a[ 18] =         0.376071000000;     BAS[ATNO][  4].d[ 18] =        -5.476626301167;
  BAS[ATNO][  4].a[ 19] =         0.179447000000;     BAS[ATNO][  4].d[ 19] =        11.889762895911;
  BAS[ATNO][  4].a[ 20] =         0.096600000000;     BAS[ATNO][  4].d[ 20] =        -9.641648141385;
  BAS[ATNO][  4].a[ 21] =         0.038400000000;     BAS[ATNO][  4].d[ 21] =         2.737682775593;

  // Basis function   6 L = p
  InitBFNGauss(BAS[ATNO][  5]);
  BAS[ATNO][  5].l  = 1;
  BAS[ATNO][  5].ng = 43;
  BAS[ATNO][  5].a[  0] =        20.297000000000;     BAS[ATNO][  5].d[  0] =         0.002207335605;
  BAS[ATNO][  5].a[  1] =        12.731200000000;     BAS[ATNO][  5].d[  1] =        -0.031203239952;
  BAS[ATNO][  5].a[  2] =         8.000340000000;     BAS[ATNO][  5].d[  2] =         0.079466324481;
  BAS[ATNO][  5].a[  3] =         2.447960000000;     BAS[ATNO][  5].d[  3] =        -0.100390221232;
  BAS[ATNO][  5].a[  4] =         1.310820000000;     BAS[ATNO][  5].d[  4] =        -0.098448289228;
  BAS[ATNO][  5].a[  5] =         0.645865000000;     BAS[ATNO][  5].d[  5] =        -0.024791873909;
  BAS[ATNO][  5].a[  6] =         0.333758000000;     BAS[ATNO][  5].d[  6] =        -0.000853403419;
  BAS[ATNO][  5].a[  7] =         0.146166000000;     BAS[ATNO][  5].d[  7] =        -0.000530246489;
  BAS[ATNO][  5].a[  8] =         0.060871000000;     BAS[ATNO][  5].d[  8] =         0.000008784484;
  BAS[ATNO][  5].a[  9] =        20.297000000000;     BAS[ATNO][  5].d[  9] =         0.004333836019;
  BAS[ATNO][  5].a[ 10] =        12.731200000000;     BAS[ATNO][  5].d[ 10] =        -0.061263781044;
  BAS[ATNO][  5].a[ 11] =         8.000340000000;     BAS[ATNO][  5].d[ 11] =         0.156022499933;
  BAS[ATNO][  5].a[ 12] =         2.447960000000;     BAS[ATNO][  5].d[ 12] =        -0.197104036052;
  BAS[ATNO][  5].a[ 13] =         1.310820000000;     BAS[ATNO][  5].d[ 13] =        -0.193291287847;
  BAS[ATNO][  5].a[ 14] =         0.645865000000;     BAS[ATNO][  5].d[ 14] =        -0.048675840622;
  BAS[ATNO][  5].a[ 15] =         0.333758000000;     BAS[ATNO][  5].d[ 15] =        -0.001675554215;
  BAS[ATNO][  5].a[ 16] =         0.146166000000;     BAS[ATNO][  5].d[ 16] =        -0.001041074737;
  BAS[ATNO][  5].a[ 17] =         0.060871000000;     BAS[ATNO][  5].d[ 17] =         0.000017247270;
  BAS[ATNO][  5].a[ 18] =        20.297000000000;     BAS[ATNO][  5].d[ 18] =         0.000206709646;
  BAS[ATNO][  5].a[ 19] =        12.731200000000;     BAS[ATNO][  5].d[ 19] =        -0.002922079755;
  BAS[ATNO][  5].a[ 20] =         8.000340000000;     BAS[ATNO][  5].d[ 20] =         0.007441757275;
  BAS[ATNO][  5].a[ 21] =         2.447960000000;     BAS[ATNO][  5].d[ 21] =        -0.009401210690;
  BAS[ATNO][  5].a[ 22] =         1.310820000000;     BAS[ATNO][  5].d[ 22] =        -0.009219355210;
  BAS[ATNO][  5].a[ 23] =         0.645865000000;     BAS[ATNO][  5].d[ 23] =        -0.002321676625;
  BAS[ATNO][  5].a[ 24] =         0.333758000000;     BAS[ATNO][  5].d[ 24] =        -0.000079918395;
  BAS[ATNO][  5].a[ 25] =         0.146166000000;     BAS[ATNO][  5].d[ 25] =        -0.000049655822;
  BAS[ATNO][  5].a[ 26] =        20.297000000000;     BAS[ATNO][  5].d[ 26] =         0.000478489409;
  BAS[ATNO][  5].a[ 27] =        12.731200000000;     BAS[ATNO][  5].d[ 27] =        -0.024088980658;
  BAS[ATNO][  5].a[ 28] =         8.000340000000;     BAS[ATNO][  5].d[ 28] =         0.072137684018;
  BAS[ATNO][  5].a[ 29] =         2.447960000000;     BAS[ATNO][  5].d[ 29] =        -0.122964258100;
  BAS[ATNO][  5].a[ 30] =         1.310820000000;     BAS[ATNO][  5].d[ 30] =        -0.120113532892;
  BAS[ATNO][  5].a[ 31] =         0.645865000000;     BAS[ATNO][  5].d[ 31] =         0.006257964628;
  BAS[ATNO][  5].a[ 32] =         0.333758000000;     BAS[ATNO][  5].d[ 32] =         0.208447002369;
  BAS[ATNO][  5].a[ 33] =         0.146166000000;     BAS[ATNO][  5].d[ 33] =         0.246897715770;
  BAS[ATNO][  5].a[ 34] =         0.060871000000;     BAS[ATNO][  5].d[ 34] =         0.088347570345;
  BAS[ATNO][  5].a[ 35] =        20.297000000000;     BAS[ATNO][  5].d[ 35] =         0.000939455980;
  BAS[ATNO][  5].a[ 36] =        12.731200000000;     BAS[ATNO][  5].d[ 36] =        -0.047295794888;
  BAS[ATNO][  5].a[ 37] =         8.000340000000;     BAS[ATNO][  5].d[ 37] =         0.141633602325;
  BAS[ATNO][  5].a[ 38] =         2.447960000000;     BAS[ATNO][  5].d[ 38] =        -0.241425422359;
  BAS[ATNO][  5].a[ 39] =         1.310820000000;     BAS[ATNO][  5].d[ 39] =        -0.235828368808;
  BAS[ATNO][  5].a[ 40] =         0.645865000000;     BAS[ATNO][  5].d[ 40] =         0.012286755329;
  BAS[ATNO][  5].a[ 41] =         0.333758000000;     BAS[ATNO][  5].d[ 41] =         0.409260433592;
  BAS[ATNO][  5].a[ 42] =         0.146166000000;     BAS[ATNO][  5].d[ 42] =         0.484753750645;

  // Basis function   7 L = p
  InitBFNGauss(BAS[ATNO][  6]);
  BAS[ATNO][  6].l  = 1;
  BAS[ATNO][  6].ng = 43;
  BAS[ATNO][  6].a[  0] =        20.297000000000;     BAS[ATNO][  6].d[  0] =         0.000637144278;
  BAS[ATNO][  6].a[  1] =        12.731200000000;     BAS[ATNO][  6].d[  1] =        -0.009006770757;
  BAS[ATNO][  6].a[  2] =         8.000340000000;     BAS[ATNO][  6].d[  2] =         0.022937841346;
  BAS[ATNO][  6].a[  3] =         2.447960000000;     BAS[ATNO][  6].d[  3] =        -0.028977494333;
  BAS[ATNO][  6].a[  4] =         1.310820000000;     BAS[ATNO][  6].d[  4] =        -0.028416958427;
  BAS[ATNO][  6].a[  5] =         0.645865000000;     BAS[ATNO][  6].d[  5] =        -0.007156139083;
  BAS[ATNO][  6].a[  6] =         0.333758000000;     BAS[ATNO][  6].d[  6] =        -0.000246333681;
  BAS[ATNO][  6].a[  7] =         0.146166000000;     BAS[ATNO][  6].d[  7] =        -0.000153054894;
  BAS[ATNO][  6].a[  8] =         0.060871000000;     BAS[ATNO][  6].d[  8] =         0.000002535629;
  BAS[ATNO][  6].a[  9] =        20.297000000000;     BAS[ATNO][  6].d[  9] =         0.001248470703;
  BAS[ATNO][  6].a[ 10] =        12.731200000000;     BAS[ATNO][  6].d[ 10] =        -0.017648576335;
  BAS[ATNO][  6].a[ 11] =         8.000340000000;     BAS[ATNO][  6].d[ 11] =         0.044946213785;
  BAS[ATNO][  6].a[ 12] =         2.447960000000;     BAS[ATNO][  6].d[ 12] =        -0.056780785759;
  BAS[ATNO][  6].a[ 13] =         1.310820000000;     BAS[ATNO][  6].d[ 13] =        -0.055682427534;
  BAS[ATNO][  6].a[ 14] =         0.645865000000;     BAS[ATNO][  6].d[ 14] =        -0.014022302807;
  BAS[ATNO][  6].a[ 15] =         0.333758000000;     BAS[ATNO][  6].d[ 15] =        -0.000482685625;
  BAS[ATNO][  6].a[ 16] =         0.146166000000;     BAS[ATNO][  6].d[ 16] =        -0.000299907819;
  BAS[ATNO][  6].a[ 17] =         0.060871000000;     BAS[ATNO][  6].d[ 17] =         0.000004968511;
  BAS[ATNO][  6].a[ 18] =        20.297000000000;     BAS[ATNO][  6].d[ 18] =         0.000009827888;
  BAS[ATNO][  6].a[ 19] =        12.731200000000;     BAS[ATNO][  6].d[ 19] =        -0.000138928553;
  BAS[ATNO][  6].a[ 20] =         8.000340000000;     BAS[ATNO][  6].d[ 20] =         0.000353813946;
  BAS[ATNO][  6].a[ 21] =         2.447960000000;     BAS[ATNO][  6].d[ 21] =        -0.000446974999;
  BAS[ATNO][  6].a[ 22] =         1.310820000000;     BAS[ATNO][  6].d[ 22] =        -0.000438328788;
  BAS[ATNO][  6].a[ 23] =         0.645865000000;     BAS[ATNO][  6].d[ 23] =        -0.000110382741;
  BAS[ATNO][  6].a[ 24] =         0.333758000000;     BAS[ATNO][  6].d[ 24] =        -0.000003799673;
  BAS[ATNO][  6].a[ 25] =         0.146166000000;     BAS[ATNO][  6].d[ 25] =        -0.000002360857;
  BAS[ATNO][  6].a[ 26] =        20.297000000000;     BAS[ATNO][  6].d[ 26] =         0.000266327725;
  BAS[ATNO][  6].a[ 27] =        12.731200000000;     BAS[ATNO][  6].d[ 27] =        -0.013407952812;
  BAS[ATNO][  6].a[ 28] =         8.000340000000;     BAS[ATNO][  6].d[ 28] =         0.040151913317;
  BAS[ATNO][  6].a[ 29] =         2.447960000000;     BAS[ATNO][  6].d[ 29] =        -0.068442039685;
  BAS[ATNO][  6].a[ 30] =         1.310820000000;     BAS[ATNO][  6].d[ 30] =        -0.066855322936;
  BAS[ATNO][  6].a[ 31] =         0.645865000000;     BAS[ATNO][  6].d[ 31] =         0.003483189913;
  BAS[ATNO][  6].a[ 32] =         0.333758000000;     BAS[ATNO][  6].d[ 32] =         0.116021828040;
  BAS[ATNO][  6].a[ 33] =         0.146166000000;     BAS[ATNO][  6].d[ 33] =         0.137423536904;
  BAS[ATNO][  6].a[ 34] =         0.060871000000;     BAS[ATNO][  6].d[ 34] =         0.049174353662;
  BAS[ATNO][  6].a[ 35] =        20.297000000000;     BAS[ATNO][  6].d[ 35] =         0.000521863530;
  BAS[ATNO][  6].a[ 36] =        12.731200000000;     BAS[ATNO][  6].d[ 36] =        -0.026272599257;
  BAS[ATNO][  6].a[ 37] =         8.000340000000;     BAS[ATNO][  6].d[ 37] =         0.078676822835;
  BAS[ATNO][  6].a[ 38] =         2.447960000000;     BAS[ATNO][  6].d[ 38] =        -0.134110725640;
  BAS[ATNO][  6].a[ 39] =         1.310820000000;     BAS[ATNO][  6].d[ 39] =        -0.131001587813;
  BAS[ATNO][  6].a[ 40] =         0.645865000000;     BAS[ATNO][  6].d[ 40] =         0.006825236783;
  BAS[ATNO][  6].a[ 41] =         0.333758000000;     BAS[ATNO][  6].d[ 41] =         0.227342312125;
  BAS[ATNO][  6].a[ 42] =         0.146166000000;     BAS[ATNO][  6].d[ 42] =         0.269278506880;

  // Basis function   8 L = p
  InitBFNGauss(BAS[ATNO][  7]);
  BAS[ATNO][  7].l  = 1;
  BAS[ATNO][  7].ng = 43;
  BAS[ATNO][  7].a[  0] =        20.297000000000;     BAS[ATNO][  7].d[  0] =         0.000017007984;
  BAS[ATNO][  7].a[  1] =        12.731200000000;     BAS[ATNO][  7].d[  1] =        -0.000240427512;
  BAS[ATNO][  7].a[  2] =         8.000340000000;     BAS[ATNO][  7].d[  2] =         0.000612304707;
  BAS[ATNO][  7].a[  3] =         2.447960000000;     BAS[ATNO][  7].d[  3] =        -0.000773527723;
  BAS[ATNO][  7].a[  4] =         1.310820000000;     BAS[ATNO][  7].d[  4] =        -0.000758564729;
  BAS[ATNO][  7].a[  5] =         0.645865000000;     BAS[ATNO][  7].d[  5] =        -0.000191026591;
  BAS[ATNO][  7].a[  6] =         0.333758000000;     BAS[ATNO][  7].d[  6] =        -0.000006575652;
  BAS[ATNO][  7].a[  7] =         0.146166000000;     BAS[ATNO][  7].d[  7] =        -0.000004085660;
  BAS[ATNO][  7].a[  8] =        20.297000000000;     BAS[ATNO][  7].d[  8] =         0.000004405280;
  BAS[ATNO][  7].a[  9] =        12.731200000000;     BAS[ATNO][  7].d[  9] =        -0.000062273729;
  BAS[ATNO][  7].a[ 10] =         8.000340000000;     BAS[ATNO][  7].d[ 10] =         0.000158594569;
  BAS[ATNO][  7].a[ 11] =         2.447960000000;     BAS[ATNO][  7].d[ 11] =        -0.000200353344;
  BAS[ATNO][  7].a[ 12] =         1.310820000000;     BAS[ATNO][  7].d[ 12] =        -0.000196477742;
  BAS[ATNO][  7].a[ 13] =         0.645865000000;     BAS[ATNO][  7].d[ 13] =        -0.000049478274;
  BAS[ATNO][  7].a[ 14] =         0.333758000000;     BAS[ATNO][  7].d[ 14] =        -0.000001703176;
  BAS[ATNO][  7].a[ 15] =         0.146166000000;     BAS[ATNO][  7].d[ 15] =        -0.000001058237;
  BAS[ATNO][  7].a[ 16] =        20.297000000000;     BAS[ATNO][  7].d[ 16] =        -0.000579806178;
  BAS[ATNO][  7].a[ 17] =        12.731200000000;     BAS[ATNO][  7].d[ 17] =         0.008196230448;
  BAS[ATNO][  7].a[ 18] =         8.000340000000;     BAS[ATNO][  7].d[ 18] =        -0.020873611501;
  BAS[ATNO][  7].a[ 19] =         2.447960000000;     BAS[ATNO][  7].d[ 19] =         0.026369742028;
  BAS[ATNO][  7].a[ 20] =         1.310820000000;     BAS[ATNO][  7].d[ 20] =         0.025859650055;
  BAS[ATNO][  7].a[ 21] =         0.645865000000;     BAS[ATNO][  7].d[ 21] =         0.006512141435;
  BAS[ATNO][  7].a[ 22] =         0.333758000000;     BAS[ATNO][  7].d[ 22] =         0.000224165539;
  BAS[ATNO][  7].a[ 23] =         0.146166000000;     BAS[ATNO][  7].d[ 23] =         0.000139281127;
  BAS[ATNO][  7].a[ 24] =        20.297000000000;     BAS[ATNO][  7].d[ 24] =        -0.000015556527;
  BAS[ATNO][  7].a[ 25] =        12.731200000000;     BAS[ATNO][  7].d[ 25] =         0.000783174841;
  BAS[ATNO][  7].a[ 26] =         8.000340000000;     BAS[ATNO][  7].d[ 26] =        -0.002345322120;
  BAS[ATNO][  7].a[ 27] =         2.447960000000;     BAS[ATNO][  7].d[ 27] =         0.003997782829;
  BAS[ATNO][  7].a[ 28] =         1.310820000000;     BAS[ATNO][  7].d[ 28] =         0.003905100773;
  BAS[ATNO][  7].a[ 29] =         0.645865000000;     BAS[ATNO][  7].d[ 29] =        -0.000203457362;
  BAS[ATNO][  7].a[ 30] =         0.333758000000;     BAS[ATNO][  7].d[ 30] =        -0.006776976169;
  BAS[ATNO][  7].a[ 31] =         0.146166000000;     BAS[ATNO][  7].d[ 31] =        -0.008027076029;
  BAS[ATNO][  7].a[ 32] =         0.060871000000;     BAS[ATNO][  7].d[ 32] =        -0.002872333840;
  BAS[ATNO][  7].a[ 33] =        20.297000000000;     BAS[ATNO][  7].d[ 33] =        -0.000004029335;
  BAS[ATNO][  7].a[ 34] =        12.731200000000;     BAS[ATNO][  7].d[ 34] =         0.000202852068;
  BAS[ATNO][  7].a[ 35] =         8.000340000000;     BAS[ATNO][  7].d[ 35] =        -0.000607467729;
  BAS[ATNO][  7].a[ 36] =         2.447960000000;     BAS[ATNO][  7].d[ 36] =         0.001035475697;
  BAS[ATNO][  7].a[ 37] =         1.310820000000;     BAS[ATNO][  7].d[ 37] =         0.001011469887;
  BAS[ATNO][  7].a[ 38] =         0.645865000000;     BAS[ATNO][  7].d[ 38] =        -0.000052697998;
  BAS[ATNO][  7].a[ 39] =         0.333758000000;     BAS[ATNO][  7].d[ 39] =        -0.001755321493;
  BAS[ATNO][  7].a[ 40] =         0.146166000000;     BAS[ATNO][  7].d[ 40] =        -0.002079112974;
  BAS[ATNO][  7].a[ 41] =         0.060871000000;     BAS[ATNO][  7].d[ 41] =        -0.000743970349;
  BAS[ATNO][  7].a[ 42] =        20.297000000000;     BAS[ATNO][  7].d[ 42] =         0.000530325648;

  // Basis function   9 L = p
  InitBFNGauss(BAS[ATNO][  8]);
  BAS[ATNO][  8].l  = 1;
  BAS[ATNO][  8].ng = 43;
  BAS[ATNO][  8].a[  0] =        20.297000000000;     BAS[ATNO][  8].d[  0] =         0.001849259653;
  BAS[ATNO][  8].a[  1] =        12.731200000000;     BAS[ATNO][  8].d[  1] =        -0.026141422519;
  BAS[ATNO][  8].a[  2] =         8.000340000000;     BAS[ATNO][  8].d[  2] =         0.066575226400;
  BAS[ATNO][  8].a[  3] =         2.447960000000;     BAS[ATNO][  8].d[  3] =        -0.084104829946;
  BAS[ATNO][  8].a[  4] =         1.310820000000;     BAS[ATNO][  8].d[  4] =        -0.082477919884;
  BAS[ATNO][  8].a[  5] =         0.645865000000;     BAS[ATNO][  8].d[  5] =        -0.020770113996;
  BAS[ATNO][  8].a[  6] =         0.333758000000;     BAS[ATNO][  8].d[  6] =        -0.000714963555;
  BAS[ATNO][  8].a[  7] =         0.146166000000;     BAS[ATNO][  8].d[  7] =        -0.000444229431;
  BAS[ATNO][  8].a[  8] =         0.060871000000;     BAS[ATNO][  8].d[  8] =         0.000007359457;
  BAS[ATNO][  8].a[  9] =        20.297000000000;     BAS[ATNO][  8].d[  9] =         0.000975626629;
  BAS[ATNO][  8].a[ 10] =        12.731200000000;     BAS[ATNO][  8].d[ 10] =        -0.013791610003;
  BAS[ATNO][  8].a[ 11] =         8.000340000000;     BAS[ATNO][  8].d[ 11] =         0.035123549904;
  BAS[ATNO][  8].a[ 12] =         2.447960000000;     BAS[ATNO][  8].d[ 12] =        -0.044371763364;
  BAS[ATNO][  8].a[ 13] =         1.310820000000;     BAS[ATNO][  8].d[ 13] =        -0.043513443238;
  BAS[ATNO][  8].a[ 14] =         0.645865000000;     BAS[ATNO][  8].d[ 14] =        -0.010957831838;
  BAS[ATNO][  8].a[ 15] =         0.333758000000;     BAS[ATNO][  8].d[ 15] =        -0.000377198238;
  BAS[ATNO][  8].a[ 16] =         0.146166000000;     BAS[ATNO][  8].d[ 16] =        -0.000234365175;
  BAS[ATNO][  8].a[ 17] =         0.060871000000;     BAS[ATNO][  8].d[ 17] =         0.000003882679;
  BAS[ATNO][  8].a[ 18] =        20.297000000000;     BAS[ATNO][  8].d[ 18] =        -0.053080655325;
  BAS[ATNO][  8].a[ 19] =        12.731200000000;     BAS[ATNO][  8].d[ 19] =         0.750356412103;
  BAS[ATNO][  8].a[ 20] =         8.000340000000;     BAS[ATNO][  8].d[ 20] =        -1.910957522729;
  BAS[ATNO][  8].a[ 21] =         2.447960000000;     BAS[ATNO][  8].d[ 21] =         2.414122582427;
  BAS[ATNO][  8].a[ 22] =         1.310820000000;     BAS[ATNO][  8].d[ 22] =         2.367424190412;
  BAS[ATNO][  8].a[ 23] =         0.645865000000;     BAS[ATNO][  8].d[ 23] =         0.596179806445;
  BAS[ATNO][  8].a[ 24] =         0.333758000000;     BAS[ATNO][  8].d[ 24] =         0.020522122983;
  BAS[ATNO][  8].a[ 25] =         0.146166000000;     BAS[ATNO][  8].d[ 25] =         0.012751042967;
  BAS[ATNO][  8].a[ 26] =         0.060871000000;     BAS[ATNO][  8].d[ 26] =        -0.000211243897;
  BAS[ATNO][  8].a[ 27] =        20.297000000000;     BAS[ATNO][  8].d[ 27] =        -0.000217533161;
  BAS[ATNO][  8].a[ 28] =        12.731200000000;     BAS[ATNO][  8].d[ 28] =         0.010951448471;
  BAS[ATNO][  8].a[ 29] =         8.000340000000;     BAS[ATNO][  8].d[ 29] =        -0.032795581537;
  BAS[ATNO][  8].a[ 30] =         2.447960000000;     BAS[ATNO][  8].d[ 30] =         0.055902603578;
  BAS[ATNO][  8].a[ 31] =         1.310820000000;     BAS[ATNO][  8].d[ 31] =         0.054606593146;
  BAS[ATNO][  8].a[ 32] =         0.645865000000;     BAS[ATNO][  8].d[ 32] =        -0.002845026036;
  BAS[ATNO][  8].a[ 33] =         0.333758000000;     BAS[ATNO][  8].d[ 33] =        -0.094765180716;
  BAS[ATNO][  8].a[ 34] =         0.146166000000;     BAS[ATNO][  8].d[ 34] =        -0.112245829335;
  BAS[ATNO][  8].a[ 35] =         0.060871000000;     BAS[ATNO][  8].d[ 35] =        -0.040164998174;
  BAS[ATNO][  8].a[ 36] =        20.297000000000;     BAS[ATNO][  8].d[ 36] =        -0.000114765465;
  BAS[ATNO][  8].a[ 37] =        12.731200000000;     BAS[ATNO][  8].d[ 37] =         0.005777730962;
  BAS[ATNO][  8].a[ 38] =         8.000340000000;     BAS[ATNO][  8].d[ 38] =        -0.017302190425;
  BAS[ATNO][  8].a[ 39] =         2.447960000000;     BAS[ATNO][  8].d[ 39] =         0.029492920906;
  BAS[ATNO][  8].a[ 40] =         1.310820000000;     BAS[ATNO][  8].d[ 40] =         0.028809175772;
  BAS[ATNO][  8].a[ 41] =         0.645865000000;     BAS[ATNO][  8].d[ 41] =        -0.001500969946;
  BAS[ATNO][  8].a[ 42] =         0.333758000000;     BAS[ATNO][  8].d[ 42] =        -0.049995917911;

-------------------------------------------
RADIAL EXPECTATION VALUES <R**-3> TO <R**3>
-------------------------------------------
   0 :     0.000000     2.005968     1.360725     0.791074     0.673816     0.632178
   1 :     2.362138     1.632353     1.228410     0.876918     0.825679     0.832899
   2 :     2.362138     1.632353     1.228410     0.876918     0.825679     0.832899
   3 :     2.362290     1.632445     1.228452     0.876876     0.825588     0.832745
   4 :     0.000000     0.661499     0.727472     1.573384     2.734090     5.422732
   5 :     0.436473     0.451575     0.610851     1.852205     3.780551     8.724968
   6 :     0.000000     0.192390     0.373420     3.103992    10.598144    39.693717
   7 :     0.000000     0.064693     0.205345     5.738207    35.819468   237.074583
   8 :     0.000000     0.129757     0.270768     5.039509    30.611915   210.576548
   9 :     0.436473     0.451575     0.610851     1.852205     3.780551     8.724968
  10 :     0.437075     0.452067     0.611228     1.850983     3.775922     8.713547
  11 :     0.065680     0.105720     0.286139     3.929622    16.571988    73.841410
  12 :     0.066177     0.106131     0.286488     3.926876    16.549704    73.685870
  13 :     0.066177     0.106131     0.286488     3.926876    16.549704    73.685870
  14 :     0.019203     0.038394     0.165405     6.903602    51.081474   396.410068
  15 :     0.019203     0.038394     0.165405     6.903602    51.081474   396.410068
  16 :     0.019250     0.038474     0.165544     6.901163    51.058829   396.244236
  17 :     1.859810     0.645211     0.524938     3.316688    15.823439    96.928030
  18 :     1.859810     0.645211     0.524938     3.316688    15.823439    96.928030
  19 :     1.859505     0.644957     0.524729     3.317645    15.828520    96.949897
  20 :     0.000000    18.171278     3.513145     0.403235     0.349984     1.027220
Making the total density                ... o.k.
o.k.
Initializing the integrals              ... done
Making exponents                        ... done
Making rho(0)                           ... done (         0.053290314)
Integral calculation                    ... Two index integrals                     ... done
Solving the equation system             ... done
atomic density will be written to file 85_At_atom85.adf

-------
TIMINGS
-------

Total SCF time: 0 days 0 hours 0 min 0 sec 

Total time                  ....       0.620 sec
Sum of individual times     ....       0.216 sec  ( 34.8%)

Fock matrix formation       ....       0.149 sec  ( 24.1%)
Diagonalization             ....       0.029 sec  (  4.6%)
Density matrix formation    ....       0.000 sec  (  0.0%)
Population analysis         ....       0.000 sec  (  0.0%)
Initial guess               ....       0.000 sec  (  0.0%)
Orbital Transformation      ....       0.000 sec  (  0.0%)
Orbital Orthonormalization  ....       0.000 sec  (  0.0%)
DIIS solution               ....       0.037 sec  (  6.0%)

-------------------------   --------------------
FINAL SINGLE POINT ENERGY      -230.587392445691
-------------------------   --------------------


                            ***************************************
                            *     ORCA property calculations      *
                            ***************************************

                                    ---------------------
                                    Active property flags
                                    ---------------------
   (+) Dipole Moment


------------------------------------------------------------------------------
                       ORCA ELECTRIC PROPERTIES CALCULATION
------------------------------------------------------------------------------

Dipole Moment Calculation                       ... on
Quadrupole Moment Calculation                   ... off
Polarizability Calculation                      ... off
GBWName                                         ... 85_At_atom85.gbw
Electron density file                           ... 85_At_atom85.scfp
The origin for moment calculation is the CENTER OF MASS  = ( 0.000000,  0.000000  0.000000)

-------------
DIPOLE MOMENT
-------------
                                X             Y             Z
Electronic contribution:     -0.00000       0.00000      -0.00000
Nuclear contribution   :      0.00000       0.00000       0.00000
                        -----------------------------------------
Total Dipole Moment    :     -0.00000       0.00000      -0.00000
                        -----------------------------------------
Magnitude (a.u.)       :      0.00000
Magnitude (Debye)      :      0.00000



--------------------
Rotational spectrum 
--------------------
 
Rotational constants in cm-1:     0.000000     0.000000     0.000000 
Rotational constants in MHz :     0.000000     0.000000     0.000000 

 Dipole components along the rotational axes: 
x,y,z [a.u.] :    -0.000000     0.000000    -0.000000 
x,y,z [Debye]:    -0.000000     0.000000    -0.000000 

 

Timings for individual modules:

Sum of individual times         ...        0.934 sec (=   0.016 min)
GTO integral calculation        ...        0.291 sec (=   0.005 min)  31.2 %
SCF iterations                  ...        0.642 sec (=   0.011 min)  68.8 %
                             ****ORCA TERMINATED NORMALLY****
TOTAL RUN TIME: 0 days 0 hours 0 minutes 1 seconds 158 msec
