
                                 *****************
                                 * O   R   C   A *
                                 *****************

           --- An Ab Initio, DFT and Semiempirical electronic structure package ---

                  #######################################################
                  #                        -***-                        #
                  #          Department of theory and spectroscopy      #
                  #               Directorship: Frank Neese             #
                  #        Max Planck Institute fuer Kohlenforschung    #
                  #                Kaiser Wilhelm Platz 1               #
                  #                 D-45470 Muelheim/Ruhr               #
                  #                      Germany                        #
                  #                                                     #
                  #                  All rights reserved                #
                  #                        -***-                        #
                  #######################################################


                         Program Version 4.2.0 -  RELEASE  -


 With contributions from (in alphabetic order):
   Daniel Aravena         : Magnetic Suceptibility
   Michael Atanasov       : Ab Initio Ligand Field Theory (pilot matlab implementation)
   Alexander A. Auer      : GIAO ZORA, VPT2
   Ute Becker             : Parallelization
   Giovanni Bistoni       : ED, misc. LED, open-shell LED, HFLED
   Martin Brehm           : Molecular dynamics
   Dmytro Bykov           : SCF Hessian
   Vijay G. Chilkuri      : MRCI spin determinant printing, contributions to CSF-ICE
   Dipayan Datta          : RHF DLPNO-CCSD density
   Achintya Kumar Dutta   : EOM-CC, STEOM-CC
   Dmitry Ganyushin       : Spin-Orbit,Spin-Spin,Magnetic field MRCI
   Miquel Garcia          : C-PCM Hessian, Gaussian charge scheme
   Yang Guo               : DLPNO-NEVPT2, CIM, IAO-localization
   Andreas Hansen         : Spin unrestricted coupled pair/coupled cluster methods
   Benjamin Helmich-Paris : CASSCF linear response (MC-RPA)
   Lee Huntington         : MR-EOM, pCC
   Robert Izsak           : Overlap fitted RIJCOSX, COSX-SCS-MP3, EOM
   Christian Kollmar      : KDIIS, OOCD, Brueckner-CCSD(T), CCSD density
   Simone Kossmann        : Meta GGA functionals, TD-DFT gradient, OOMP2, MP2 Hessian
   Martin Krupicka        : AUTO-CI
   Lucas Lang             : DCDCAS
   Dagmar Lenk            : GEPOL surface, SMD
   Dimitrios Liakos       : Extrapolation schemes; Compound Job, initial MDCI parallelization
   Dimitrios Manganas     : Further ROCIS development; embedding schemes
   Dimitrios Pantazis     : SARC Basis sets
   Taras Petrenko         : DFT Hessian,TD-DFT gradient, ASA, ECA, R-Raman, ABS, FL, XAS/XES, NRVS
   Peter Pinski           : DLPNO-MP2, DLPNO-MP2 Gradient
   Christoph Reimann      : Effective Core Potentials
   Marius Retegan         : Local ZFS, SOC
   Christoph Riplinger    : Optimizer, TS searches, QM/MM, DLPNO-CCSD(T), (RO)-DLPNO pert. Triples
   Tobias Risthaus        : Range-separated hybrids, TD-DFT gradient, RPA, STAB
   Michael Roemelt        : Original ROCIS implementation
   Masaaki Saitow         : Open-shell DLPNO-CCSD energy and density
   Barbara Sandhoefer     : DKH picture change effects
   Avijit Sen             : IP-ROCIS
   Kantharuban Sivalingam : CASSCF convergence, NEVPT2, FIC-MRCI
   Bernardo de Souza      : ESD, SOC TD-DFT
   Georgi Stoychev        : AutoAux, RI-MP2 NMR
   Willem Van den Heuvel  : Paramagnetic NMR
   Boris Wezisla          : Elementary symmetry handling
   Frank Wennmohs         : Technical directorship


 We gratefully acknowledge several colleagues who have allowed us to
 interface, adapt or use parts of their codes:
   Stefan Grimme, W. Hujo, H. Kruse,             : VdW corrections, initial TS optimization,
                  C. Bannwarth                     DFT functionals, gCP, sTDA/sTD-DF
   Ed Valeev, F. Pavosevic, A. Kumar             : LibInt (2-el integral package), F12 methods
   Garnet Chan, S. Sharma, J. Yang, R. Olivares  : DMRG
   Ulf Ekstrom                                   : XCFun DFT Library
   Mihaly Kallay                                 : mrcc  (arbitrary order and MRCC methods)
   Andreas Klamt, Michael Diedenhofen            : otool_cosmo (COSMO solvation model)
   Jiri Pittner, Ondrej Demel                    : Mk-CCSD
   Frank Weinhold                                : gennbo (NPA and NBO analysis)
   Christopher J. Cramer and Donald G. Truhlar   : smd solvation model
   Lars Goerigk                                  : TD-DFT with DH, B97 family of functionals
   V. Asgeirsson, H. Jonsson                     : NEB implementation
   FAccTs GmbH                                   : IRC, NEB, NEB-TS, Multilevel, MM, QM/MM, CI optimization
   S Lehtola, MJT Oliveira, MAL Marques          : LibXC Library


 Your calculation uses the libint2 library for the computation of 2-el integrals
 For citations please refer to: http://libint.valeyev.net

 Your ORCA version has been built with support for libXC version: 4.2.3
 For citations please refer to: https://tddft.org/programs/libxc/

 This ORCA versions uses:
   CBLAS   interface :  Fast vector & matrix operations
   LAPACKE interface :  Fast linear algebra routines
   SCALAPACK package :  Parallel linear algebra routines


----- Orbital basis set information -----
Your calculation utilizes the basis: aug-cc-pVTZ-PP 
       Ca, Sr, Ba, Ra : Obtained from the Peterson Research Group Website (tyr0.chem.wsu.edu/~kipeters) Feb. 2017
                        H. Li, H. Feng, W. Sun, Y. Zhang, Q. Fan, K. A. Peterson, Y. Xie, H. F. Schaefer III, Mol. Phys. 111, 2292 (2013)
  Cu-Zn, Ag-Cd, Au-Hg : Obtained from the ccRepo (grant-hill.group.shef.ac.uk/ccrepo) Feb. 2017
                        K. A. Peterson, C. Puzzarini, Theor. Chem. Acc. 114, 283 (2005)
  Ga-Kr, In-Xe, Tl-Rn : Obtained from the ccRepo (grant-hill.group.shef.ac.uk/ccrepo) Feb. 2017
                        K. A. Peterson, J. Chem. Phys. 119, 11099 (2003)
                        K. A. Peterson, D. Figgen, E. Goll, H. Stoll, M. Dolg, J. Chem. Phys. 119, 11113 (2003)
                 Y-Pd : Obtained from the ccRepo (grant-hill.group.shef.ac.uk/ccrepo) Feb. 2017
                        K. A. Peterson, D. Figgen, M. Dolg, H. Stoll, J. Chem. Phys. 126, 124101 (2007)
                Hf-Pt : Obtained from the ccRepo (grant-hill.group.shef.ac.uk/ccrepo) Feb. 2017
                        D. Figgen, K. A. Peterson, M. Dolg, H. Stoll, J. Chem. Phys. 130, 164108 (2009)

cite the ECPs for Rn [SK MCDHF RSC] as follows:
O: B. Metz and H. Stoll, private communication (KAP)
Tl: B. Metz, M. Schweizer, H. Stoll, M. Dolg, W. Liu, Theor. Chem. Acc. 104, 22 (2000)
Ga-As, In-Sb, Pb-Bi: B. Metz, H. Stoll, M. Dolg, J. Chem. Phys. 113, 2563 (2000)
Se-Kr, Te-Xe, Po-Rn: K.A. Peterson, D. Figgen, E. Goll, H. Stoll, and M. Dolg, J. Chem. Phys., in press (2003)
Cu-Zn, Ag-Cd, Au-Hg: D. Figgen, G. Rauhut, M. Dolg, and H. Stoll, Chem. Phys. 311, 227 (2005)
Y-Pd: K.A. Peterson, D. Figgen, M. Dolg, H. Stoll, J. Chem. Phys. 126, 124101 (2007)
I: K. A. Peterson, B. C. Shepler, D. Figgen, H. Stoll, J. Phys. Chem. A 110, 13877 (2006)
Hf-Pt: D. Figgen, K.A. Peterson, M. Dolg, H. Stoll, J. Chem. Phys. 130, 164108 (2009)
Ca, Sr, Ba, Ra: I.S. Lim, H. Stoll, P. Schwerdtfeger, J. Chem. Phys. 124, 034107 (2006)

ECP parameters for Rn [SK MCDHF RSC] have been obtained from:
cc-pVDZ-PP  EMSL  Basis Set Exchange Library   4/7/16 5:27 AM
Ca, Sr, Ba, Ra: http://www.tc.uni-koeln.de/PP/index.en.html 3/16/17 1:54 PM

================================================================================
                                        WARNINGS
                       Please study these warnings very carefully!
================================================================================


WARNING: MDCI localization with Augmented Hessian Foster-Boys
  ===> : Switching off randomization!

WARNING: Post HF methods need fully converged wavefunctions
  ===> : Setting SCFConvForced true
         You can overwrite this default with %scf ConvForced false 


INFO   : the flag for use of LIBINT has been found!

================================================================================
                                       INPUT FILE
================================================================================
NAME = 86_Rn.in
|  1> #
|  2> # 85_At CCSD(T)/aug-cc-pVTZ-PP
|  3> #
|  4> ! CCSD(T) aug-cc-pVTZ-PP tightscf slowconv
|  5> 
|  6> *xyz 0 1
|  7>  Rn 0.0 0.0 0.0
|  8> *
|  9> 
| 10> %maxcore 5000 
| 11> 
| 12> %pal
| 13> nprocs 24
| 14> end
| 15> 
| 16> 
| 17>                          ****END OF INPUT****
================================================================================

                       ****************************
                       * Single Point Calculation *
                       ****************************

---------------------------------
CARTESIAN COORDINATES (ANGSTROEM)
---------------------------------
  Rn     0.000000    0.000000    0.000000

----------------------------
CARTESIAN COORDINATES (A.U.)
----------------------------
  NO LB      ZA    FRAG     MASS         X           Y           Z
   0 Rn   26.0000*   0   222.000    0.000000    0.000000    0.000000
* core charge reduced due to ECP

--------------------------------
INTERNAL COORDINATES (ANGSTROEM)
--------------------------------
 Rn     0   0   0     0.000000000000     0.00000000     0.00000000

---------------------------
INTERNAL COORDINATES (A.U.)
---------------------------
 Rn     0   0   0     0.000000000000     0.00000000     0.00000000

---------------------
BASIS SET INFORMATION
---------------------
There are 1 groups of distinct atoms

 Group   1 Type Rn  : 22s21p9d2f contracted to 6s5p4d2f pattern {991111/99111/6111/11}

Atom   0Rn   basis set group =>   1
-------------------------
ECP PARAMETER INFORMATION
-------------------------

 Group 1, Type Rn ECP SK MCDHF RSC (replacing 60 core electrons, lmax=5)

Atom   0Rn   ECP group =>   1



           ************************************************************
           *        Program running with 24 parallel MPI-processes    *
           *              working on a common directory               *
           ************************************************************
------------------------------------------------------------------------------
                           ORCA GTO INTEGRAL CALCULATION
------------------------------------------------------------------------------

                         BASIS SET STATISTICS AND STARTUP INFO

 # of primitive gaussian shells          ...   54
 # of primitive gaussian functions       ...  144
 # of contracted shells                  ...   17
 # of contracted basis functions         ...   55
 Highest angular momentum                ...    3
 Maximum contraction depth               ...    9
 Integral package used                   ... LIBINT
 Integral threshhold            Thresh   ...  2.500e-11
 Primitive cut-off              TCut     ...  2.500e-12


------------------------------ INTEGRAL EVALUATION ----------------------------


 * One electron integrals 

   ECP integrals                         ... done
 Pre-screening matrix                    ... done
 Shell pair data                         ... done (   0.000 sec)



           ************************************************************
           *        Program running with 24 parallel MPI-processes    *
           *              working on a common directory               *
           ************************************************************
-------------------------------------------------------------------------------
                                 ORCA SCF
-------------------------------------------------------------------------------

------------
SCF SETTINGS
------------
Hamiltonian:
 Ab initio Hamiltonian  Method          .... Hartree-Fock(GTOs)


General Settings:
 Integral files         IntName         .... 86_Rn
 Hartree-Fock type      HFTyp           .... RHF
 Total Charge           Charge          ....    0
 Multiplicity           Mult            ....    1
 Number of Electrons    NEL             ....   26
 Basis Dimension        Dim             ....   55
 Nuclear Repulsion      ENuc            ....      0.0000000000 Eh

Convergence Acceleration:
 DIIS                   CNVDIIS         .... on
   Start iteration      DIISMaxIt       ....     0
   Startup error        DIISStart       ....  0.200000
   # of expansion vecs  DIISMaxEq       ....     5
   Bias factor          DIISBfac        ....   1.050
   Max. coefficient     DIISMaxC        ....  10.000
 Newton-Raphson         CNVNR           .... off
 SOSCF                  CNVSOSCF        .... on
   Start iteration      SOSCFMaxIt      ....   150
   Startup grad/error   SOSCFStart      ....  0.001000
 Level Shifting         CNVShift        .... on
   Level shift para.    LevelShift      ....    0.2500
   Turn off err/grad.   ShiftErr        ....    0.0000
 Zerner damping         CNVZerner       .... off
 Static damping         CNVDamp         .... on
   Fraction old density DampFac         ....    0.8500
   Max. Damping (<1)    DampMax         ....    0.9800
   Min. Damping (>=0)   DampMin         ....    0.0000
   Turn off err/grad.   DampErr         ....    0.0300
 Fernandez-Rico         CNVRico         .... off

SCF Procedure:
 Maximum # iterations   MaxIter         ....   125
 SCF integral mode      SCFMode         .... Direct
   Integral package                     .... LIBINT
 Reset frequency        DirectResetFreq ....    20
 Integral Threshold     Thresh          ....  2.500e-11 Eh
 Primitive CutOff       TCut            ....  2.500e-12 Eh

Convergence Tolerance:
 Convergence Check Mode ConvCheckMode   .... Total+1el-Energy
 Convergence forced     ConvForced      .... 1
 Energy Change          TolE            ....  1.000e-08 Eh
 1-El. energy change                    ....  1.000e-05 Eh
 Orbital Gradient       TolG            ....  1.000e-05
 Orbital Rotation angle TolX            ....  1.000e-05
 DIIS Error             TolErr          ....  5.000e-07


Diagonalization of the overlap matrix:
Smallest eigenvalue                        ... 3.029e-03
Time for diagonalization                   ...    0.002 sec
Threshold for overlap eigenvalues          ... 1.000e-08
Number of eigenvalues below threshold      ... 0
Time for construction of square roots      ...    0.012 sec
Total time needed                          ...    0.014 sec

-------------------
DFT GRID GENERATION
-------------------

General Integration Accuracy     IntAcc      ...  4.340
Radial Grid Type                 RadialGrid  ... Gauss-Chebyshev
Angular Grid (max. acc.)         AngularGrid ... Lebedev-110
Angular grid pruning method      GridPruning ... 3 (G Style)
Weight generation scheme         WeightScheme... Becke
Basis function cutoff            BFCut       ...    1.0000e-11
Integration weight cutoff        WCut        ...    1.0000e-14
Grids for H and He will be reduced by one unit

# of grid points (after initial pruning)     ...   3552 (   0.0 sec)
# of grid points (after weights+screening)   ...   3552 (   0.0 sec)
Grid point division into batches done        ...    0.0 sec
Reduced shell lists constructed in    0.0 sec

Total number of grid points                  ...     3552
Total number of batches                      ...       56
Average number of points per batch           ...       63
Average number of grid points per atom       ...     3552
Average number of shells per batch           ...     8.50 (50.00%)
Average number of basis functions per batch  ...    25.00 (45.45%)
Average number of large shells per batch     ...     4.25 (50.00%)
Average number of large basis fcns per batch ...    11.75 (47.00%)
Maximum spatial batch extension              ...  24.96, 38.92, 38.92 au
Average spatial batch extension              ...   1.30,  1.85,  2.08 au

Time for grid setup =    0.074 sec

------------------------------
INITIAL GUESS: MODEL POTENTIAL
------------------------------
Loading Hartree-Fock densities                     ... done
  calling /sw/apps/orca/orca_4_2_0_linux_x86-64_openmpi314/orca 86_Rn_atom86.inp > 86_Rn_atom86.out in order to generate an atomic fitting density for atom 0 (Rn with ECP) on-the-fly... 
    atom 0 (Rn), assumed electronic state with S=1: 1s2 2s2 2p6 3s2 3p6 4s2 3d10 4p6 5s2 4d10 5p6 6s2 4f14 5d10 6p6           ... done
Calculating cut-offs                               ... done
Setting up the integral package                    ... done
Initializing the effective Hamiltonian             ... done
Starting the Coulomb interaction                   ... done (   0.0 sec)
Reading the grid                                   ... done
Mapping shells                                     ... done
Starting the XC term evaluation                    ... done (   0.0 sec)
Transforming the Hamiltonian                       ... done (   0.0 sec)
Diagonalizing the Hamiltonian                      ... done (   0.0 sec)
Back transforming the eigenvectors                 ... done (   0.0 sec)
Now organizing SCF variables                       ... done
                      ------------------
                      INITIAL GUESS DONE (   1.3 sec)
                      ------------------
--------------
SCF ITERATIONS
--------------
ITER       Energy         Delta-E        Max-DP      RMS-DP      [F,P]     Damp
               ***  Starting incremental Fock matrix formation  ***
  0   -281.0062313804   0.000000000000 2.50592082  0.07615748  1.2876693 0.8500
  1   -282.1819904773  -1.175759096958 2.15326246  0.06525355  1.0677783 0.8500
                               ***Turning on DIIS***
  2   -283.1020689126  -0.920078435268 1.81338530  0.05521243  0.8567936 0.8500
  3   -288.4864360174  -5.384367104856 1.48633289  0.04588906  0.6808571 0.8500
  4   -290.4705426800  -1.984106662586 1.23569198  0.03844406  0.5630061 0.8500
  5   -290.5955093734  -0.124966693324 1.04768117  0.03260289  0.4778636 0.8500
  6   -290.3100673191   0.285442054234 0.89430197  0.02776583  0.4093907 0.8500
  7   -289.6171679319   0.692899387241 0.76944566  0.02375912  0.3517483 0.8500
  8   -289.1615160787   0.455651853183 0.65889232  0.02027727  0.3010759 0.8500
  9   -288.8540471205   0.307468958157 0.56198060  0.01726737  0.2569195 0.8500
 10   -288.6237653573   0.230281763198 0.47839689  0.01468846  0.2188124 0.8500
 11   -288.4391489138   0.184616443518 0.40692271  0.01248929  0.1861049 0.8500
 12   -288.2866469364   0.152501977420 0.34604013  0.01061800  0.1581132 0.8500
 13   -288.1605948596   0.126052076793 0.29422806  0.00902645  0.1341999 0.8500
 14   -288.0565162625   0.104078597145 0.25015141  0.00767307  0.1138032 0.8500
 15   -287.9704804923   0.086035770188 0.21266578  0.00652237  0.0964324 0.8500
 16   -287.8992070045   0.071273487808 0.18079263  0.00554413  0.0816588 0.8500
 17   -287.8400352330   0.059171771487 0.15369573  0.00471258  0.0691092 0.8500
 18   -287.7908253820   0.049209850944 0.13066125  0.00400575  0.0584597 0.8500
 19   -287.7498468001   0.040978581923 0.11108088  0.00340496  0.0494305 0.8500
               *** Restarting incremental Fock matrix formation ***
                                   *** Resetting DIIS ***
 20   -287.3139680887   0.435878711456 0.09603757  0.00293624  0.0417808 0.8500
 21   -287.5022902439  -0.188322155239 0.08020404  0.00246373  0.0331133 0.8500
 22   -287.5917650323  -0.089474788403 0.44958088  0.01384781  0.0268455 0.0000
 23   -287.5075048510   0.084260181320 0.00418173  0.00019959  0.0037656 0.0000
                      *** Initiating the SOSCF procedure ***
                           *** Shutting down DIIS ***
                      *** Re-Reading the Fockian *** 
                      *** Removing any level shift *** 
ITER      Energy       Delta-E        Grad      Rot      Max-DP    RMS-DP
 24   -287.53678278  -0.0292779245  0.000616  0.000616  0.003342  0.000130
               *** Restarting incremental Fock matrix formation ***
 25   -287.54278041  -0.0059976315  0.000248  0.000450  0.001358  0.000057
 26   -287.54278129  -0.0000008854  0.000080  0.000137  0.000604  0.000032
 27   -287.54278136  -0.0000000669  0.000020  0.000008  0.000103  0.000004
                  ***Gradient check signals convergence***
              ***Rediagonalizing the Fockian in SOSCF/NRSCF***

               *****************************************************
               *                     SUCCESS                       *
               *           SCF CONVERGED AFTER  28 CYCLES          *
               *****************************************************


----------------
TOTAL SCF ENERGY
----------------

Total Energy       :         -287.54278136 Eh           -7824.43687 eV

Components:
Nuclear Repulsion  :            0.00000000 Eh               0.00000 eV
Electronic Energy  :         -287.54278136 Eh           -7824.43687 eV
One Electron Energy:         -499.62764465 Eh          -13595.55940 eV
Two Electron Energy:          212.08486329 Eh            5771.12253 eV

Virial components:
Potential Energy   :         -377.61263173 Eh          -10275.36210 eV
Kinetic Energy     :           90.06985037 Eh            2450.92523 eV
Virial Ratio       :            4.19244209


---------------
SCF CONVERGENCE
---------------

  Last Energy change         ...   -2.4314e-09  Tolerance :   1.0000e-08
  Last MAX-Density change    ...    7.0895e-06  Tolerance :   1.0000e-07
  Last RMS-Density change    ...    3.1073e-07  Tolerance :   5.0000e-09
  Last Orbital Gradient      ...    1.8165e-06  Tolerance :   1.0000e-05
  Last Orbital Rotation      ...    1.9426e-06  Tolerance :   1.0000e-05

             **** THE GBW FILE WAS UPDATED (86_Rn.gbw) ****
             **** DENSITY FILE WAS UPDATED (86_Rn.scfp) ****
             **** ENERGY FILE WAS UPDATED (86_Rn.en.tmp) ****
             **** THE GBW FILE WAS UPDATED (86_Rn.gbw) ****
             **** DENSITY FILE WAS UPDATED (86_Rn.scfp) ****
----------------
ORBITAL ENERGIES
----------------

  NO   OCC          E(Eh)            E(eV) 
   0   2.0000      -8.326287      -226.5698 
   1   2.0000      -5.537259      -150.6765 
   2   2.0000      -5.537259      -150.6765 
   3   2.0000      -5.537259      -150.6765 
   4   2.0000      -2.087552       -56.8052 
   5   2.0000      -2.087552       -56.8052 
   6   2.0000      -2.087552       -56.8052 
   7   2.0000      -2.087552       -56.8052 
   8   2.0000      -2.087552       -56.8052 
   9   2.0000      -1.070706       -29.1354 
  10   2.0000      -0.427463       -11.6319 
  11   2.0000      -0.427463       -11.6319 
  12   2.0000      -0.427463       -11.6319 
  13   0.0000       0.070254         1.9117 
  14   0.0000       0.122583         3.3357 
  15   0.0000       0.122583         3.3357 
  16   0.0000       0.122583         3.3357 
  17   0.0000       0.197590         5.3767 
  18   0.0000       0.197590         5.3767 
  19   0.0000       0.197590         5.3767 
  20   0.0000       0.197590         5.3767 
  21   0.0000       0.197590         5.3767 
  22   0.0000       0.415424        11.3043 
  23   0.0000       0.597372        16.2553 
  24   0.0000       0.597372        16.2553 
  25   0.0000       0.597372        16.2553 
  26   0.0000       0.597372        16.2553 
  27   0.0000       0.597372        16.2553 
  28   0.0000       0.694819        18.9070 
  29   0.0000       0.694819        18.9070 
  30   0.0000       0.694819        18.9070 
  31   0.0000       0.694819        18.9070 
  32   0.0000       0.694819        18.9070 
  33   0.0000       0.694819        18.9070 
  34   0.0000       0.694819        18.9070 
  35   0.0000       0.699359        19.0305 
  36   0.0000       0.699359        19.0305 
  37   0.0000       0.699359        19.0305 
  38   0.0000       1.445736        39.3405 
  39   0.0000       1.445736        39.3405 
  40   0.0000       1.445736        39.3405 
  41   0.0000       1.445736        39.3405 
  42   0.0000       1.445736        39.3405 
  43   0.0000       1.445736        39.3405 
  44   0.0000       1.445736        39.3405 
  45   0.0000       1.567221        42.6462 
  46   0.0000       1.963462        53.4285 
  47   0.0000       1.963462        53.4285 
  48   0.0000       1.963462        53.4285 
  49   0.0000       1.963462        53.4285 
  50   0.0000       1.963462        53.4285 
  51   0.0000       5.932567       161.4333 
  52   0.0000       5.932567       161.4333 
  53   0.0000       5.932567       161.4333 
  54   0.0000      58.068696      1580.1295 

                    ********************************
                    * MULLIKEN POPULATION ANALYSIS *
                    ********************************

-----------------------
MULLIKEN ATOMIC CHARGES
-----------------------
   0 Rn:   -0.000000
Sum of atomic charges:   -0.0000000

--------------------------------
MULLIKEN REDUCED ORBITAL CHARGES
--------------------------------
  0 Rns       :     4.000000  s :     4.000000
      pz      :     4.000000  p :    12.000000
      px      :     4.000000
      py      :     4.000000
      dz2     :     2.000000  d :    10.000000
      dxz     :     2.000000
      dyz     :     2.000000
      dx2y2   :     2.000000
      dxy     :     2.000000
      f0      :     0.000000  f :     0.000000
      f+1     :     0.000000
      f-1     :     0.000000
      f+2     :     0.000000
      f-2     :     0.000000
      f+3     :     0.000000
      f-3     :     0.000000


                     *******************************
                     * LOEWDIN POPULATION ANALYSIS *
                     *******************************

----------------------
LOEWDIN ATOMIC CHARGES
----------------------
   0 Rn:   -0.000000

-------------------------------
LOEWDIN REDUCED ORBITAL CHARGES
-------------------------------
  0 Rns       :     4.000000  s :     4.000000
      pz      :     4.000000  p :    12.000000
      px      :     4.000000
      py      :     4.000000
      dz2     :     2.000000  d :    10.000000
      dxz     :     2.000000
      dyz     :     2.000000
      dx2y2   :     2.000000
      dxy     :     2.000000
      f0      :     0.000000  f :     0.000000
      f+1     :     0.000000
      f-1     :     0.000000
      f+2     :     0.000000
      f-2     :     0.000000
      f+3     :     0.000000
      f-3     :     0.000000


                      *****************************
                      * MAYER POPULATION ANALYSIS *
                      *****************************

  NA   - Mulliken gross atomic population
  ZA   - Total nuclear charge
  QA   - Mulliken gross atomic charge
  VA   - Mayer's total valence
  BVA  - Mayer's bonded valence
  FA   - Mayer's free valence

  ATOM       NA         ZA         QA         VA         BVA        FA
  0 Rn    26.0000    26.0000    -0.0000    -0.0000     0.0000    -0.0000

  Mayer bond orders larger than 0.100000


--------------------------
ATOM BASIS FOR ELEMENT Rn
--------------------------
 NewGTO Rn
 S 22
    1       3407.200000000000        -0.000229015646
    2        516.483000000000        -0.001255085747
    3         97.028100000000        -0.003674251023
    4         26.465500000000         0.088580051745
    5         16.563100000000        -0.373344506710
    6          7.251060000000         0.962302744042
    7          2.171930000000        -0.875226795057
    8          1.180120000000        -0.552071717263
    9          0.090925000000        -0.002096143207
   10       3407.200000000000         0.000000032149
   11        516.483000000000         0.000000203437
   12         97.028100000000         0.000000347977
   13         26.465500000000        -0.000008439917
   14         16.563100000000         0.000042753568
   15          7.251060000000        -0.000132059386
   16          2.171930000000         0.000187577505
   17          1.180120000000         0.000116587663
   18          0.090925000000        -0.000033152700
   19          0.401495000000        -0.036631297028
   20          0.194842000000         0.011654753448
   21          0.106000000000        -0.002330239187
   22          0.042900000000         0.000871100301
 S 21
    1       3407.200000000000        -0.000000005818
    2        516.483000000000        -0.000000031885
    3         97.028100000000        -0.000000093344
    4         26.465500000000         0.000002250368
    5         16.563100000000        -0.000009484783
    6          7.251060000000         0.000024447214
    7          2.171930000000        -0.000022235058
    8          1.180120000000        -0.000014025332
    9       3407.200000000000        -0.000124992764
   10        516.483000000000        -0.000790954209
   11         97.028100000000        -0.001352921676
   12         26.465500000000         0.032814100301
   13         16.563100000000        -0.166224376812
   14          7.251060000000         0.513442275408
   15          2.171930000000        -0.729294779111
   16          1.180120000000        -0.453288757862
   17          0.090925000000         0.128896537823
   18          0.401495000000         0.650948415071
   19          0.194842000000         0.587127224150
   20          0.106000000000        -0.001013403449
   21          0.042900000000         0.000448473577
 S 22
    1       3407.200000000000         0.000010788060
    2        516.483000000000         0.000059122337
    3         97.028100000000         0.000173080054
    4         26.465500000000        -0.004172670851
    5         16.563100000000         0.017586846134
    6          7.251060000000        -0.045330438750
    7          2.171930000000         0.041228620485
    8          1.180120000000         0.026006008317
    9          0.090925000000         0.000098741370
   10       3407.200000000000        -0.000046139359
   11        516.483000000000        -0.000291969862
   12         97.028100000000        -0.000499412418
   13         26.465500000000         0.012112873548
   14         16.563100000000        -0.061359441169
   15          7.251060000000         0.189530150124
   16          2.171930000000        -0.269209131367
   17          1.180120000000        -0.167325306937
   18          0.090925000000         0.047580383101
   19          0.401495000000         0.577432815633
   20          0.194842000000        -1.086806659125
   21          0.106000000000         2.256797259640
   22          0.042900000000        -2.165968855959
 S 22
    1       3407.200000000000        -0.000003684087
    2        516.483000000000        -0.000020190086
    3         97.028100000000        -0.000059106275
    4         26.465500000000         0.001424953504
    5         16.563100000000        -0.006005850670
    6          7.251060000000         0.015480197180
    7          2.171930000000        -0.014079439603
    8          1.180120000000        -0.008880967132
    9          0.090925000000        -0.000033719856
   10       3407.200000000000        -0.000053438592
   11        516.483000000000        -0.000338159413
   12         97.028100000000        -0.000578419324
   13         26.465500000000         0.014029126792
   14         16.563100000000        -0.071066487784
   15          7.251060000000         0.219513767434
   16          2.171930000000        -0.311797941463
   17          1.180120000000        -0.193796124198
   18          0.090925000000         0.055107586543
   19          0.401495000000        -0.904934693729
   20          0.194842000000         6.149399765414
   21          0.106000000000        -7.321647653110
   22          0.042900000000         2.358281705959
 S 22
    1       3407.200000000000         0.000161089500
    2        516.483000000000         0.000882826735
    3         97.028100000000         0.002584466474
    4         26.465500000000        -0.062307167531
    5         16.563100000000         0.262610353779
    6          7.251060000000        -0.676883306205
    7          2.171930000000         0.615634123861
    8          1.180120000000         0.388326991227
    9          0.090925000000         0.001474426165
   10       3407.200000000000        -0.000338053082
   11        516.483000000000        -0.002139199904
   12         97.028100000000        -0.003659086561
   13         26.465500000000         0.088748399550
   14         16.563100000000        -0.449567328461
   15          7.251060000000         1.388646337569
   16          2.171930000000        -1.972436966191
   17          1.180120000000        -1.225956263468
   18          0.090925000000         0.348611156009
   19          0.401495000000         7.147477543305
   20          0.194842000000       -11.426677582372
   21          0.106000000000         6.913290917369
   22          0.042900000000        -1.505527353854
 S 22
    1       3407.200000000000        -0.001183650903
    2        516.483000000000        -0.006486820452
    3         97.028100000000        -0.018990102265
    4         26.465500000000         0.457819629284
    5         16.563100000000        -1.929604242605
    6          7.251060000000         4.973592551121
    7          2.171930000000        -4.523546768818
    8          1.180120000000        -2.853342981371
    9          0.090925000000        -0.010833765473
   10       3407.200000000000         0.000632600062
   11        516.483000000000         0.004003093190
   12         97.028100000000         0.006847263067
   13         26.465500000000        -0.166075228979
   14         16.563100000000         0.841277109155
   15          7.251060000000        -2.598579350747
   16          2.171930000000         3.691029049171
   17          1.180120000000         2.294136775489
   18          0.090925000000        -0.652357426751
   19          0.401495000000         1.655824857315
   20          0.194842000000        -2.124561277002
   21          0.106000000000         1.879726508604
   22          0.042900000000        -0.178619051501
 P 21
    1         20.723900000000         0.008712784754
    2         12.999600000000        -0.161543550108
    3          8.173480000000         0.433958086285
    4          2.747420000000        -0.444808063534
    5          1.563900000000        -0.562235640150
    6          0.811020000000        -0.191272227749
    7          0.400963000000        -0.013352202623
    8          0.173764000000        -0.001526137458
    9          0.071576000000         0.000156014052
   10         20.723900000000         0.000000034228
   11         12.999600000000         0.000007562543
   12          8.173480000000        -0.000024323211
   13          2.747420000000         0.000034130822
   14          1.563900000000         0.000042227492
   15          0.811020000000         0.000007140647
   16          0.400963000000        -0.000065377121
   17          0.173764000000        -0.000080511022
   18          0.071576000000        -0.000029368628
   19          0.646300000000         0.000074611685
   20          0.108300000000         0.000173668354
   21          0.042600000000        -0.000066815549
 P 19
    1         20.723900000000        -0.000000407032
    2         12.999600000000         0.000007546775
    3          8.173480000000        -0.000020273073
    4          2.747420000000         0.000020779948
    5          1.563900000000         0.000026265772
    6          0.811020000000         0.000008935600
    7          0.400963000000         0.000000623770
    8         20.723900000000        -0.000233027535
    9         12.999600000000        -0.051487083869
   10          8.173480000000         0.165596567388
   11          2.747420000000        -0.232368457356
   12          1.563900000000        -0.287491970916
   13          0.811020000000        -0.048614744464
   14          0.400963000000         0.445098594188
   15          0.173764000000         0.548132769016
   16          0.071576000000         0.199946626294
   17          0.646300000000         0.000012189990
   18          0.108300000000        -0.000464259929
   19          0.042600000000         0.000495355579
 P 21
    1         20.723900000000         0.000848660529
    2         12.999600000000        -0.015734996158
    3          8.173480000000         0.042269275474
    4          2.747420000000        -0.043326107209
    5          1.563900000000        -0.054764028845
    6          0.811020000000        -0.018630689785
    7          0.400963000000        -0.001300558622
    8          0.173764000000        -0.000148651970
    9          0.071576000000         0.000015196401
   10         20.723900000000        -0.000026060941
   11         12.999600000000        -0.005758125847
   12          8.173480000000         0.018519710248
   13          2.747420000000        -0.025987232519
   14          1.563900000000        -0.032152043270
   15          0.811020000000        -0.005436893986
   16          0.400963000000         0.049778187594
   17          0.173764000000         0.061301150259
   18          0.071576000000         0.022361294334
   19          0.646300000000         0.045719538651
   20          0.108300000000         0.832666569527
   21          0.042600000000        -1.492991289968
 P 21
    1         20.723900000000        -0.006310927758
    2         12.999600000000         0.117010772477
    3          8.173480000000        -0.314328680190
    4          2.747420000000         0.322187639699
    5          1.563900000000         0.407243907440
    6          0.811020000000         0.138544133190
    7          0.400963000000         0.009671395374
    8          0.173764000000         0.001105426510
    9          0.071576000000        -0.000113005593
   10         20.723900000000        -0.000597007449
   11         12.999600000000        -0.131907899059
   12          8.173480000000         0.424251941541
   13          2.747420000000        -0.595318917178
   14          1.563900000000        -0.736543207157
   15          0.811020000000        -0.124549077628
   16          0.400963000000         1.140325223763
   17          0.173764000000         1.404294757704
   18          0.071576000000         0.512255451595
   19          0.646300000000        -0.124735983369
   20          0.108300000000        -3.435674559490
   21          0.042600000000         0.928729965684
 P 21
    1         20.723900000000         0.043644079147
    2         12.999600000000        -0.809203909612
    3          8.173480000000         2.173782734091
    4          2.747420000000        -2.228132437336
    5          1.563900000000        -2.816350623884
    6          0.811020000000        -0.958120793993
    7          0.400963000000        -0.066883849942
    8          0.173764000000        -0.007644727362
    9          0.071576000000         0.000781505549
   10         20.723900000000         0.001365399964
   11         12.999600000000         0.301683070983
   12          8.173480000000        -0.970295406928
   13          2.747420000000         1.361538167385
   14          1.563900000000         1.684528509907
   15          0.811020000000         0.284852904905
   16          0.400963000000        -2.608007692324
   17          0.173764000000        -3.211725439430
   18          0.071576000000        -1.171565909754
   19          0.646300000000         5.040129554594
   20          0.108300000000         4.513131523625
   21          0.042600000000        -0.504328928532
 D 9
    1         75.431800000000        -0.000734020574
    2         18.017100000000        -0.008865248482
    3          7.351650000000         0.077147162344
    4          3.252120000000        -0.225043307697
    5          1.809890000000        -0.438669295381
    6          0.956550000000        -0.354588938708
    7          0.474750000000        -0.133730041311
    8          0.196000000000        -0.015315745084
    9          0.079400000000         0.000251515142
 D 9
    1         75.431800000000        -0.000125318056
    2         18.017100000000        -0.001513548460
    3          7.351650000000         0.013171200894
    4          3.252120000000        -0.038421252649
    5          1.809890000000        -0.074893246103
    6          0.956550000000        -0.060538352996
    7          0.474750000000         0.123633457077
    8          0.196000000000        -0.148863254664
    9          0.079400000000         1.071715515844
 D 9
    1         75.431800000000        -0.000235773934
    2         18.017100000000        -0.002847596627
    3          7.351650000000         0.024780354405
    4          3.252120000000        -0.072285911132
    5          1.809890000000        -0.140904477571
    6          0.956550000000        -0.113897119510
    7          0.474750000000        -0.174918014702
    8          0.196000000000         1.610738490540
    9          0.079400000000        -1.046960766595
 D 9
    1         75.431800000000        -0.000778884792
    2         18.017100000000        -0.009407103110
    3          7.351650000000         0.081862489497
    4          3.252120000000        -0.238798224758
    5          1.809890000000        -0.465481289201
    6          0.956550000000        -0.376261840216
    7          0.474750000000         2.091569735461
    8          0.196000000000        -1.703202228326
    9          0.079400000000         0.603172034667
 F 2
    1          0.430300000000        -0.057103963724
    2          0.208400000000         1.042036622076
 F 2
    1          0.430300000000         1.507405604076
    2          0.208400000000        -1.090730120664
 end
  // -----------------------------------------------
  // The basis set
  // -----------------------------------------------
  BAS[ATNO] = new BFNGauss[NSH];
  // Basis function   1 L = s
  InitBFNGauss(BAS[ATNO][  0]);
  BAS[ATNO][  0].l  = 0;
  BAS[ATNO][  0].ng = 22;
  BAS[ATNO][  0].a[  0] =      3407.200000000000;     BAS[ATNO][  0].d[  0] =        -0.000229015646;
  BAS[ATNO][  0].a[  1] =       516.483000000000;     BAS[ATNO][  0].d[  1] =        -0.001255085747;
  BAS[ATNO][  0].a[  2] =        97.028100000000;     BAS[ATNO][  0].d[  2] =        -0.003674251023;
  BAS[ATNO][  0].a[  3] =        26.465500000000;     BAS[ATNO][  0].d[  3] =         0.088580051745;
  BAS[ATNO][  0].a[  4] =        16.563100000000;     BAS[ATNO][  0].d[  4] =        -0.373344506710;
  BAS[ATNO][  0].a[  5] =         7.251060000000;     BAS[ATNO][  0].d[  5] =         0.962302744042;
  BAS[ATNO][  0].a[  6] =         2.171930000000;     BAS[ATNO][  0].d[  6] =        -0.875226795057;
  BAS[ATNO][  0].a[  7] =         1.180120000000;     BAS[ATNO][  0].d[  7] =        -0.552071717263;
  BAS[ATNO][  0].a[  8] =         0.090925000000;     BAS[ATNO][  0].d[  8] =        -0.002096143207;
  BAS[ATNO][  0].a[  9] =      3407.200000000000;     BAS[ATNO][  0].d[  9] =         0.000000032149;
  BAS[ATNO][  0].a[ 10] =       516.483000000000;     BAS[ATNO][  0].d[ 10] =         0.000000203437;
  BAS[ATNO][  0].a[ 11] =        97.028100000000;     BAS[ATNO][  0].d[ 11] =         0.000000347977;
  BAS[ATNO][  0].a[ 12] =        26.465500000000;     BAS[ATNO][  0].d[ 12] =        -0.000008439917;
  BAS[ATNO][  0].a[ 13] =        16.563100000000;     BAS[ATNO][  0].d[ 13] =         0.000042753568;
  BAS[ATNO][  0].a[ 14] =         7.251060000000;     BAS[ATNO][  0].d[ 14] =        -0.000132059386;
  BAS[ATNO][  0].a[ 15] =         2.171930000000;     BAS[ATNO][  0].d[ 15] =         0.000187577505;
  BAS[ATNO][  0].a[ 16] =         1.180120000000;     BAS[ATNO][  0].d[ 16] =         0.000116587663;
  BAS[ATNO][  0].a[ 17] =         0.090925000000;     BAS[ATNO][  0].d[ 17] =        -0.000033152700;
  BAS[ATNO][  0].a[ 18] =         0.401495000000;     BAS[ATNO][  0].d[ 18] =        -0.036631297028;
  BAS[ATNO][  0].a[ 19] =         0.194842000000;     BAS[ATNO][  0].d[ 19] =         0.011654753448;
  BAS[ATNO][  0].a[ 20] =         0.106000000000;     BAS[ATNO][  0].d[ 20] =        -0.002330239187;
  BAS[ATNO][  0].a[ 21] =         0.042900000000;     BAS[ATNO][  0].d[ 21] =         0.000871100301;

  // Basis function   2 L = s
  InitBFNGauss(BAS[ATNO][  1]);
  BAS[ATNO][  1].l  = 0;
  BAS[ATNO][  1].ng = 21;
  BAS[ATNO][  1].a[  0] =      3407.200000000000;     BAS[ATNO][  1].d[  0] =         0.000000005818;
  BAS[ATNO][  1].a[  1] =       516.483000000000;     BAS[ATNO][  1].d[  1] =         0.000000031885;
  BAS[ATNO][  1].a[  2] =        97.028100000000;     BAS[ATNO][  1].d[  2] =         0.000000093344;
  BAS[ATNO][  1].a[  3] =        26.465500000000;     BAS[ATNO][  1].d[  3] =        -0.000002250368;
  BAS[ATNO][  1].a[  4] =        16.563100000000;     BAS[ATNO][  1].d[  4] =         0.000009484783;
  BAS[ATNO][  1].a[  5] =         7.251060000000;     BAS[ATNO][  1].d[  5] =        -0.000024447214;
  BAS[ATNO][  1].a[  6] =         2.171930000000;     BAS[ATNO][  1].d[  6] =         0.000022235058;
  BAS[ATNO][  1].a[  7] =         1.180120000000;     BAS[ATNO][  1].d[  7] =         0.000014025332;
  BAS[ATNO][  1].a[  8] =      3407.200000000000;     BAS[ATNO][  1].d[  8] =         0.000124992764;
  BAS[ATNO][  1].a[  9] =       516.483000000000;     BAS[ATNO][  1].d[  9] =         0.000790954209;
  BAS[ATNO][  1].a[ 10] =        97.028100000000;     BAS[ATNO][  1].d[ 10] =         0.001352921676;
  BAS[ATNO][  1].a[ 11] =        26.465500000000;     BAS[ATNO][  1].d[ 11] =        -0.032814100301;
  BAS[ATNO][  1].a[ 12] =        16.563100000000;     BAS[ATNO][  1].d[ 12] =         0.166224376812;
  BAS[ATNO][  1].a[ 13] =         7.251060000000;     BAS[ATNO][  1].d[ 13] =        -0.513442275408;
  BAS[ATNO][  1].a[ 14] =         2.171930000000;     BAS[ATNO][  1].d[ 14] =         0.729294779111;
  BAS[ATNO][  1].a[ 15] =         1.180120000000;     BAS[ATNO][  1].d[ 15] =         0.453288757862;
  BAS[ATNO][  1].a[ 16] =         0.090925000000;     BAS[ATNO][  1].d[ 16] =        -0.128896537823;
  BAS[ATNO][  1].a[ 17] =         0.401495000000;     BAS[ATNO][  1].d[ 17] =        -0.650948415071;
  BAS[ATNO][  1].a[ 18] =         0.194842000000;     BAS[ATNO][  1].d[ 18] =        -0.587127224150;
  BAS[ATNO][  1].a[ 19] =         0.106000000000;     BAS[ATNO][  1].d[ 19] =         0.001013403449;
  BAS[ATNO][  1].a[ 20] =         0.042900000000;     BAS[ATNO][  1].d[ 20] =        -0.000448473577;

  // Basis function   3 L = s
  InitBFNGauss(BAS[ATNO][  2]);
  BAS[ATNO][  2].l  = 0;
  BAS[ATNO][  2].ng = 22;
  BAS[ATNO][  2].a[  0] =      3407.200000000000;     BAS[ATNO][  2].d[  0] =         0.000010788060;
  BAS[ATNO][  2].a[  1] =       516.483000000000;     BAS[ATNO][  2].d[  1] =         0.000059122337;
  BAS[ATNO][  2].a[  2] =        97.028100000000;     BAS[ATNO][  2].d[  2] =         0.000173080054;
  BAS[ATNO][  2].a[  3] =        26.465500000000;     BAS[ATNO][  2].d[  3] =        -0.004172670851;
  BAS[ATNO][  2].a[  4] =        16.563100000000;     BAS[ATNO][  2].d[  4] =         0.017586846134;
  BAS[ATNO][  2].a[  5] =         7.251060000000;     BAS[ATNO][  2].d[  5] =        -0.045330438750;
  BAS[ATNO][  2].a[  6] =         2.171930000000;     BAS[ATNO][  2].d[  6] =         0.041228620485;
  BAS[ATNO][  2].a[  7] =         1.180120000000;     BAS[ATNO][  2].d[  7] =         0.026006008317;
  BAS[ATNO][  2].a[  8] =         0.090925000000;     BAS[ATNO][  2].d[  8] =         0.000098741370;
  BAS[ATNO][  2].a[  9] =      3407.200000000000;     BAS[ATNO][  2].d[  9] =        -0.000046139359;
  BAS[ATNO][  2].a[ 10] =       516.483000000000;     BAS[ATNO][  2].d[ 10] =        -0.000291969862;
  BAS[ATNO][  2].a[ 11] =        97.028100000000;     BAS[ATNO][  2].d[ 11] =        -0.000499412418;
  BAS[ATNO][  2].a[ 12] =        26.465500000000;     BAS[ATNO][  2].d[ 12] =         0.012112873548;
  BAS[ATNO][  2].a[ 13] =        16.563100000000;     BAS[ATNO][  2].d[ 13] =        -0.061359441169;
  BAS[ATNO][  2].a[ 14] =         7.251060000000;     BAS[ATNO][  2].d[ 14] =         0.189530150124;
  BAS[ATNO][  2].a[ 15] =         2.171930000000;     BAS[ATNO][  2].d[ 15] =        -0.269209131367;
  BAS[ATNO][  2].a[ 16] =         1.180120000000;     BAS[ATNO][  2].d[ 16] =        -0.167325306937;
  BAS[ATNO][  2].a[ 17] =         0.090925000000;     BAS[ATNO][  2].d[ 17] =         0.047580383101;
  BAS[ATNO][  2].a[ 18] =         0.401495000000;     BAS[ATNO][  2].d[ 18] =         0.577432815633;
  BAS[ATNO][  2].a[ 19] =         0.194842000000;     BAS[ATNO][  2].d[ 19] =        -1.086806659125;
  BAS[ATNO][  2].a[ 20] =         0.106000000000;     BAS[ATNO][  2].d[ 20] =         2.256797259640;
  BAS[ATNO][  2].a[ 21] =         0.042900000000;     BAS[ATNO][  2].d[ 21] =        -2.165968855959;

  // Basis function   4 L = s
  InitBFNGauss(BAS[ATNO][  3]);
  BAS[ATNO][  3].l  = 0;
  BAS[ATNO][  3].ng = 22;
  BAS[ATNO][  3].a[  0] =      3407.200000000000;     BAS[ATNO][  3].d[  0] =         0.000003684087;
  BAS[ATNO][  3].a[  1] =       516.483000000000;     BAS[ATNO][  3].d[  1] =         0.000020190086;
  BAS[ATNO][  3].a[  2] =        97.028100000000;     BAS[ATNO][  3].d[  2] =         0.000059106275;
  BAS[ATNO][  3].a[  3] =        26.465500000000;     BAS[ATNO][  3].d[  3] =        -0.001424953504;
  BAS[ATNO][  3].a[  4] =        16.563100000000;     BAS[ATNO][  3].d[  4] =         0.006005850670;
  BAS[ATNO][  3].a[  5] =         7.251060000000;     BAS[ATNO][  3].d[  5] =        -0.015480197180;
  BAS[ATNO][  3].a[  6] =         2.171930000000;     BAS[ATNO][  3].d[  6] =         0.014079439603;
  BAS[ATNO][  3].a[  7] =         1.180120000000;     BAS[ATNO][  3].d[  7] =         0.008880967132;
  BAS[ATNO][  3].a[  8] =         0.090925000000;     BAS[ATNO][  3].d[  8] =         0.000033719856;
  BAS[ATNO][  3].a[  9] =      3407.200000000000;     BAS[ATNO][  3].d[  9] =         0.000053438592;
  BAS[ATNO][  3].a[ 10] =       516.483000000000;     BAS[ATNO][  3].d[ 10] =         0.000338159413;
  BAS[ATNO][  3].a[ 11] =        97.028100000000;     BAS[ATNO][  3].d[ 11] =         0.000578419324;
  BAS[ATNO][  3].a[ 12] =        26.465500000000;     BAS[ATNO][  3].d[ 12] =        -0.014029126792;
  BAS[ATNO][  3].a[ 13] =        16.563100000000;     BAS[ATNO][  3].d[ 13] =         0.071066487784;
  BAS[ATNO][  3].a[ 14] =         7.251060000000;     BAS[ATNO][  3].d[ 14] =        -0.219513767434;
  BAS[ATNO][  3].a[ 15] =         2.171930000000;     BAS[ATNO][  3].d[ 15] =         0.311797941463;
  BAS[ATNO][  3].a[ 16] =         1.180120000000;     BAS[ATNO][  3].d[ 16] =         0.193796124198;
  BAS[ATNO][  3].a[ 17] =         0.090925000000;     BAS[ATNO][  3].d[ 17] =        -0.055107586543;
  BAS[ATNO][  3].a[ 18] =         0.401495000000;     BAS[ATNO][  3].d[ 18] =         0.904934693729;
  BAS[ATNO][  3].a[ 19] =         0.194842000000;     BAS[ATNO][  3].d[ 19] =        -6.149399765414;
  BAS[ATNO][  3].a[ 20] =         0.106000000000;     BAS[ATNO][  3].d[ 20] =         7.321647653110;
  BAS[ATNO][  3].a[ 21] =         0.042900000000;     BAS[ATNO][  3].d[ 21] =        -2.358281705959;

  // Basis function   5 L = s
  InitBFNGauss(BAS[ATNO][  4]);
  BAS[ATNO][  4].l  = 0;
  BAS[ATNO][  4].ng = 22;
  BAS[ATNO][  4].a[  0] =      3407.200000000000;     BAS[ATNO][  4].d[  0] =        -0.000161089500;
  BAS[ATNO][  4].a[  1] =       516.483000000000;     BAS[ATNO][  4].d[  1] =        -0.000882826735;
  BAS[ATNO][  4].a[  2] =        97.028100000000;     BAS[ATNO][  4].d[  2] =        -0.002584466474;
  BAS[ATNO][  4].a[  3] =        26.465500000000;     BAS[ATNO][  4].d[  3] =         0.062307167531;
  BAS[ATNO][  4].a[  4] =        16.563100000000;     BAS[ATNO][  4].d[  4] =        -0.262610353779;
  BAS[ATNO][  4].a[  5] =         7.251060000000;     BAS[ATNO][  4].d[  5] =         0.676883306205;
  BAS[ATNO][  4].a[  6] =         2.171930000000;     BAS[ATNO][  4].d[  6] =        -0.615634123861;
  BAS[ATNO][  4].a[  7] =         1.180120000000;     BAS[ATNO][  4].d[  7] =        -0.388326991227;
  BAS[ATNO][  4].a[  8] =         0.090925000000;     BAS[ATNO][  4].d[  8] =        -0.001474426165;
  BAS[ATNO][  4].a[  9] =      3407.200000000000;     BAS[ATNO][  4].d[  9] =         0.000338053082;
  BAS[ATNO][  4].a[ 10] =       516.483000000000;     BAS[ATNO][  4].d[ 10] =         0.002139199904;
  BAS[ATNO][  4].a[ 11] =        97.028100000000;     BAS[ATNO][  4].d[ 11] =         0.003659086561;
  BAS[ATNO][  4].a[ 12] =        26.465500000000;     BAS[ATNO][  4].d[ 12] =        -0.088748399550;
  BAS[ATNO][  4].a[ 13] =        16.563100000000;     BAS[ATNO][  4].d[ 13] =         0.449567328461;
  BAS[ATNO][  4].a[ 14] =         7.251060000000;     BAS[ATNO][  4].d[ 14] =        -1.388646337569;
  BAS[ATNO][  4].a[ 15] =         2.171930000000;     BAS[ATNO][  4].d[ 15] =         1.972436966191;
  BAS[ATNO][  4].a[ 16] =         1.180120000000;     BAS[ATNO][  4].d[ 16] =         1.225956263468;
  BAS[ATNO][  4].a[ 17] =         0.090925000000;     BAS[ATNO][  4].d[ 17] =        -0.348611156009;
  BAS[ATNO][  4].a[ 18] =         0.401495000000;     BAS[ATNO][  4].d[ 18] =        -7.147477543305;
  BAS[ATNO][  4].a[ 19] =         0.194842000000;     BAS[ATNO][  4].d[ 19] =        11.426677582372;
  BAS[ATNO][  4].a[ 20] =         0.106000000000;     BAS[ATNO][  4].d[ 20] =        -6.913290917369;
  BAS[ATNO][  4].a[ 21] =         0.042900000000;     BAS[ATNO][  4].d[ 21] =         1.505527353854;

  // Basis function   6 L = s
  InitBFNGauss(BAS[ATNO][  5]);
  BAS[ATNO][  5].l  = 0;
  BAS[ATNO][  5].ng = 22;
  BAS[ATNO][  5].a[  0] =      3407.200000000000;     BAS[ATNO][  5].d[  0] =        -0.001183650903;
  BAS[ATNO][  5].a[  1] =       516.483000000000;     BAS[ATNO][  5].d[  1] =        -0.006486820452;
  BAS[ATNO][  5].a[  2] =        97.028100000000;     BAS[ATNO][  5].d[  2] =        -0.018990102265;
  BAS[ATNO][  5].a[  3] =        26.465500000000;     BAS[ATNO][  5].d[  3] =         0.457819629284;
  BAS[ATNO][  5].a[  4] =        16.563100000000;     BAS[ATNO][  5].d[  4] =        -1.929604242605;
  BAS[ATNO][  5].a[  5] =         7.251060000000;     BAS[ATNO][  5].d[  5] =         4.973592551121;
  BAS[ATNO][  5].a[  6] =         2.171930000000;     BAS[ATNO][  5].d[  6] =        -4.523546768818;
  BAS[ATNO][  5].a[  7] =         1.180120000000;     BAS[ATNO][  5].d[  7] =        -2.853342981371;
  BAS[ATNO][  5].a[  8] =         0.090925000000;     BAS[ATNO][  5].d[  8] =        -0.010833765473;
  BAS[ATNO][  5].a[  9] =      3407.200000000000;     BAS[ATNO][  5].d[  9] =         0.000632600062;
  BAS[ATNO][  5].a[ 10] =       516.483000000000;     BAS[ATNO][  5].d[ 10] =         0.004003093190;
  BAS[ATNO][  5].a[ 11] =        97.028100000000;     BAS[ATNO][  5].d[ 11] =         0.006847263067;
  BAS[ATNO][  5].a[ 12] =        26.465500000000;     BAS[ATNO][  5].d[ 12] =        -0.166075228979;
  BAS[ATNO][  5].a[ 13] =        16.563100000000;     BAS[ATNO][  5].d[ 13] =         0.841277109155;
  BAS[ATNO][  5].a[ 14] =         7.251060000000;     BAS[ATNO][  5].d[ 14] =        -2.598579350747;
  BAS[ATNO][  5].a[ 15] =         2.171930000000;     BAS[ATNO][  5].d[ 15] =         3.691029049171;
  BAS[ATNO][  5].a[ 16] =         1.180120000000;     BAS[ATNO][  5].d[ 16] =         2.294136775489;
  BAS[ATNO][  5].a[ 17] =         0.090925000000;     BAS[ATNO][  5].d[ 17] =        -0.652357426751;
  BAS[ATNO][  5].a[ 18] =         0.401495000000;     BAS[ATNO][  5].d[ 18] =         1.655824857315;
  BAS[ATNO][  5].a[ 19] =         0.194842000000;     BAS[ATNO][  5].d[ 19] =        -2.124561277002;
  BAS[ATNO][  5].a[ 20] =         0.106000000000;     BAS[ATNO][  5].d[ 20] =         1.879726508604;
  BAS[ATNO][  5].a[ 21] =         0.042900000000;     BAS[ATNO][  5].d[ 21] =        -0.178619051501;

  // Basis function   7 L = p
  InitBFNGauss(BAS[ATNO][  6]);
  BAS[ATNO][  6].l  = 1;
  BAS[ATNO][  6].ng = 21;
  BAS[ATNO][  6].a[  0] =        20.723900000000;     BAS[ATNO][  6].d[  0] =        -0.008712784754;
  BAS[ATNO][  6].a[  1] =        12.999600000000;     BAS[ATNO][  6].d[  1] =         0.161543550108;
  BAS[ATNO][  6].a[  2] =         8.173480000000;     BAS[ATNO][  6].d[  2] =        -0.433958086285;
  BAS[ATNO][  6].a[  3] =         2.747420000000;     BAS[ATNO][  6].d[  3] =         0.444808063534;
  BAS[ATNO][  6].a[  4] =         1.563900000000;     BAS[ATNO][  6].d[  4] =         0.562235640150;
  BAS[ATNO][  6].a[  5] =         0.811020000000;     BAS[ATNO][  6].d[  5] =         0.191272227749;
  BAS[ATNO][  6].a[  6] =         0.400963000000;     BAS[ATNO][  6].d[  6] =         0.013352202623;
  BAS[ATNO][  6].a[  7] =         0.173764000000;     BAS[ATNO][  6].d[  7] =         0.001526137458;
  BAS[ATNO][  6].a[  8] =         0.071576000000;     BAS[ATNO][  6].d[  8] =        -0.000156014052;
  BAS[ATNO][  6].a[  9] =        20.723900000000;     BAS[ATNO][  6].d[  9] =        -0.000000034228;
  BAS[ATNO][  6].a[ 10] =        12.999600000000;     BAS[ATNO][  6].d[ 10] =        -0.000007562543;
  BAS[ATNO][  6].a[ 11] =         8.173480000000;     BAS[ATNO][  6].d[ 11] =         0.000024323211;
  BAS[ATNO][  6].a[ 12] =         2.747420000000;     BAS[ATNO][  6].d[ 12] =        -0.000034130822;
  BAS[ATNO][  6].a[ 13] =         1.563900000000;     BAS[ATNO][  6].d[ 13] =        -0.000042227492;
  BAS[ATNO][  6].a[ 14] =         0.811020000000;     BAS[ATNO][  6].d[ 14] =        -0.000007140647;
  BAS[ATNO][  6].a[ 15] =         0.400963000000;     BAS[ATNO][  6].d[ 15] =         0.000065377121;
  BAS[ATNO][  6].a[ 16] =         0.173764000000;     BAS[ATNO][  6].d[ 16] =         0.000080511022;
  BAS[ATNO][  6].a[ 17] =         0.071576000000;     BAS[ATNO][  6].d[ 17] =         0.000029368628;
  BAS[ATNO][  6].a[ 18] =         0.646300000000;     BAS[ATNO][  6].d[ 18] =        -0.000074611685;
  BAS[ATNO][  6].a[ 19] =         0.108300000000;     BAS[ATNO][  6].d[ 19] =        -0.000173668354;
  BAS[ATNO][  6].a[ 20] =         0.042600000000;     BAS[ATNO][  6].d[ 20] =         0.000066815549;

  // Basis function   8 L = p
  InitBFNGauss(BAS[ATNO][  7]);
  BAS[ATNO][  7].l  = 1;
  BAS[ATNO][  7].ng = 19;
  BAS[ATNO][  7].a[  0] =        20.723900000000;     BAS[ATNO][  7].d[  0] =        -0.000000407032;
  BAS[ATNO][  7].a[  1] =        12.999600000000;     BAS[ATNO][  7].d[  1] =         0.000007546775;
  BAS[ATNO][  7].a[  2] =         8.173480000000;     BAS[ATNO][  7].d[  2] =        -0.000020273073;
  BAS[ATNO][  7].a[  3] =         2.747420000000;     BAS[ATNO][  7].d[  3] =         0.000020779948;
  BAS[ATNO][  7].a[  4] =         1.563900000000;     BAS[ATNO][  7].d[  4] =         0.000026265772;
  BAS[ATNO][  7].a[  5] =         0.811020000000;     BAS[ATNO][  7].d[  5] =         0.000008935600;
  BAS[ATNO][  7].a[  6] =         0.400963000000;     BAS[ATNO][  7].d[  6] =         0.000000623770;
  BAS[ATNO][  7].a[  7] =        20.723900000000;     BAS[ATNO][  7].d[  7] =        -0.000233027535;
  BAS[ATNO][  7].a[  8] =        12.999600000000;     BAS[ATNO][  7].d[  8] =        -0.051487083869;
  BAS[ATNO][  7].a[  9] =         8.173480000000;     BAS[ATNO][  7].d[  9] =         0.165596567388;
  BAS[ATNO][  7].a[ 10] =         2.747420000000;     BAS[ATNO][  7].d[ 10] =        -0.232368457356;
  BAS[ATNO][  7].a[ 11] =         1.563900000000;     BAS[ATNO][  7].d[ 11] =        -0.287491970916;
  BAS[ATNO][  7].a[ 12] =         0.811020000000;     BAS[ATNO][  7].d[ 12] =        -0.048614744464;
  BAS[ATNO][  7].a[ 13] =         0.400963000000;     BAS[ATNO][  7].d[ 13] =         0.445098594188;
  BAS[ATNO][  7].a[ 14] =         0.173764000000;     BAS[ATNO][  7].d[ 14] =         0.548132769016;
  BAS[ATNO][  7].a[ 15] =         0.071576000000;     BAS[ATNO][  7].d[ 15] =         0.199946626294;
  BAS[ATNO][  7].a[ 16] =         0.646300000000;     BAS[ATNO][  7].d[ 16] =         0.000012189990;
  BAS[ATNO][  7].a[ 17] =         0.108300000000;     BAS[ATNO][  7].d[ 17] =        -0.000464259929;
  BAS[ATNO][  7].a[ 18] =         0.042600000000;     BAS[ATNO][  7].d[ 18] =         0.000495355579;

  // Basis function   9 L = p
  InitBFNGauss(BAS[ATNO][  8]);
  BAS[ATNO][  8].l  = 1;
  BAS[ATNO][  8].ng = 21;
  BAS[ATNO][  8].a[  0] =        20.723900000000;     BAS[ATNO][  8].d[  0] =        -0.000848660529;
  BAS[ATNO][  8].a[  1] =        12.999600000000;     BAS[ATNO][  8].d[  1] =         0.015734996158;
  BAS[ATNO][  8].a[  2] =         8.173480000000;     BAS[ATNO][  8].d[  2] =        -0.042269275474;
  BAS[ATNO][  8].a[  3] =         2.747420000000;     BAS[ATNO][  8].d[  3] =         0.043326107209;
  BAS[ATNO][  8].a[  4] =         1.563900000000;     BAS[ATNO][  8].d[  4] =         0.054764028845;
  BAS[ATNO][  8].a[  5] =         0.811020000000;     BAS[ATNO][  8].d[  5] =         0.018630689785;
  BAS[ATNO][  8].a[  6] =         0.400963000000;     BAS[ATNO][  8].d[  6] =         0.001300558622;
  BAS[ATNO][  8].a[  7] =         0.173764000000;     BAS[ATNO][  8].d[  7] =         0.000148651970;
  BAS[ATNO][  8].a[  8] =         0.071576000000;     BAS[ATNO][  8].d[  8] =        -0.000015196401;
  BAS[ATNO][  8].a[  9] =        20.723900000000;     BAS[ATNO][  8].d[  9] =         0.000026060941;
  BAS[ATNO][  8].a[ 10] =        12.999600000000;     BAS[ATNO][  8].d[ 10] =         0.005758125847;
  BAS[ATNO][  8].a[ 11] =         8.173480000000;     BAS[ATNO][  8].d[ 11] =        -0.018519710248;
  BAS[ATNO][  8].a[ 12] =         2.747420000000;     BAS[ATNO][  8].d[ 12] =         0.025987232519;
  BAS[ATNO][  8].a[ 13] =         1.563900000000;     BAS[ATNO][  8].d[ 13] =         0.032152043270;
  BAS[ATNO][  8].a[ 14] =         0.811020000000;     BAS[ATNO][  8].d[ 14] =         0.005436893986;
  BAS[ATNO][  8].a[ 15] =         0.400963000000;     BAS[ATNO][  8].d[ 15] =        -0.049778187594;
  BAS[ATNO][  8].a[ 16] =         0.173764000000;     BAS[ATNO][  8].d[ 16] =        -0.061301150259;
  BAS[ATNO][  8].a[ 17] =         0.071576000000;     BAS[ATNO][  8].d[ 17] =        -0.022361294334;
  BAS[ATNO][  8].a[ 18] =         0.646300000000;     BAS[ATNO][  8].d[ 18] =        -0.045719538651;
  BAS[ATNO][  8].a[ 19] =         0.108300000000;     BAS[ATNO][  8].d[ 19] =        -0.832666569527;
  BAS[ATNO][  8].a[ 20] =         0.042600000000;     BAS[ATNO][  8].d[ 20] =         1.492991289968;

  // Basis function  10 L = p
  InitBFNGauss(BAS[ATNO][  9]);
  BAS[ATNO][  9].l  = 1;
  BAS[ATNO][  9].ng = 21;
  BAS[ATNO][  9].a[  0] =        20.723900000000;     BAS[ATNO][  9].d[  0] =         0.006310927758;
  BAS[ATNO][  9].a[  1] =        12.999600000000;     BAS[ATNO][  9].d[  1] =        -0.117010772477;
  BAS[ATNO][  9].a[  2] =         8.173480000000;     BAS[ATNO][  9].d[  2] =         0.314328680190;
  BAS[ATNO][  9].a[  3] =         2.747420000000;     BAS[ATNO][  9].d[  3] =        -0.322187639699;
  BAS[ATNO][  9].a[  4] =         1.563900000000;     BAS[ATNO][  9].d[  4] =        -0.407243907440;
  BAS[ATNO][  9].a[  5] =         0.811020000000;     BAS[ATNO][  9].d[  5] =        -0.138544133190;
  BAS[ATNO][  9].a[  6] =         0.400963000000;     BAS[ATNO][  9].d[  6] =        -0.009671395374;
  BAS[ATNO][  9].a[  7] =         0.173764000000;     BAS[ATNO][  9].d[  7] =        -0.001105426510;
  BAS[ATNO][  9].a[  8] =         0.071576000000;     BAS[ATNO][  9].d[  8] =         0.000113005593;
  BAS[ATNO][  9].a[  9] =        20.723900000000;     BAS[ATNO][  9].d[  9] =         0.000597007449;
  BAS[ATNO][  9].a[ 10] =        12.999600000000;     BAS[ATNO][  9].d[ 10] =         0.131907899059;
  BAS[ATNO][  9].a[ 11] =         8.173480000000;     BAS[ATNO][  9].d[ 11] =        -0.424251941541;
  BAS[ATNO][  9].a[ 12] =         2.747420000000;     BAS[ATNO][  9].d[ 12] =         0.595318917178;
  BAS[ATNO][  9].a[ 13] =         1.563900000000;     BAS[ATNO][  9].d[ 13] =         0.736543207157;
  BAS[ATNO][  9].a[ 14] =         0.811020000000;     BAS[ATNO][  9].d[ 14] =         0.124549077628;
  BAS[ATNO][  9].a[ 15] =         0.400963000000;     BAS[ATNO][  9].d[ 15] =        -1.140325223763;
  BAS[ATNO][  9].a[ 16] =         0.173764000000;     BAS[ATNO][  9].d[ 16] =        -1.404294757704;
  BAS[ATNO][  9].a[ 17] =         0.071576000000;     BAS[ATNO][  9].d[ 17] =        -0.512255451595;
  BAS[ATNO][  9].a[ 18] =         0.646300000000;     BAS[ATNO][  9].d[ 18] =         0.124735983369;
  BAS[ATNO][  9].a[ 19] =         0.108300000000;     BAS[ATNO][  9].d[ 19] =         3.435674559490;
  BAS[ATNO][  9].a[ 20] =         0.042600000000;     BAS[ATNO][  9].d[ 20] =        -0.928729965684;

  // Basis function  11 L = p
  InitBFNGauss(BAS[ATNO][ 10]);
  BAS[ATNO][ 10].l  = 1;
  BAS[ATNO][ 10].ng = 21;
  BAS[ATNO][ 10].a[  0] =        20.723900000000;     BAS[ATNO][ 10].d[  0] =         0.043644079147;
  BAS[ATNO][ 10].a[  1] =        12.999600000000;     BAS[ATNO][ 10].d[  1] =        -0.809203909612;
  BAS[ATNO][ 10].a[  2] =         8.173480000000;     BAS[ATNO][ 10].d[  2] =         2.173782734091;
  BAS[ATNO][ 10].a[  3] =         2.747420000000;     BAS[ATNO][ 10].d[  3] =        -2.228132437336;
  BAS[ATNO][ 10].a[  4] =         1.563900000000;     BAS[ATNO][ 10].d[  4] =        -2.816350623884;
  BAS[ATNO][ 10].a[  5] =         0.811020000000;     BAS[ATNO][ 10].d[  5] =        -0.958120793993;
  BAS[ATNO][ 10].a[  6] =         0.400963000000;     BAS[ATNO][ 10].d[  6] =        -0.066883849942;
  BAS[ATNO][ 10].a[  7] =         0.173764000000;     BAS[ATNO][ 10].d[  7] =        -0.007644727362;
  BAS[ATNO][ 10].a[  8] =         0.071576000000;     BAS[ATNO][ 10].d[  8] =         0.000781505549;
  BAS[ATNO][ 10].a[  9] =        20.723900000000;     BAS[ATNO][ 10].d[  9] =         0.001365399964;
  BAS[ATNO][ 10].a[ 10] =        12.999600000000;     BAS[ATNO][ 10].d[ 10] =         0.301683070983;
  BAS[ATNO][ 10].a[ 11] =         8.173480000000;     BAS[ATNO][ 10].d[ 11] =        -0.970295406928;
  BAS[ATNO][ 10].a[ 12] =         2.747420000000;     BAS[ATNO][ 10].d[ 12] =         1.361538167385;
  BAS[ATNO][ 10].a[ 13] =         1.563900000000;     BAS[ATNO][ 10].d[ 13] =         1.684528509907;
  BAS[ATNO][ 10].a[ 14] =         0.811020000000;     BAS[ATNO][ 10].d[ 14] =         0.284852904905;
  BAS[ATNO][ 10].a[ 15] =         0.400963000000;     BAS[ATNO][ 10].d[ 15] =        -2.608007692324;
  BAS[ATNO][ 10].a[ 16] =         0.173764000000;     BAS[ATNO][ 10].d[ 16] =        -3.211725439430;
  BAS[ATNO][ 10].a[ 17] =         0.071576000000;     BAS[ATNO][ 10].d[ 17] =        -1.171565909754;
  BAS[ATNO][ 10].a[ 18] =         0.646300000000;     BAS[ATNO][ 10].d[ 18] =         5.040129554594;
  BAS[ATNO][ 10].a[ 19] =         0.108300000000;     BAS[ATNO][ 10].d[ 19] =         4.513131523625;
  BAS[ATNO][ 10].a[ 20] =         0.042600000000;     BAS[ATNO][ 10].d[ 20] =        -0.504328928532;

  // Basis function  12 L = d
  InitBFNGauss(BAS[ATNO][ 11]);
  BAS[ATNO][ 11].l  = 2;
  BAS[ATNO][ 11].ng = 9;
  BAS[ATNO][ 11].a[  0] =        75.431800000000;     BAS[ATNO][ 11].d[  0] =         0.000734020574;
  BAS[ATNO][ 11].a[  1] =        18.017100000000;     BAS[ATNO][ 11].d[  1] =         0.008865248482;
  BAS[ATNO][ 11].a[  2] =         7.351650000000;     BAS[ATNO][ 11].d[  2] =        -0.077147162344;
  BAS[ATNO][ 11].a[  3] =         3.252120000000;     BAS[ATNO][ 11].d[  3] =         0.225043307697;
  BAS[ATNO][ 11].a[  4] =         1.809890000000;     BAS[ATNO][ 11].d[  4] =         0.438669295381;
  BAS[ATNO][ 11].a[  5] =         0.956550000000;     BAS[ATNO][ 11].d[  5] =         0.354588938708;
  BAS[ATNO][ 11].a[  6] =         0.474750000000;     BAS[ATNO][ 11].d[  6] =         0.133730041311;
  BAS[ATNO][ 11].a[  7] =         0.196000000000;     BAS[ATNO][ 11].d[  7] =         0.015315745084;
  BAS[ATNO][ 11].a[  8] =         0.079400000000;     BAS[ATNO][ 11].d[  8] =        -0.000251515142;

  // Basis function  13 L = d
  InitBFNGauss(BAS[ATNO][ 12]);
  BAS[ATNO][ 12].l  = 2;
  BAS[ATNO][ 12].ng = 9;
  BAS[ATNO][ 12].a[  0] =        75.431800000000;     BAS[ATNO][ 12].d[  0] =        -0.000125318056;
  BAS[ATNO][ 12].a[  1] =        18.017100000000;     BAS[ATNO][ 12].d[  1] =        -0.001513548460;
  BAS[ATNO][ 12].a[  2] =         7.351650000000;     BAS[ATNO][ 12].d[  2] =         0.013171200894;
  BAS[ATNO][ 12].a[  3] =         3.252120000000;     BAS[ATNO][ 12].d[  3] =        -0.038421252649;
  BAS[ATNO][ 12].a[  4] =         1.809890000000;     BAS[ATNO][ 12].d[  4] =        -0.074893246103;
  BAS[ATNO][ 12].a[  5] =         0.956550000000;     BAS[ATNO][ 12].d[  5] =        -0.060538352996;
  BAS[ATNO][ 12].a[  6] =         0.474750000000;     BAS[ATNO][ 12].d[  6] =         0.123633457077;
  BAS[ATNO][ 12].a[  7] =         0.196000000000;     BAS[ATNO][ 12].d[  7] =        -0.148863254664;
  BAS[ATNO][ 12].a[  8] =         0.079400000000;     BAS[ATNO][ 12].d[  8] =         1.071715515844;

  // Basis function  14 L = d
  InitBFNGauss(BAS[ATNO][ 13]);
  BAS[ATNO][ 13].l  = 2;
  BAS[ATNO][ 13].ng = 9;
  BAS[ATNO][ 13].a[  0] =        75.431800000000;     BAS[ATNO][ 13].d[  0] =        -0.000235773934;
  BAS[ATNO][ 13].a[  1] =        18.017100000000;     BAS[ATNO][ 13].d[  1] =        -0.002847596627;
  BAS[ATNO][ 13].a[  2] =         7.351650000000;     BAS[ATNO][ 13].d[  2] =         0.024780354405;
  BAS[ATNO][ 13].a[  3] =         3.252120000000;     BAS[ATNO][ 13].d[  3] =        -0.072285911132;
  BAS[ATNO][ 13].a[  4] =         1.809890000000;     BAS[ATNO][ 13].d[  4] =        -0.140904477571;
  BAS[ATNO][ 13].a[  5] =         0.956550000000;     BAS[ATNO][ 13].d[  5] =        -0.113897119510;
  BAS[ATNO][ 13].a[  6] =         0.474750000000;     BAS[ATNO][ 13].d[  6] =        -0.174918014702;
  BAS[ATNO][ 13].a[  7] =         0.196000000000;     BAS[ATNO][ 13].d[  7] =         1.610738490540;
  BAS[ATNO][ 13].a[  8] =         0.079400000000;     BAS[ATNO][ 13].d[  8] =        -1.046960766595;

  // Basis function  15 L = d
  InitBFNGauss(BAS[ATNO][ 14]);
  BAS[ATNO][ 14].l  = 2;
  BAS[ATNO][ 14].ng = 9;
  BAS[ATNO][ 14].a[  0] =        75.431800000000;     BAS[ATNO][ 14].d[  0] =        -0.000778884792;
  BAS[ATNO][ 14].a[  1] =        18.017100000000;     BAS[ATNO][ 14].d[  1] =        -0.009407103110;
  BAS[ATNO][ 14].a[  2] =         7.351650000000;     BAS[ATNO][ 14].d[  2] =         0.081862489497;
  BAS[ATNO][ 14].a[  3] =         3.252120000000;     BAS[ATNO][ 14].d[  3] =        -0.238798224758;
  BAS[ATNO][ 14].a[  4] =         1.809890000000;     BAS[ATNO][ 14].d[  4] =        -0.465481289201;
  BAS[ATNO][ 14].a[  5] =         0.956550000000;     BAS[ATNO][ 14].d[  5] =        -0.376261840216;
  BAS[ATNO][ 14].a[  6] =         0.474750000000;     BAS[ATNO][ 14].d[  6] =         2.091569735461;
  BAS[ATNO][ 14].a[  7] =         0.196000000000;     BAS[ATNO][ 14].d[  7] =        -1.703202228326;
  BAS[ATNO][ 14].a[  8] =         0.079400000000;     BAS[ATNO][ 14].d[  8] =         0.603172034667;

  // Basis function  16 L = f
  InitBFNGauss(BAS[ATNO][ 15]);
  BAS[ATNO][ 15].l  = 3;
  BAS[ATNO][ 15].ng = 2;
  BAS[ATNO][ 15].a[  0] =         0.430300000000;     BAS[ATNO][ 15].d[  0] =        -0.057103963724;
  BAS[ATNO][ 15].a[  1] =         0.208400000000;     BAS[ATNO][ 15].d[  1] =         1.042036622076;

  // Basis function  17 L = f
  InitBFNGauss(BAS[ATNO][ 16]);
  BAS[ATNO][ 16].l  = 3;
  BAS[ATNO][ 16].ng = 2;
  BAS[ATNO][ 16].a[  0] =         0.430300000000;     BAS[ATNO][ 16].d[  0] =         1.507405604076;
  BAS[ATNO][ 16].a[  1] =         0.208400000000;     BAS[ATNO][ 16].d[  1] =        -1.090730120664;

-------------------------------------------
RADIAL EXPECTATION VALUES <R**-3> TO <R**3>
-------------------------------------------
   0 :     0.000000     2.035263     1.361748     0.796829     0.687650     0.641989
   1 :     0.000000     0.504862     0.616707     1.922028     4.164935    10.009504
   2 :     0.000000     0.061856     0.203962     5.596313    33.578783   212.663446
   3 :     0.000000     0.140446     0.294821     4.455892    23.968177   148.514555
   4 :     0.000000     0.533289     0.561461     2.798640    11.127682    57.666211
   5 :     0.000000    18.726993     3.581759     0.404925     0.377344     1.168474
   6 :     2.415987     1.634363     1.221629     0.893323     0.869602     0.921897
   7 :     2.415987     1.634363     1.221629     0.893323     0.869602     0.921897
   8 :     2.415987     1.634363     1.221629     0.893323     0.869602     0.921897
   9 :     0.311596     0.314889     0.485107     2.467989     6.962331    22.151541
  10 :     0.311596     0.314889     0.485107     2.467989     6.962331    22.151541
  11 :     0.311596     0.314889     0.485107     2.467989     6.962331    22.151541
  12 :     0.025895     0.047825     0.184590     6.163644    40.650894   281.844913
  13 :     0.025895     0.047825     0.184590     6.163644    40.650894   281.844913
  14 :     0.025895     0.047825     0.184590     6.163644    40.650894   281.844913
  15 :     0.433239     0.312240     0.414357     3.673174    17.802609   105.094058
  16 :     0.433239     0.312240     0.414357     3.673174    17.802609   105.094058
  17 :     0.433239     0.312240     0.414357     3.673174    17.802609   105.094058
  18 :     2.647369     0.926132     0.676707     2.547074     9.906285    52.441587
  19 :     2.647369     0.926132     0.676707     2.547074     9.906285    52.441587
  20 :     2.647369     0.926132     0.676707     2.547074     9.906285    52.441587
  21 :     1.590303     1.198255     1.030909     1.088276     1.326556     9.054158
  22 :     1.590303     1.198255     1.030909     1.088276     1.326556     9.054158
  23 :     1.590303     1.198255     1.030909     1.088276     1.326556     9.054158
  24 :     1.590303     1.198255     1.030909     1.088276     1.326556     9.054158
  25 :     1.590303     1.198255     1.030909     1.088276     1.326556     9.054158
  26 :     0.041788     0.075211     0.242213     4.620787    22.990983   607.217850
  27 :     0.041788     0.075211     0.242213     4.620787    22.990983   607.217850
  28 :     0.041788     0.075211     0.242213     4.620787    22.990983   607.217850
  29 :     0.041788     0.075211     0.242213     4.620787    22.990983   607.217850
  30 :     0.041788     0.075211     0.242213     4.620787    22.990983   607.217850
  31 :     0.150721     0.182166     0.358925     3.555809    15.435331   392.307093
  32 :     0.150721     0.182166     0.358925     3.555809    15.435331   392.307093
  33 :     0.150721     0.182166     0.358925     3.555809    15.435331   392.307093
  34 :     0.150721     0.182166     0.358925     3.555809    15.435331   392.307093
  35 :     0.150721     0.182166     0.358925     3.555809    15.435331   392.307093
  36 :     0.694119     0.546831     0.609214     2.347821     7.478700   153.155223
  37 :     0.694119     0.546831     0.609214     2.347821     7.478700   153.155223
  38 :     0.694119     0.546831     0.609214     2.347821     7.478700   153.155223
  39 :     0.694119     0.546831     0.609214     2.347821     7.478700   153.155223
  40 :     0.694119     0.546831     0.609214     2.347821     7.478700   153.155223
  41 :     0.042867     0.113850     0.326436     3.247530    11.112607   279.102425
  42 :     0.042867     0.113850     0.326436     3.247530    11.112607   279.102425
  43 :     0.042867     0.113850     0.326436     3.247530    11.112607   279.102425
  44 :     0.042867     0.113850     0.326436     3.247530    11.112607   279.102425
  45 :     0.042867     0.113850     0.326436     3.247530    11.112607   279.102425
  46 :     0.042867     0.113850     0.326436     3.247530    11.112607   279.102425
  47 :     0.042867     0.113850     0.326436     3.247530    11.112607   279.102425
  48 :     0.150889     0.251121     0.468606     2.499885     7.380152   176.508901
  49 :     0.150889     0.251121     0.468606     2.499885     7.380152   176.508901
  50 :     0.150889     0.251121     0.468606     2.499885     7.380152   176.508901
  51 :     0.150889     0.251121     0.468606     2.499885     7.380152   176.508901
  52 :     0.150889     0.251121     0.468606     2.499885     7.380152   176.508901
  53 :     0.150889     0.251121     0.468606     2.499885     7.380152   176.508901
  54 :     0.150889     0.251121     0.468606     2.499885     7.380152   176.508901
-------
TIMINGS
-------

Total SCF time: 0 days 0 hours 0 min 6 sec 

Total time                  ....       6.665 sec
Sum of individual times     ....       6.053 sec  ( 90.8%)

Fock matrix formation       ....       4.329 sec  ( 64.9%)
Diagonalization             ....       0.096 sec  (  1.4%)
Density matrix formation    ....       0.007 sec  (  0.1%)
Population analysis         ....       0.027 sec  (  0.4%)
Initial guess               ....       1.199 sec  ( 18.0%)
Orbital Transformation      ....       0.000 sec  (  0.0%)
Orbital Orthonormalization  ....       0.000 sec  (  0.0%)
DIIS solution               ....       0.296 sec  (  4.4%)
SOSCF solution              ....       0.025 sec  (  0.4%)


           ************************************************************
           *        Program running with 24 parallel MPI-processes    *
           *              working on a common directory               *
           ************************************************************


------------------------------------------------------------------------------- 
                              ORCA-MATRIX DRIVEN CI                            
------------------------------------------------------------------------------- 

--------------------------------
AUTOMATIC CHOICE OF INCORE LEVEL
--------------------------------

Memory available                           ...   2500.00 MB
Memory needed for S+T                      ...      1.82 MB
Memory needed for J+K                      ...      3.66 MB
Memory needed for DIIS                     ...     25.44 MB
Memory needed for 3-ext                    ...      5.09 MB
Memory needed for 4-ext                    ...     12.15 MB
Memory needed for triples                  ...      2.83 MB
 -> Final InCoreLevel    ... 5
 -> check shows that triples correction can be computed


Wavefunction type
-----------------
Correlation treatment                      ...      CCSD     
Single excitations                         ... ON
Orbital optimization                       ... OFF
Calculation of Z vector                    ... OFF
Calculation of Brueckner orbitals          ... OFF
Perturbative triple excitations            ... ON
Calculation of F12 correction              ... OFF
Frozen core treatment                      ... chemical core (8 el)
Reference Wavefunction                     ... RHF
  Internal Orbitals:     4 ...   12 (  9 MO's/ 18 electrons)
  Virtual  Orbitals:    13 ...   54 ( 42 MO's              )
Number of AO's                             ...     55
Number of electrons                        ...     26
Number of correlated electrons             ...     18

Algorithmic settings
--------------------
Integral transformation                    ... AO direct full transformation
K(C) Formation                             ... FULL-MO TRAFO
Maximum number of iterations               ...        50
Convergence tolerance (max. residuum)      ... 1.000e-05
Level shift for amplitude update           ... 2.000e-01
Maximum number of DIIS vectors             ...         7
DIIS turned on at iteration                ...         0
Damping before turning on DIIS             ...     0.500
Damping after turning on DIIS              ...     0.000
Pair specific amplitude update             ... OFF
Natural orbital iterations                 ... OFF
Perturbative natural orbital generation    ... OFF
Printlevel                                 ... 2

Memory handling:
----------------
Maximum memory for working arrays          ...   2500 MB
Data storage in matrix containers          ... UNCOMPRESSED
Data type for integral storage             ... DOUBLE
In-Core Storage of quantities:
   Amplitudes+Sigma Vector      ... YES
   J+K operators                ... YES
   DIIS vectors                 ... YES
   3-external integrals         ... YES
   4-external integrals         ... YES


Initializing the integral package          ... done
Warning: reference  - re-canonicalizations have been set to INT 1 VIRT 1

--------------------------
CLOSED-SHELL FOCK OPERATOR
--------------------------

<ss|ss>:          231 b            0 skpd (  0.0%)    0.001 s ( 0.003 ms/b)
<ss|sp>:          630 b            0 skpd (  0.0%)    0.003 s ( 0.004 ms/b)
<ss|sd>:          504 b            0 skpd (  0.0%)    0.001 s ( 0.003 ms/b)
<ss|sf>:          252 b            0 skpd (  0.0%)    0.001 s ( 0.003 ms/b)
<ss|pp>:          315 b            0 skpd (  0.0%)    0.003 s ( 0.010 ms/b)
<ss|pd>:          420 b            0 skpd (  0.0%)    0.002 s ( 0.006 ms/b)
<ss|pf>:          210 b            0 skpd (  0.0%)    0.001 s ( 0.007 ms/b)
<ss|dd>:          210 b            0 skpd (  0.0%)    0.002 s ( 0.010 ms/b)
<ss|df>:          168 b            0 skpd (  0.0%)    0.001 s ( 0.003 ms/b)
<ss|ff>:           63 b            0 skpd (  0.0%)    0.000 s ( 0.003 ms/b)
<sp|sp>:          465 b            0 skpd (  0.0%)    0.003 s ( 0.007 ms/b)
<sp|sd>:          720 b            0 skpd (  0.0%)    0.003 s ( 0.004 ms/b)
<sp|sf>:          360 b            0 skpd (  0.0%)    0.002 s ( 0.005 ms/b)
<sp|pp>:          450 b            0 skpd (  0.0%)    0.005 s ( 0.012 ms/b)
<sp|pd>:          600 b            2 skpd (  0.3%)    0.006 s ( 0.009 ms/b)
<sp|pf>:          300 b            2 skpd (  0.7%)    0.002 s ( 0.006 ms/b)
<sp|dd>:          300 b            0 skpd (  0.0%)    0.006 s ( 0.021 ms/b)
<sp|df>: done
<sp|ff>: done
<sd|sd>:          300 b            0 skpd (  0.0%)    0.002 s ( 0.008 ms/b)
<sd|sf>:          288 b            0 skpd (  0.0%)    0.001 s ( 0.002 ms/b)
<sd|pp>:          360 b            2 skpd (  0.6%)    0.004 s ( 0.012 ms/b)
<sd|pd>:          480 b            1 skpd (  0.2%)    0.005 s ( 0.011 ms/b)
<sd|pf>: done
<sd|dd>:          240 b            0 skpd (  0.0%)    0.006 s ( 0.026 ms/b)
<sd|df>:          192 b            0 skpd (  0.0%)    0.002 s ( 0.010 ms/b)
<sd|ff>: done
<sf|sf>:           78 b            0 skpd (  0.0%)    0.000 s ( 0.003 ms/b)
<sf|pp>:          180 b            2 skpd (  1.1%)    0.002 s ( 0.012 ms/b)
<sf|pd>: done
<sf|pf>: done
<sf|dd>:          120 b            0 skpd (  0.0%)    0.003 s ( 0.027 ms/b)
<sf|df>: done
<sf|ff>: done
<pp|pp>:          120 b            0 skpd (  0.0%)    0.007 s ( 0.060 ms/b)
<pp|pd>:          300 b            0 skpd (  0.0%)    0.008 s ( 0.028 ms/b)
<pp|pf>:          150 b            0 skpd (  0.0%)    0.002 s ( 0.015 ms/b)
<pp|dd>:          150 b            0 skpd (  0.0%)    0.010 s ( 0.067 ms/b)
<pp|df>:          120 b            0 skpd (  0.0%)    0.003 s ( 0.026 ms/b)
<pp|ff>:           45 b            0 skpd (  0.0%)    0.001 s ( 0.023 ms/b)
<pd|pd>:          210 b            0 skpd (  0.0%)    0.011 s ( 0.054 ms/b)
<pd|pf>:          200 b            1 skpd (  0.5%)    0.003 s ( 0.016 ms/b)
<pd|dd>:          200 b            0 skpd (  0.0%)    0.014 s ( 0.072 ms/b)
<pd|df>:          160 b            0 skpd (  0.0%)    0.005 s ( 0.030 ms/b)
<pd|ff>: done
<pf|pf>:           55 b            0 skpd (  0.0%)    0.002 s ( 0.028 ms/b)
<pf|dd>:          100 b            0 skpd (  0.0%)    0.006 s ( 0.063 ms/b)
<pf|df>: done
<pf|ff>: done
<dd|dd>:           55 b            0 skpd (  0.0%)    0.009 s ( 0.167 ms/b)
<dd|df>:           80 b            0 skpd (  0.0%)    0.003 s ( 0.040 ms/b)
<dd|ff>:           30 b            0 skpd (  0.0%)    0.001 s ( 0.044 ms/b)
<df|df>:           36 b            0 skpd (  0.0%)    0.001 s ( 0.040 ms/b)
<df|ff>: done
<ff|ff>: done
Recanonicalizing the internal orbitals
Recanonicalizing the virtual orbitals
Time needed for Fock operator              ...            0.183 sec
Reference energy                           ...   -287.542781362
<ss|**>: 
------------------------------
PARTIAL COULOMB TRANSFORMATION
------------------------------

Transformation type                        ... one-operator
Dimension of the basis                     ...   55
Number of internal MOs                     ...   51 (4-54)
Pair cutoff                                ... 0.000e+00 Eh
Number of AO pairs included in the trafo   ... 1540
Total Number of distinct AO pairs          ... 1540
Memory devoted for trafo                   ... 2500.0 MB 
Max. Number of MO pairs treated together   ... 212779      
Max. Number of MOs treated per batch       ... 3868      
Number Format for Storage                  ... Double (8 Byte)
AO-integral source                         ... DIRECT
Integral package used                      ... LIBINT

Starting integral evaluation:
<sp|**>:         3213 b        0 skpd     0.018 s (  0.006 ms/b)
<sd|**>:         4590 b        0 skpd     0.023 s (  0.005 ms/b)
        3672 b        0 skpd     0.026 s (  0.007 ms/b)
<sf|**>: <pp|**>:         1836 b        0 skpd     0.012 s (  0.007 ms/b)
        2295 b        0 skpd     0.044 s (  0.019 ms/b)
<pd|**>:         3060 b        0 skpd     0.058 s (  0.019 ms/b)
<pf|**>:         1530 b        0 skpd     0.027 s (  0.018 ms/b)
<dd|**>:         1530 b        0 skpd     0.071 s (  0.046 ms/b)
<df|**>:         1224 b        0 skpd     0.040 s (  0.033 ms/b)
<ff|**>:          459 b        0 skpd     0.030 s (  0.066 ms/b)
Closing buffer AOJ ( 0.00 GB; CompressionRatio= 1.00)
Collecting buffer AOJ 
    ... done with AO integral generation
Number of MO pairs included in the trafo   ... 1326
    ... Now sorting integrals
IBATCH = 1 of  1
Closing buffer JAO ( 0.00 GB; CompressionRatio= 1.00)
Collecting buffer JAO 
TOTAL TIME for half transformation         ...     0.613 sec
AO-integral generation                     ...     0.287 sec
Half transformation                        ...     0.063 sec
J-integral sorting                         ...     0.218 sec

-------------------------- SECOND HALF TRANSFORMATION -------------------------
Formation of (pq|rs)                       ... ok (     0.235 sec)
Integral sorting                           ... ok (     0.180 sec)

------------------
CLOSED SHELL GUESS
------------------

Initial guess performed in     0.003 sec
E(0)                                       ...   -287.542781362
E(MP2)                                     ...     -0.235149444
Initial E(tot)                             ...   -287.777930806
<T|T>                                      ...      0.076542320
Number of pairs included                   ... 45
Total number of pairs                      ... 45

------------------------------------------------
                  RHF COUPLED CLUSTER ITERATIONS
------------------------------------------------

Number of amplitudes to be optimized       ... 79758

Iter       E(tot)           E(Corr)          Delta-E          Residual     Time
  0   -287.777930806     -0.235149444      0.000000000      0.012615015    0.04
                           *** Turning on DIIS ***
  1   -287.776916072     -0.234134711      0.001014733      0.001720487    0.18
  2   -287.780380786     -0.237599424     -0.003464713      0.000869864    0.18
  3   -287.780977794     -0.238196432     -0.000597008      0.000265041    0.18
  4   -287.781042449     -0.238261087     -0.000064655      0.000090966    0.18
  5   -287.781047530     -0.238266169     -0.000005081      0.000020993    0.18
  6   -287.781048015     -0.238266653     -0.000000484      0.000004112    0.18
               --- The Coupled-Cluster iterations have converged ---

----------------------
COUPLED CLUSTER ENERGY
----------------------

E(0)                                       ...   -287.542781362
E(CORR)                                    ...     -0.238266653
E(TOT)                                     ...   -287.781048015
Singles Norm <S|S>**1/2                    ...      0.016080070  
T1 diagnostic                              ...      0.003790109  

------------------
LARGEST AMPLITUDES
------------------
  11-> 24  11-> 24       0.023556
  12-> 26  12-> 26       0.020898
  10-> 27  10-> 27       0.019615
  10-> 23  10-> 23       0.018288
  10-> 17  10-> 17       0.017946
  12-> 23  12-> 23       0.017849
  12-> 21  12-> 21       0.017830
  10-> 35  10-> 35       0.017696
  11-> 26  11-> 26       0.017555
  12-> 37  12-> 37       0.016498
  11-> 25  11-> 25       0.016456
  12-> 27  12-> 27       0.016078
  12-> 20  12-> 20       0.015201
  10-> 18  10-> 18       0.015186
  10-> 25  10-> 25       0.014927
  11-> 36  11-> 36       0.014903


        !!!!!!!!!!!!!!!!!!!!!!!!!!!!!!!!!!!!!!!!!!!!!!!!!!!!!!!!!!!!!!!!!!!!!!!!!! 
        !  Warning: Densities are linearized densities !                         !
        !!!!!!!!!!!!!!!!!!!!!!!!!!!!!!!!!!!!!!!!!!!!!!!!!!!!!!!!!!!!!!!!!!!!!!!!!! 

Trace of internal density part =     -0.164005578
Trace of external density part =      0.164005578
----------------------
RHF TRIPLES CORRECTION (Algorithm 1)
----------------------

Multiplier for the singles contribution    ...      1.000000000

10% done
20% done
30% done
40% done
50% done
60% done
70% done
80% done

Triples Correction (T)                     ...     -0.006714427
Scaling of triples based on CCSD energies (Peterson et al. Molecular Physics 113, 1551 (2015))
E(T*) = f*E(T) where f = E(F12-CCSD)/E(CCSD) 
f = CCSD (with F12)/ CCSD (without F12)    ...      1.000000000
Scaled triples correction (T)              ...     -0.006714427

Final correlation energy                   ...     -0.244981080
E(CCSD)                                    ...   -287.781048015
E(CCSD(T))                                 ...   -287.787762441

NORM  =      1.082261358 sqrt=     1.040317912
W(HF) =      0.923991227
------------------------------------------------------------------------------
                           ORCA POPULATION ANALYSIS
------------------------------------------------------------------------------
Input electron density              ... 86_Rn.mdcip
BaseName (.gbw .S,...)              ... 86_Rn

                    ********************************
                    * MULLIKEN POPULATION ANALYSIS *
                    ********************************

-----------------------
MULLIKEN ATOMIC CHARGES
-----------------------
   0 Rn:   -0.000000
Sum of atomic charges:   -0.0000000

--------------------------------
MULLIKEN REDUCED ORBITAL CHARGES
--------------------------------
  0 Rns       :     3.991695  s :     3.991695
      pz      :     3.967301  p :    11.901902
      px      :     3.967301
      py      :     3.967301
      dz2     :     2.014475  d :    10.072376
      dxz     :     2.014475
      dyz     :     2.014475
      dx2y2   :     2.014475
      dxy     :     2.014475
      f0      :     0.004861  f :     0.034027
      f+1     :     0.004861
      f-1     :     0.004861
      f+2     :     0.004861
      f-2     :     0.004861
      f+3     :     0.004861
      f-3     :     0.004861


                     *******************************
                     * LOEWDIN POPULATION ANALYSIS *
                     *******************************

----------------------
LOEWDIN ATOMIC CHARGES
----------------------
   0 Rn:   -0.000000

-------------------------------
LOEWDIN REDUCED ORBITAL CHARGES
-------------------------------
  0 Rns       :     3.991695  s :     3.991695
      pz      :     3.967301  p :    11.901902
      px      :     3.967301
      py      :     3.967301
      dz2     :     2.014475  d :    10.072376
      dxz     :     2.014475
      dyz     :     2.014475
      dx2y2   :     2.014475
      dxy     :     2.014475
      f0      :     0.004861  f :     0.034027
      f+1     :     0.004861
      f-1     :     0.004861
      f+2     :     0.004861
      f-2     :     0.004861
      f+3     :     0.004861
      f-3     :     0.004861


                      *****************************
                      * MAYER POPULATION ANALYSIS *
                      *****************************

  NA   - Mulliken gross atomic population
  ZA   - Total nuclear charge
  QA   - Mulliken gross atomic charge
  VA   - Mayer's total valence
  BVA  - Mayer's bonded valence
  FA   - Mayer's free valence

  ATOM       NA         ZA         QA         VA         BVA        FA
  0 Rn    26.0000    26.0000    -0.0000     0.6466     0.0000     0.6466





------------------------------------------------------------------------------- 
                                     TIMINGS                                   
------------------------------------------------------------------------------- 


Total execution time                   ...        2.669 sec

Fock Matrix Formation                  ...        0.183 sec (  6.9%)
Initial Guess                          ...        0.003 sec (  0.1%)
DIIS Solver                            ...        0.024 sec (  0.9%)
State Vector Update                    ...        0.001 sec (  0.0%)
Sigma-vector construction              ...        1.084 sec ( 40.6%)
  <D|H|D>(0-ext)                       ...        0.003 sec (  0.2% of sigma)
  <D|H|D>(2-ext)                       ...        0.005 sec (  0.4% of sigma)
  <D|H|D>(4-ext)                       ...        0.053 sec (  4.9% of sigma)
  <D|H|D>(4-ext-corr)                  ...        0.020 sec (  1.9% of sigma)
  <S|H|0>                              ...        0.001 sec (  0.1% of sigma)
  <S|H|S>                              ...        0.001 sec (  0.1% of sigma)
  <S|H|D>(1-ext)                       ...        0.002 sec (  0.2% of sigma)
  <D|H|S>(1-ext)                       ...        0.002 sec (  0.2% of sigma)
  <S|H|D>(3-ext)                       ...        0.050 sec (  4.6% of sigma)
  Fock-dressing                        ...        0.834 sec ( 76.9% of sigma)
  (ik|jl)-dressing                     ...        0.004 sec (  0.3% of sigma)
  (ij|ab),(ia|jb)-dressing             ...        0.081 sec (  7.5% of sigma)
Total Time for computing (T)           ...        0.022 sec (  0.8% of ALL)
  I/O of integral and amplitudes       ...        0.010 sec ( 45.0% of (T))
  N**6 sorting step                    ...        0.003 sec ( 12.7% of (T))
  External N**7 contributions          ...        0.005 sec ( 22.9% of (T))
  Internal N**7 contributions          ...        0.001 sec (  6.9% of (T))
  N**6 triples energy contributions    ...        0.003 sec ( 11.8% of (T))


-------------------------   --------------------
FINAL SINGLE POINT ENERGY      -287.787762441347
-------------------------   --------------------


                            ***************************************
                            *     ORCA property calculations      *
                            ***************************************

                                    ---------------------
                                    Active property flags
                                    ---------------------
   (+) Dipole Moment


------------------------------------------------------------------------------
                       ORCA ELECTRIC PROPERTIES CALCULATION
------------------------------------------------------------------------------

Dipole Moment Calculation                       ... on
Quadrupole Moment Calculation                   ... off
Polarizability Calculation                      ... off
GBWName                                         ... 86_Rn.gbw
Electron density file                           ... 86_Rn.scfp
The origin for moment calculation is the CENTER OF MASS  = ( 0.000000,  0.000000  0.000000)

-------------
DIPOLE MOMENT
-------------
                                X             Y             Z
Electronic contribution:      0.00000      -0.00000       0.00000
Nuclear contribution   :      0.00000       0.00000       0.00000
                        -----------------------------------------
Total Dipole Moment    :      0.00000      -0.00000       0.00000
                        -----------------------------------------
Magnitude (a.u.)       :      0.00000
Magnitude (Debye)      :      0.00000



--------------------
Rotational spectrum 
--------------------
 
Rotational constants in cm-1:     0.000000     0.000000     0.000000 
Rotational constants in MHz :     0.000000     0.000000     0.000000 

 Dipole components along the rotational axes: 
x,y,z [a.u.] :     0.000000    -0.000000     0.000000 
x,y,z [Debye]:     0.000000    -0.000000     0.000000 

 

                           *** MDCI DENSITY ***

------------------------------------------------------------------------------
                       ORCA ELECTRIC PROPERTIES CALCULATION
------------------------------------------------------------------------------

Dipole Moment Calculation                       ... on
Quadrupole Moment Calculation                   ... off
Polarizability Calculation                      ... off
GBWName                                         ... 86_Rn.gbw
Electron density file                           ... 86_Rn.mdcip
The origin for moment calculation is the CENTER OF MASS  = ( 0.000000,  0.000000  0.000000)

-------------
DIPOLE MOMENT
-------------
                                X             Y             Z
Electronic contribution:     -0.00000      -0.00000       0.00000
Nuclear contribution   :      0.00000       0.00000       0.00000
                        -----------------------------------------
Total Dipole Moment    :     -0.00000      -0.00000       0.00000
                        -----------------------------------------
Magnitude (a.u.)       :      0.00000
Magnitude (Debye)      :      0.00000



--------------------
Rotational spectrum 
--------------------
 
Rotational constants in cm-1:     0.000000     0.000000     0.000000 
Rotational constants in MHz :     0.000000     0.000000     0.000000 

 Dipole components along the rotational axes: 
x,y,z [a.u.] :    -0.000000    -0.000000     0.000000 
x,y,z [Debye]:    -0.000000    -0.000000     0.000000 

 

Timings for individual modules:

Sum of individual times         ...       10.944 sec (=   0.182 min)
GTO integral calculation        ...        0.821 sec (=   0.014 min)   7.5 %
SCF iterations                  ...        7.032 sec (=   0.117 min)  64.3 %
MDCI module                     ...        3.092 sec (=   0.052 min)  28.2 %
                             ****ORCA TERMINATED NORMALLY****
TOTAL RUN TIME: 0 days 0 hours 0 minutes 11 seconds 693 msec
