
                                 *****************
                                 * O   R   C   A *
                                 *****************

           --- An Ab Initio, DFT and Semiempirical electronic structure package ---

                  #######################################################
                  #                        -***-                        #
                  #          Department of theory and spectroscopy      #
                  #               Directorship: Frank Neese             #
                  #        Max Planck Institute fuer Kohlenforschung    #
                  #                Kaiser Wilhelm Platz 1               #
                  #                 D-45470 Muelheim/Ruhr               #
                  #                      Germany                        #
                  #                                                     #
                  #                  All rights reserved                #
                  #                        -***-                        #
                  #######################################################


                         Program Version 4.2.0 -  RELEASE  -


 With contributions from (in alphabetic order):
   Daniel Aravena         : Magnetic Suceptibility
   Michael Atanasov       : Ab Initio Ligand Field Theory (pilot matlab implementation)
   Alexander A. Auer      : GIAO ZORA, VPT2
   Ute Becker             : Parallelization
   Giovanni Bistoni       : ED, misc. LED, open-shell LED, HFLED
   Martin Brehm           : Molecular dynamics
   Dmytro Bykov           : SCF Hessian
   Vijay G. Chilkuri      : MRCI spin determinant printing, contributions to CSF-ICE
   Dipayan Datta          : RHF DLPNO-CCSD density
   Achintya Kumar Dutta   : EOM-CC, STEOM-CC
   Dmitry Ganyushin       : Spin-Orbit,Spin-Spin,Magnetic field MRCI
   Miquel Garcia          : C-PCM Hessian, Gaussian charge scheme
   Yang Guo               : DLPNO-NEVPT2, CIM, IAO-localization
   Andreas Hansen         : Spin unrestricted coupled pair/coupled cluster methods
   Benjamin Helmich-Paris : CASSCF linear response (MC-RPA)
   Lee Huntington         : MR-EOM, pCC
   Robert Izsak           : Overlap fitted RIJCOSX, COSX-SCS-MP3, EOM
   Christian Kollmar      : KDIIS, OOCD, Brueckner-CCSD(T), CCSD density
   Simone Kossmann        : Meta GGA functionals, TD-DFT gradient, OOMP2, MP2 Hessian
   Martin Krupicka        : AUTO-CI
   Lucas Lang             : DCDCAS
   Dagmar Lenk            : GEPOL surface, SMD
   Dimitrios Liakos       : Extrapolation schemes; Compound Job, initial MDCI parallelization
   Dimitrios Manganas     : Further ROCIS development; embedding schemes
   Dimitrios Pantazis     : SARC Basis sets
   Taras Petrenko         : DFT Hessian,TD-DFT gradient, ASA, ECA, R-Raman, ABS, FL, XAS/XES, NRVS
   Peter Pinski           : DLPNO-MP2, DLPNO-MP2 Gradient
   Christoph Reimann      : Effective Core Potentials
   Marius Retegan         : Local ZFS, SOC
   Christoph Riplinger    : Optimizer, TS searches, QM/MM, DLPNO-CCSD(T), (RO)-DLPNO pert. Triples
   Tobias Risthaus        : Range-separated hybrids, TD-DFT gradient, RPA, STAB
   Michael Roemelt        : Original ROCIS implementation
   Masaaki Saitow         : Open-shell DLPNO-CCSD energy and density
   Barbara Sandhoefer     : DKH picture change effects
   Avijit Sen             : IP-ROCIS
   Kantharuban Sivalingam : CASSCF convergence, NEVPT2, FIC-MRCI
   Bernardo de Souza      : ESD, SOC TD-DFT
   Georgi Stoychev        : AutoAux, RI-MP2 NMR
   Willem Van den Heuvel  : Paramagnetic NMR
   Boris Wezisla          : Elementary symmetry handling
   Frank Wennmohs         : Technical directorship


 We gratefully acknowledge several colleagues who have allowed us to
 interface, adapt or use parts of their codes:
   Stefan Grimme, W. Hujo, H. Kruse,             : VdW corrections, initial TS optimization,
                  C. Bannwarth                     DFT functionals, gCP, sTDA/sTD-DF
   Ed Valeev, F. Pavosevic, A. Kumar             : LibInt (2-el integral package), F12 methods
   Garnet Chan, S. Sharma, J. Yang, R. Olivares  : DMRG
   Ulf Ekstrom                                   : XCFun DFT Library
   Mihaly Kallay                                 : mrcc  (arbitrary order and MRCC methods)
   Andreas Klamt, Michael Diedenhofen            : otool_cosmo (COSMO solvation model)
   Jiri Pittner, Ondrej Demel                    : Mk-CCSD
   Frank Weinhold                                : gennbo (NPA and NBO analysis)
   Christopher J. Cramer and Donald G. Truhlar   : smd solvation model
   Lars Goerigk                                  : TD-DFT with DH, B97 family of functionals
   V. Asgeirsson, H. Jonsson                     : NEB implementation
   FAccTs GmbH                                   : IRC, NEB, NEB-TS, Multilevel, MM, QM/MM, CI optimization
   S Lehtola, MJT Oliveira, MAL Marques          : LibXC Library


 Your calculation uses the libint2 library for the computation of 2-el integrals
 For citations please refer to: http://libint.valeyev.net

 Your ORCA version has been built with support for libXC version: 4.2.3
 For citations please refer to: https://tddft.org/programs/libxc/

 This ORCA versions uses:
   CBLAS   interface :  Fast vector & matrix operations
   LAPACKE interface :  Fast linear algebra routines
   SCALAPACK package :  Parallel linear algebra routines


Setting NCore(Be) from 0 to 2
----- Orbital basis set information -----
Your calculation utilizes the basis: aug-cc-pVQZ 
    H, B-Ne : Obtained from the ccRepo (grant-hill.group.shef.ac.uk/ccrepo) Feb. 2017
              R. A. Kendall, T. H. Dunning, Jr., R. J. Harrison, J. Chem. Phys. 96, 6796 (1992)
         He : Obtained from the ccRepo (grant-hill.group.shef.ac.uk/ccrepo) Feb. 2017
              D. E. Woon, T. H. Dunning, Jr., J. Chem. Phys. 100, 2975 (1994)
  Li-Be, Na : Obtained from the ccRepo (grant-hill.group.shef.ac.uk/ccrepo) Feb. 2017
              B. P. Prascher, D. E. Woon, K. A. Peterson, T. H. Dunning, Jr., A. K. Wilson, Theor. Chem. Acc. 128, 69 (2011)
         Mg : Obtained from the Peterson Research Group Website (tyr0.chem.wsu.edu/~kipeters) Feb. 2017
              B. P. Prascher, D. E. Woon, K. A. Peterson, T. H. Dunning, Jr., A. K. Wilson, Theor. Chem. Acc. 128, 69 (2011)
      Al-Ar : Obtained from the ccRepo (grant-hill.group.shef.ac.uk/ccrepo) Feb. 2017
              D. E. Woon, T. H. Dunning, Jr., J. Chem. Phys. 98, 1358 (1993)
      Sc-Zn : Obtained from the ccRepo (grant-hill.group.shef.ac.uk/ccrepo) Feb. 2017
              N. B. Balabanov, K. A. Peterson, J. Chem. Phys. 123, 064107 (2005)
              N. B. Balabanov, K. A. Peterson, J. Chem. Phys. 125, 074110 (2006)
      Ga-Kr : Obtained from the ccRepo (grant-hill.group.shef.ac.uk/ccrepo) Feb. 2017
              A. K. Wilson, D. E. Woon, K. A. Peterson, T. H. Dunning, Jr., J. Chem. Phys. 110, 7667 (1999)

================================================================================
                                        WARNINGS
                       Please study these warnings very carefully!
================================================================================


WARNING: MDCI localization with Augmented Hessian Foster-Boys
  ===> : Switching off randomization!

WARNING: Post HF methods need fully converged wavefunctions
  ===> : Setting SCFConvForced true
         You can overwrite this default with %scf ConvForced false 


INFO   : the flag for use of LIBINT has been found!

================================================================================
                                       INPUT FILE
================================================================================
NAME = 04_Be.in
|  1> #
|  2> # 04_Be CCSD(T)/aug-cc-pVQZ
|  3> #
|  4> ! CCSD(T) aug-cc-pVQZ tightscf
|  5> 
|  6> *xyz 0 1
|  7>  Be 0.0 0.0 0.0
|  8> *
|  9> 
| 10> %maxcore 5000 
| 11> 
| 12> %pal
| 13> nprocs 1 
| 14> end
| 15> 
| 16> %method
| 17> NewNCore Be 2 end
| 18> end
| 19> 
| 20> 
| 21>                          ****END OF INPUT****
================================================================================

                       ****************************
                       * Single Point Calculation *
                       ****************************

---------------------------------
CARTESIAN COORDINATES (ANGSTROEM)
---------------------------------
  Be     0.000000    0.000000    0.000000

----------------------------
CARTESIAN COORDINATES (A.U.)
----------------------------
  NO LB      ZA    FRAG     MASS         X           Y           Z
   0 Be    4.0000    0     9.012    0.000000    0.000000    0.000000

--------------------------------
INTERNAL COORDINATES (ANGSTROEM)
--------------------------------
 Be     0   0   0     0.000000000000     0.00000000     0.00000000

---------------------------
INTERNAL COORDINATES (A.U.)
---------------------------
 Be     0   0   0     0.000000000000     0.00000000     0.00000000

---------------------
BASIS SET INFORMATION
---------------------
There are 1 groups of distinct atoms

 Group   1 Type Be  : 22s7p4d3f2g contracted to 6s5p4d3f2g pattern {991111/31111/1111/111/11}

Atom   0Be   basis set group =>   1
------------------------------------------------------------------------------
                           ORCA GTO INTEGRAL CALCULATION
------------------------------------------------------------------------------

                         BASIS SET STATISTICS AND STARTUP INFO

 # of primitive gaussian shells          ...   38
 # of primitive gaussian functions       ...  102
 # of contracted shells                  ...   20
 # of contracted basis functions         ...   80
 Highest angular momentum                ...    4
 Maximum contraction depth               ...    9
 Integral package used                   ... LIBINT
 Integral threshhold            Thresh   ...  2.500e-11
 Primitive cut-off              TCut     ...  2.500e-12


------------------------------ INTEGRAL EVALUATION ----------------------------


 * One electron integrals 
 Pre-screening matrix                    ... done
 Shell pair data                         ... done (   0.000 sec)

-------------------------------------------------------------------------------
                                 ORCA SCF
-------------------------------------------------------------------------------

------------
SCF SETTINGS
------------
Hamiltonian:
 Ab initio Hamiltonian  Method          .... Hartree-Fock(GTOs)


General Settings:
 Integral files         IntName         .... 04_Be
 Hartree-Fock type      HFTyp           .... RHF
 Total Charge           Charge          ....    0
 Multiplicity           Mult            ....    1
 Number of Electrons    NEL             ....    4
 Basis Dimension        Dim             ....   80
 Nuclear Repulsion      ENuc            ....      0.0000000000 Eh

Convergence Acceleration:
 DIIS                   CNVDIIS         .... on
   Start iteration      DIISMaxIt       ....    12
   Startup error        DIISStart       ....  0.200000
   # of expansion vecs  DIISMaxEq       ....     5
   Bias factor          DIISBfac        ....   1.050
   Max. coefficient     DIISMaxC        ....  10.000
 Newton-Raphson         CNVNR           .... off
 SOSCF                  CNVSOSCF        .... on
   Start iteration      SOSCFMaxIt      ....   150
   Startup grad/error   SOSCFStart      ....  0.003300
 Level Shifting         CNVShift        .... on
   Level shift para.    LevelShift      ....    0.2500
   Turn off err/grad.   ShiftErr        ....    0.0010
 Zerner damping         CNVZerner       .... off
 Static damping         CNVDamp         .... on
   Fraction old density DampFac         ....    0.7000
   Max. Damping (<1)    DampMax         ....    0.9800
   Min. Damping (>=0)   DampMin         ....    0.0000
   Turn off err/grad.   DampErr         ....    0.1000
 Fernandez-Rico         CNVRico         .... off

SCF Procedure:
 Maximum # iterations   MaxIter         ....   125
 SCF integral mode      SCFMode         .... Direct
   Integral package                     .... LIBINT
 Reset frequency        DirectResetFreq ....    20
 Integral Threshold     Thresh          ....  2.500e-11 Eh
 Primitive CutOff       TCut            ....  2.500e-12 Eh

Convergence Tolerance:
 Convergence Check Mode ConvCheckMode   .... Total+1el-Energy
 Convergence forced     ConvForced      .... 1
 Energy Change          TolE            ....  1.000e-08 Eh
 1-El. energy change                    ....  1.000e-05 Eh
 Orbital Gradient       TolG            ....  1.000e-05
 Orbital Rotation angle TolX            ....  1.000e-05
 DIIS Error             TolErr          ....  5.000e-07


Diagonalization of the overlap matrix:
Smallest eigenvalue                        ... 6.237e-03
Time for diagonalization                   ...    0.002 sec
Threshold for overlap eigenvalues          ... 1.000e-08
Number of eigenvalues below threshold      ... 0
Time for construction of square roots      ...    0.004 sec
Total time needed                          ...    0.007 sec

-------------------
DFT GRID GENERATION
-------------------

General Integration Accuracy     IntAcc      ...  4.340
Radial Grid Type                 RadialGrid  ... Gauss-Chebyshev
Angular Grid (max. acc.)         AngularGrid ... Lebedev-110
Angular grid pruning method      GridPruning ... 3 (G Style)
Weight generation scheme         WeightScheme... Becke
Basis function cutoff            BFCut       ...    1.0000e-11
Integration weight cutoff        WCut        ...    1.0000e-14
Grids for H and He will be reduced by one unit

# of grid points (after initial pruning)     ...   1678 (   0.0 sec)
# of grid points (after weights+screening)   ...   1678 (   0.0 sec)
Grid point division into batches done        ...    0.0 sec
Reduced shell lists constructed in    0.0 sec

Total number of grid points                  ...     1678
Total number of batches                      ...       27
Average number of points per batch           ...       62
Average number of grid points per atom       ...     1678
Average number of shells per batch           ...    18.43 (92.14%)
Average number of basis functions per batch  ...    75.00 (93.75%)
Average number of large shells per batch     ...    17.96 (97.48%)
Average number of large basis fcns per batch ...    73.68 (98.24%)
Maximum spatial batch extension              ...  21.83, 39.91, 39.91 au
Average spatial batch extension              ...  10.55, 12.37, 14.01 au

Time for grid setup =    0.017 sec

------------------------------
INITIAL GUESS: MODEL POTENTIAL
------------------------------
Loading Hartree-Fock densities                     ... done
Calculating cut-offs                               ... done
Setting up the integral package                    ... done
Initializing the effective Hamiltonian             ... done
Starting the Coulomb interaction                   ... done (   0.0 sec)
Reading the grid                                   ... done
Mapping shells                                     ... done
Starting the XC term evaluation                    ... done (   0.0 sec)
Transforming the Hamiltonian                       ... done (   0.0 sec)
Diagonalizing the Hamiltonian                      ... done (   0.0 sec)
Back transforming the eigenvectors                 ... done (   0.0 sec)
Now organizing SCF variables                       ... done
                      ------------------
                      INITIAL GUESS DONE (   0.1 sec)
                      ------------------
--------------
SCF ITERATIONS
--------------
ITER       Energy         Delta-E        Max-DP      RMS-DP      [F,P]     Damp
               ***  Starting incremental Fock matrix formation  ***
  0    -14.5688830587   0.000000000000 0.05769252  0.00088113  0.0781394 0.7000
  1    -14.5700385329  -0.001155474275 0.04199827  0.00065182  0.0572078 0.7000
                               ***Turning on DIIS***
  2    -14.5708809934  -0.000842460444 0.09937965  0.00156009  0.0413010 0.0000
  3    -14.5726552078  -0.001774214447 0.00517552  0.00011128  0.0029990 0.0000
                      *** Initiating the SOSCF procedure ***
                           *** Shutting down DIIS ***
                      *** Re-Reading the Fockian *** 
                      *** Removing any level shift *** 
ITER      Energy       Delta-E        Grad      Rot      Max-DP    RMS-DP
  4    -14.57326666  -0.0006114521  0.000478  0.000478  0.003642  0.000064
               *** Restarting incremental Fock matrix formation ***
  5    -14.57296910   0.0002975564  0.000091  0.000186  0.001091  0.000016
  6    -14.57296918  -0.0000000746  0.000026  0.000093  0.000514  0.000008
                 **** Energy Check signals convergence ****
              ***Rediagonalizing the Fockian in SOSCF/NRSCF***

               *****************************************************
               *                     SUCCESS                       *
               *           SCF CONVERGED AFTER   7 CYCLES          *
               *****************************************************


----------------
TOTAL SCF ENERGY
----------------

Total Energy       :          -14.57296919 Eh            -396.55065 eV

Components:
Nuclear Repulsion  :            0.00000000 Eh               0.00000 eV
Electronic Energy  :          -14.57296919 Eh            -396.55065 eV
One Electron Energy:          -19.06202963 Eh            -518.70420 eV
Two Electron Energy:            4.48906044 Eh             122.15354 eV

Virial components:
Potential Energy   :          -29.14586922 Eh            -793.09942 eV
Kinetic Energy     :           14.57290003 Eh             396.54877 eV
Virial Ratio       :            2.00000475


---------------
SCF CONVERGENCE
---------------

  Last Energy change         ...   -8.0683e-09  Tolerance :   1.0000e-08
  Last MAX-Density change    ...    7.3031e-06  Tolerance :   1.0000e-07
  Last RMS-Density change    ...    1.8997e-07  Tolerance :   5.0000e-09
  Last Orbital Gradient      ...    1.3458e-06  Tolerance :   1.0000e-05
  Last Orbital Rotation      ...    2.8179e-06  Tolerance :   1.0000e-05

             **** THE GBW FILE WAS UPDATED (04_Be.gbw) ****
             **** DENSITY FILE WAS UPDATED (04_Be.scfp) ****
             **** ENERGY FILE WAS UPDATED (04_Be.en.tmp) ****
             **** THE GBW FILE WAS UPDATED (04_Be.gbw) ****
             **** DENSITY FILE WAS UPDATED (04_Be.scfp) ****
----------------
ORBITAL ENERGIES
----------------

  NO   OCC          E(Eh)            E(eV) 
   0   2.0000      -4.732684      -128.7829 
   1   2.0000      -0.309272        -8.4157 
   2   0.0000       0.016578         0.4511 
   3   0.0000       0.016578         0.4511 
   4   0.0000       0.016578         0.4511 
   5   0.0000       0.031256         0.8505 
   6   0.0000       0.057726         1.5708 
   7   0.0000       0.057726         1.5708 
   8   0.0000       0.057726         1.5708 
   9   0.0000       0.172393         4.6911 
  10   0.0000       0.172393         4.6911 
  11   0.0000       0.172393         4.6911 
  12   0.0000       0.172393         4.6911 
  13   0.0000       0.172393         4.6911 
  14   0.0000       0.194989         5.3059 
  15   0.0000       0.219335         5.9684 
  16   0.0000       0.219335         5.9684 
  17   0.0000       0.219335         5.9684 
  18   0.0000       0.370167        10.0727 
  19   0.0000       0.370167        10.0727 
  20   0.0000       0.370167        10.0727 
  21   0.0000       0.370167        10.0727 
  22   0.0000       0.370167        10.0727 
  23   0.0000       0.370167        10.0727 
  24   0.0000       0.370167        10.0727 
  25   0.0000       0.600891        16.3511 
  26   0.0000       0.600891        16.3511 
  27   0.0000       0.600891        16.3511 
  28   0.0000       0.600891        16.3511 
  29   0.0000       0.600891        16.3511 
  30   0.0000       0.709789        19.3143 
  31   0.0000       0.709789        19.3143 
  32   0.0000       0.709789        19.3143 
  33   0.0000       0.791931        21.5495 
  34   0.0000       0.845749        23.0140 
  35   0.0000       0.845749        23.0140 
  36   0.0000       0.845749        23.0140 
  37   0.0000       0.845749        23.0140 
  38   0.0000       0.845749        23.0140 
  39   0.0000       0.845749        23.0140 
  40   0.0000       0.845749        23.0140 
  41   0.0000       0.845749        23.0140 
  42   0.0000       0.845749        23.0140 
  43   0.0000       1.121659        30.5219 
  44   0.0000       1.121659        30.5219 
  45   0.0000       1.121659        30.5219 
  46   0.0000       1.121659        30.5219 
  47   0.0000       1.121659        30.5219 
  48   0.0000       1.121659        30.5219 
  49   0.0000       1.121659        30.5219 
  50   0.0000       1.687851        45.9288 
  51   0.0000       1.687851        45.9288 
  52   0.0000       1.687851        45.9288 
  53   0.0000       1.687851        45.9288 
  54   0.0000       1.687851        45.9288 
  55   0.0000       2.437955        66.3401 
  56   0.0000       2.437955        66.3401 
  57   0.0000       2.437955        66.3401 
  58   0.0000       2.437955        66.3401 
  59   0.0000       2.437955        66.3401 
  60   0.0000       2.437955        66.3401 
  61   0.0000       2.437955        66.3401 
  62   0.0000       2.437955        66.3401 
  63   0.0000       2.437955        66.3401 
  64   0.0000       2.450880        66.6918 
  65   0.0000       2.450880        66.6918 
  66   0.0000       2.450880        66.6918 
  67   0.0000       2.664446        72.5032 
  68   0.0000       2.664446        72.5032 
  69   0.0000       2.664446        72.5032 
  70   0.0000       2.664446        72.5032 
  71   0.0000       2.664446        72.5032 
  72   0.0000       2.664446        72.5032 
  73   0.0000       2.664446        72.5032 
  74   0.0000       4.509044       122.6973 
  75   0.0000       4.509044       122.6973 
  76   0.0000       4.509044       122.6973 
  77   0.0000       4.509044       122.6973 
  78   0.0000       4.509044       122.6973 
  79   0.0000       7.194569       195.7742 

                    ********************************
                    * MULLIKEN POPULATION ANALYSIS *
                    ********************************

-----------------------
MULLIKEN ATOMIC CHARGES
-----------------------
   0 Be:   -0.000000
Sum of atomic charges:   -0.0000000

--------------------------------
MULLIKEN REDUCED ORBITAL CHARGES
--------------------------------
  0 Bes       :     4.000000  s :     4.000000
      pz      :     0.000000  p :     0.000000
      px      :     0.000000
      py      :     0.000000
      dz2     :     0.000000  d :     0.000000
      dxz     :     0.000000
      dyz     :     0.000000
      dx2y2   :     0.000000
      dxy     :     0.000000
      f0      :     0.000000  f :     0.000000
      f+1     :     0.000000
      f-1     :     0.000000
      f+2     :     0.000000
      f-2     :     0.000000
      f+3     :     0.000000
      f-3     :     0.000000
      g0      :     0.000000  g :     0.000000
      g+1     :     0.000000
      g-1     :     0.000000
      g+2     :     0.000000
      g-2     :     0.000000
      g+3     :     0.000000
      g-3     :     0.000000
      g+4     :     0.000000
      g-4     :     0.000000


                     *******************************
                     * LOEWDIN POPULATION ANALYSIS *
                     *******************************

----------------------
LOEWDIN ATOMIC CHARGES
----------------------
   0 Be:   -0.000000

-------------------------------
LOEWDIN REDUCED ORBITAL CHARGES
-------------------------------
  0 Bes       :     4.000000  s :     4.000000
      pz      :     0.000000  p :     0.000000
      px      :     0.000000
      py      :     0.000000
      dz2     :     0.000000  d :     0.000000
      dxz     :     0.000000
      dyz     :     0.000000
      dx2y2   :     0.000000
      dxy     :     0.000000
      f0      :     0.000000  f :     0.000000
      f+1     :     0.000000
      f-1     :     0.000000
      f+2     :     0.000000
      f-2     :     0.000000
      f+3     :     0.000000
      f-3     :     0.000000
      g0      :     0.000000  g :     0.000000
      g+1     :     0.000000
      g-1     :     0.000000
      g+2     :     0.000000
      g-2     :     0.000000
      g+3     :     0.000000
      g-3     :     0.000000
      g+4     :     0.000000
      g-4     :     0.000000


                      *****************************
                      * MAYER POPULATION ANALYSIS *
                      *****************************

  NA   - Mulliken gross atomic population
  ZA   - Total nuclear charge
  QA   - Mulliken gross atomic charge
  VA   - Mayer's total valence
  BVA  - Mayer's bonded valence
  FA   - Mayer's free valence

  ATOM       NA         ZA         QA         VA         BVA        FA
  0 Be     4.0000     4.0000    -0.0000    -0.0000     0.0000    -0.0000

  Mayer bond orders larger than 0.100000


--------------------------
ATOM BASIS FOR ELEMENT Be
--------------------------
 NewGTO Be
 S 22
    1      14630.000000000000         0.000092010299
    2       2191.000000000000         0.000713079816
    3        498.200000000000         0.003735418108
    4        140.900000000000         0.015469731538
    5         45.860000000000         0.052879918886
    6         16.470000000000         0.145710309456
    7          6.319000000000         0.302714883087
    8          2.535000000000         0.404981329842
    9          1.035000000000         0.222411894718
   10      14630.000000000000        -0.000000008261
   11       2191.000000000000        -0.000000063176
   12        498.200000000000        -0.000000329972
   13        140.900000000000        -0.000001388409
   14         45.860000000000        -0.000004768798
   15         16.470000000000        -0.000013903042
   16          6.319000000000        -0.000030985283
   17          2.535000000000        -0.000056970447
   18          1.035000000000        -0.000058900223
   19          0.252800000000         0.013202072962
   20          0.105200000000        -0.005333885491
   21          0.042610000000         0.002034222806
   22          0.014100000000        -0.000468050901
 S 22
    1      14630.000000000000         0.000000012745
    2       2191.000000000000         0.000000098776
    3        498.200000000000         0.000000517434
    4        140.900000000000         0.000002142882
    5         45.860000000000         0.000007324976
    6         16.470000000000         0.000020183928
    7          6.319000000000         0.000041932347
    8          2.535000000000         0.000056098391
    9          1.035000000000         0.000030808703
   10      14630.000000000000         0.000016988741
   11       2191.000000000000         0.000129913903
   12        498.200000000000         0.000678550307
   13        140.900000000000         0.002855107846
   14         45.860000000000         0.009806500978
   15         16.470000000000         0.028590052631
   16          6.319000000000         0.063717772580
   17          2.535000000000         0.117153359432
   18          1.035000000000         0.121121729490
   19          0.252800000000        -0.252543689382
   20          0.105200000000        -0.583957064239
   21          0.042610000000        -0.288697255404
   22          0.014100000000        -0.002353960867
 S 22
    1      14630.000000000000         0.000002025725
    2       2191.000000000000         0.000015699367
    3        498.200000000000         0.000082240020
    4        140.900000000000         0.000340585976
    5         45.860000000000         0.001164219222
    6         16.470000000000         0.003207999305
    7          6.319000000000         0.006664656319
    8          2.535000000000         0.008916183280
    9          1.035000000000         0.004896683059
   10      14630.000000000000        -0.000005381468
   11       2191.000000000000        -0.000041152399
   12        498.200000000000        -0.000214942144
   13        140.900000000000        -0.000904403100
   14         45.860000000000        -0.003106372986
   15         16.470000000000        -0.009056376721
   16          6.319000000000        -0.020183668766
   17          2.535000000000        -0.037110283455
   18          1.035000000000        -0.038367330956
   19          0.252800000000         0.174258164341
   20          0.105200000000        -0.311587770966
   21          0.042610000000         1.321395875795
   22          0.014100000000        -1.710666245524
 S 22
    1      14630.000000000000        -0.000007217399
    2       2191.000000000000        -0.000055934844
    3        498.200000000000        -0.000293010720
    4        140.900000000000        -0.001213464474
    5         45.860000000000        -0.004147964869
    6         16.470000000000        -0.011429693114
    7          6.319000000000        -0.023745321986
    8          2.535000000000        -0.031767225903
    9          1.035000000000        -0.017446258339
   10      14630.000000000000        -0.000003964448
   11       2191.000000000000        -0.000030316370
   12        498.200000000000        -0.000158344734
   13        140.900000000000        -0.000666260537
   14         45.860000000000        -0.002288419548
   15         16.470000000000        -0.006671700280
   16          6.319000000000        -0.014869013592
   17          2.535000000000        -0.027338603080
   18          1.035000000000        -0.028264651590
   19          0.252800000000        -0.415969017213
   20          0.105200000000         2.962324803073
   21          0.042610000000        -3.694926373153
   22          0.014100000000         1.316215818564
 S 22
    1      14630.000000000000         0.000042516504
    2       2191.000000000000         0.000329502907
    3        498.200000000000         0.001726077642
    4        140.900000000000         0.007148318333
    5         45.860000000000         0.024434974368
    6         16.470000000000         0.067330429994
    7          6.319000000000         0.139879760876
    8          2.535000000000         0.187135468861
    9          1.035000000000         0.102773019720
   10      14630.000000000000        -0.000061623139
   11       2191.000000000000        -0.000471235772
   12        498.200000000000        -0.002461300686
   13        140.900000000000        -0.010356312312
   14         45.860000000000        -0.035571051003
   15         16.470000000000        -0.103704493850
   16          6.319000000000        -0.231123021703
   17          2.535000000000        -0.424949544498
   18          1.035000000000        -0.439343984887
   19          0.252800000000         3.490266822377
   20          0.105200000000        -4.818137731872
   21          0.042610000000         2.668127944912
   22          0.014100000000        -0.665783389011
 S 22
    1      14630.000000000000         0.000731036820
    2       2191.000000000000         0.005665535357
    3        498.200000000000         0.029678505691
    4        140.900000000000         0.122909538428
    5         45.860000000000         0.420139574273
    6         16.470000000000         1.157692157471
    7          6.319000000000         2.405119084626
    8          2.535000000000         3.217642672160
    9          1.035000000000         1.767098753713
   10      14630.000000000000        -0.000483721831
   11       2191.000000000000        -0.003699049299
   12        498.200000000000        -0.019320419031
   13        140.900000000000        -0.081293721901
   14         45.860000000000        -0.279221313622
   15         16.470000000000        -0.814046933803
   16          6.319000000000        -1.814241410020
   17          2.535000000000        -3.335717295140
   18          1.035000000000        -3.448709024111
   19          0.252800000000         2.252499141345
   20          0.105200000000        -2.059447966217
   21          0.042610000000         1.010263056512
   22          0.014100000000        -0.254231981763
 P 7
    1         14.030000000000         0.000746268910
    2          3.168000000000         0.004665500633
    3          0.902400000000         0.018892127903
    4          0.303600000000         0.039779332416
    5          0.113000000000         0.115507344596
    6          0.042860000000         0.030038406330
    7          0.008400000000         0.946557711112
 P 7
    1         14.030000000000         0.001881302205
    2          3.168000000000         0.011761466288
    3          0.902400000000         0.047625998353
    4          0.303600000000         0.195662975309
    5          0.113000000000         0.047832476824
    6          0.042860000000         0.956181440350
    7          0.008400000000        -0.626591648988
 P 7
    1         14.030000000000         0.004464613093
    2          3.168000000000         0.027911728498
    3          0.902400000000         0.113023657330
    4          0.303600000000         0.026041532228
    5          0.113000000000         1.433663813638
    6          0.042860000000        -1.510626501757
    7          0.008400000000         0.364216357425
 P 7
    1         14.030000000000         0.004604145006
    2          3.168000000000         0.028784049752
    3          0.902400000000         0.116555969510
    4          0.303600000000         1.540489271925
    5          0.113000000000        -2.083349301175
    6          0.042860000000         0.983404275480
    7          0.008400000000        -0.180918436744
 P 7
    1         14.030000000000         0.048542047839
    2          3.168000000000         0.303473656480
    3          0.902400000000         1.228863435014
    4          0.303600000000        -1.824351681680
    5          0.113000000000         1.243922924182
    6          0.042860000000        -0.488732017171
    7          0.008400000000         0.089139593439
 D 4
    1          1.128800000000        -0.015093136123
    2          0.456900000000         0.079248249471
    3          0.185000000000        -0.169850211651
    4          0.055600000000         1.074241928555
 D 4
    1          1.128800000000         0.083152902337
    2          0.456900000000        -0.271229108902
    3          0.185000000000         1.386143656064
    4          0.055600000000        -0.621231948656
 D 4
    1          1.128800000000        -0.182057055468
    2          0.456900000000         1.677205192916
    3          0.185000000000        -1.229546736321
    4          0.055600000000         0.336231434043
 D 4
    1          1.128800000000         1.593451768438
    2          0.456900000000        -1.544278190559
    3          0.185000000000         0.710800818698
    4          0.055600000000        -0.175470210814
 F 3
    1          0.476800000000         0.109168330389
    2          0.252100000000        -0.288681538852
    3          0.090500000000         1.123846457926
 F 3
    1          0.476800000000         0.402545061929
    2          0.252100000000        -1.560352631557
    3          0.090500000000         0.626838734553
 F 3
    1          0.476800000000         1.781979001862
    2          0.252100000000        -1.457542001583
    3          0.090500000000         0.364412858250
 G 2
    1          0.413100000000         0.180408931005
    2          0.165400000000        -1.092374485910
 G 2
    1          0.413100000000         1.206716109441
    2          0.165400000000        -0.543533930589
 end
  // -----------------------------------------------
  // The basis set
  // -----------------------------------------------
  BAS[ATNO] = new BFNGauss[NSH];
  // Basis function   1 L = s
  InitBFNGauss(BAS[ATNO][  0]);
  BAS[ATNO][  0].l  = 0;
  BAS[ATNO][  0].ng = 22;
  BAS[ATNO][  0].a[  0] =     14630.000000000000;     BAS[ATNO][  0].d[  0] =         0.000092010299;
  BAS[ATNO][  0].a[  1] =      2191.000000000000;     BAS[ATNO][  0].d[  1] =         0.000713079816;
  BAS[ATNO][  0].a[  2] =       498.200000000000;     BAS[ATNO][  0].d[  2] =         0.003735418108;
  BAS[ATNO][  0].a[  3] =       140.900000000000;     BAS[ATNO][  0].d[  3] =         0.015469731538;
  BAS[ATNO][  0].a[  4] =        45.860000000000;     BAS[ATNO][  0].d[  4] =         0.052879918886;
  BAS[ATNO][  0].a[  5] =        16.470000000000;     BAS[ATNO][  0].d[  5] =         0.145710309456;
  BAS[ATNO][  0].a[  6] =         6.319000000000;     BAS[ATNO][  0].d[  6] =         0.302714883087;
  BAS[ATNO][  0].a[  7] =         2.535000000000;     BAS[ATNO][  0].d[  7] =         0.404981329842;
  BAS[ATNO][  0].a[  8] =         1.035000000000;     BAS[ATNO][  0].d[  8] =         0.222411894718;
  BAS[ATNO][  0].a[  9] =     14630.000000000000;     BAS[ATNO][  0].d[  9] =        -0.000000008261;
  BAS[ATNO][  0].a[ 10] =      2191.000000000000;     BAS[ATNO][  0].d[ 10] =        -0.000000063176;
  BAS[ATNO][  0].a[ 11] =       498.200000000000;     BAS[ATNO][  0].d[ 11] =        -0.000000329972;
  BAS[ATNO][  0].a[ 12] =       140.900000000000;     BAS[ATNO][  0].d[ 12] =        -0.000001388409;
  BAS[ATNO][  0].a[ 13] =        45.860000000000;     BAS[ATNO][  0].d[ 13] =        -0.000004768798;
  BAS[ATNO][  0].a[ 14] =        16.470000000000;     BAS[ATNO][  0].d[ 14] =        -0.000013903042;
  BAS[ATNO][  0].a[ 15] =         6.319000000000;     BAS[ATNO][  0].d[ 15] =        -0.000030985283;
  BAS[ATNO][  0].a[ 16] =         2.535000000000;     BAS[ATNO][  0].d[ 16] =        -0.000056970447;
  BAS[ATNO][  0].a[ 17] =         1.035000000000;     BAS[ATNO][  0].d[ 17] =        -0.000058900223;
  BAS[ATNO][  0].a[ 18] =         0.252800000000;     BAS[ATNO][  0].d[ 18] =         0.013202072962;
  BAS[ATNO][  0].a[ 19] =         0.105200000000;     BAS[ATNO][  0].d[ 19] =        -0.005333885491;
  BAS[ATNO][  0].a[ 20] =         0.042610000000;     BAS[ATNO][  0].d[ 20] =         0.002034222806;
  BAS[ATNO][  0].a[ 21] =         0.014100000000;     BAS[ATNO][  0].d[ 21] =        -0.000468050901;

  // Basis function   2 L = s
  InitBFNGauss(BAS[ATNO][  1]);
  BAS[ATNO][  1].l  = 0;
  BAS[ATNO][  1].ng = 22;
  BAS[ATNO][  1].a[  0] =     14630.000000000000;     BAS[ATNO][  1].d[  0] =        -0.000000012745;
  BAS[ATNO][  1].a[  1] =      2191.000000000000;     BAS[ATNO][  1].d[  1] =        -0.000000098776;
  BAS[ATNO][  1].a[  2] =       498.200000000000;     BAS[ATNO][  1].d[  2] =        -0.000000517434;
  BAS[ATNO][  1].a[  3] =       140.900000000000;     BAS[ATNO][  1].d[  3] =        -0.000002142882;
  BAS[ATNO][  1].a[  4] =        45.860000000000;     BAS[ATNO][  1].d[  4] =        -0.000007324976;
  BAS[ATNO][  1].a[  5] =        16.470000000000;     BAS[ATNO][  1].d[  5] =        -0.000020183928;
  BAS[ATNO][  1].a[  6] =         6.319000000000;     BAS[ATNO][  1].d[  6] =        -0.000041932347;
  BAS[ATNO][  1].a[  7] =         2.535000000000;     BAS[ATNO][  1].d[  7] =        -0.000056098391;
  BAS[ATNO][  1].a[  8] =         1.035000000000;     BAS[ATNO][  1].d[  8] =        -0.000030808703;
  BAS[ATNO][  1].a[  9] =     14630.000000000000;     BAS[ATNO][  1].d[  9] =        -0.000016988741;
  BAS[ATNO][  1].a[ 10] =      2191.000000000000;     BAS[ATNO][  1].d[ 10] =        -0.000129913903;
  BAS[ATNO][  1].a[ 11] =       498.200000000000;     BAS[ATNO][  1].d[ 11] =        -0.000678550307;
  BAS[ATNO][  1].a[ 12] =       140.900000000000;     BAS[ATNO][  1].d[ 12] =        -0.002855107846;
  BAS[ATNO][  1].a[ 13] =        45.860000000000;     BAS[ATNO][  1].d[ 13] =        -0.009806500978;
  BAS[ATNO][  1].a[ 14] =        16.470000000000;     BAS[ATNO][  1].d[ 14] =        -0.028590052631;
  BAS[ATNO][  1].a[ 15] =         6.319000000000;     BAS[ATNO][  1].d[ 15] =        -0.063717772580;
  BAS[ATNO][  1].a[ 16] =         2.535000000000;     BAS[ATNO][  1].d[ 16] =        -0.117153359432;
  BAS[ATNO][  1].a[ 17] =         1.035000000000;     BAS[ATNO][  1].d[ 17] =        -0.121121729490;
  BAS[ATNO][  1].a[ 18] =         0.252800000000;     BAS[ATNO][  1].d[ 18] =         0.252543689382;
  BAS[ATNO][  1].a[ 19] =         0.105200000000;     BAS[ATNO][  1].d[ 19] =         0.583957064239;
  BAS[ATNO][  1].a[ 20] =         0.042610000000;     BAS[ATNO][  1].d[ 20] =         0.288697255404;
  BAS[ATNO][  1].a[ 21] =         0.014100000000;     BAS[ATNO][  1].d[ 21] =         0.002353960867;

  // Basis function   3 L = s
  InitBFNGauss(BAS[ATNO][  2]);
  BAS[ATNO][  2].l  = 0;
  BAS[ATNO][  2].ng = 22;
  BAS[ATNO][  2].a[  0] =     14630.000000000000;     BAS[ATNO][  2].d[  0] =        -0.000002025725;
  BAS[ATNO][  2].a[  1] =      2191.000000000000;     BAS[ATNO][  2].d[  1] =        -0.000015699367;
  BAS[ATNO][  2].a[  2] =       498.200000000000;     BAS[ATNO][  2].d[  2] =        -0.000082240020;
  BAS[ATNO][  2].a[  3] =       140.900000000000;     BAS[ATNO][  2].d[  3] =        -0.000340585976;
  BAS[ATNO][  2].a[  4] =        45.860000000000;     BAS[ATNO][  2].d[  4] =        -0.001164219222;
  BAS[ATNO][  2].a[  5] =        16.470000000000;     BAS[ATNO][  2].d[  5] =        -0.003207999305;
  BAS[ATNO][  2].a[  6] =         6.319000000000;     BAS[ATNO][  2].d[  6] =        -0.006664656319;
  BAS[ATNO][  2].a[  7] =         2.535000000000;     BAS[ATNO][  2].d[  7] =        -0.008916183280;
  BAS[ATNO][  2].a[  8] =         1.035000000000;     BAS[ATNO][  2].d[  8] =        -0.004896683059;
  BAS[ATNO][  2].a[  9] =     14630.000000000000;     BAS[ATNO][  2].d[  9] =         0.000005381468;
  BAS[ATNO][  2].a[ 10] =      2191.000000000000;     BAS[ATNO][  2].d[ 10] =         0.000041152399;
  BAS[ATNO][  2].a[ 11] =       498.200000000000;     BAS[ATNO][  2].d[ 11] =         0.000214942144;
  BAS[ATNO][  2].a[ 12] =       140.900000000000;     BAS[ATNO][  2].d[ 12] =         0.000904403100;
  BAS[ATNO][  2].a[ 13] =        45.860000000000;     BAS[ATNO][  2].d[ 13] =         0.003106372986;
  BAS[ATNO][  2].a[ 14] =        16.470000000000;     BAS[ATNO][  2].d[ 14] =         0.009056376721;
  BAS[ATNO][  2].a[ 15] =         6.319000000000;     BAS[ATNO][  2].d[ 15] =         0.020183668766;
  BAS[ATNO][  2].a[ 16] =         2.535000000000;     BAS[ATNO][  2].d[ 16] =         0.037110283455;
  BAS[ATNO][  2].a[ 17] =         1.035000000000;     BAS[ATNO][  2].d[ 17] =         0.038367330956;
  BAS[ATNO][  2].a[ 18] =         0.252800000000;     BAS[ATNO][  2].d[ 18] =        -0.174258164341;
  BAS[ATNO][  2].a[ 19] =         0.105200000000;     BAS[ATNO][  2].d[ 19] =         0.311587770966;
  BAS[ATNO][  2].a[ 20] =         0.042610000000;     BAS[ATNO][  2].d[ 20] =        -1.321395875795;
  BAS[ATNO][  2].a[ 21] =         0.014100000000;     BAS[ATNO][  2].d[ 21] =         1.710666245524;

  // Basis function   4 L = s
  InitBFNGauss(BAS[ATNO][  3]);
  BAS[ATNO][  3].l  = 0;
  BAS[ATNO][  3].ng = 22;
  BAS[ATNO][  3].a[  0] =     14630.000000000000;     BAS[ATNO][  3].d[  0] =         0.000007217399;
  BAS[ATNO][  3].a[  1] =      2191.000000000000;     BAS[ATNO][  3].d[  1] =         0.000055934844;
  BAS[ATNO][  3].a[  2] =       498.200000000000;     BAS[ATNO][  3].d[  2] =         0.000293010720;
  BAS[ATNO][  3].a[  3] =       140.900000000000;     BAS[ATNO][  3].d[  3] =         0.001213464474;
  BAS[ATNO][  3].a[  4] =        45.860000000000;     BAS[ATNO][  3].d[  4] =         0.004147964869;
  BAS[ATNO][  3].a[  5] =        16.470000000000;     BAS[ATNO][  3].d[  5] =         0.011429693114;
  BAS[ATNO][  3].a[  6] =         6.319000000000;     BAS[ATNO][  3].d[  6] =         0.023745321986;
  BAS[ATNO][  3].a[  7] =         2.535000000000;     BAS[ATNO][  3].d[  7] =         0.031767225903;
  BAS[ATNO][  3].a[  8] =         1.035000000000;     BAS[ATNO][  3].d[  8] =         0.017446258339;
  BAS[ATNO][  3].a[  9] =     14630.000000000000;     BAS[ATNO][  3].d[  9] =         0.000003964448;
  BAS[ATNO][  3].a[ 10] =      2191.000000000000;     BAS[ATNO][  3].d[ 10] =         0.000030316370;
  BAS[ATNO][  3].a[ 11] =       498.200000000000;     BAS[ATNO][  3].d[ 11] =         0.000158344734;
  BAS[ATNO][  3].a[ 12] =       140.900000000000;     BAS[ATNO][  3].d[ 12] =         0.000666260537;
  BAS[ATNO][  3].a[ 13] =        45.860000000000;     BAS[ATNO][  3].d[ 13] =         0.002288419548;
  BAS[ATNO][  3].a[ 14] =        16.470000000000;     BAS[ATNO][  3].d[ 14] =         0.006671700280;
  BAS[ATNO][  3].a[ 15] =         6.319000000000;     BAS[ATNO][  3].d[ 15] =         0.014869013592;
  BAS[ATNO][  3].a[ 16] =         2.535000000000;     BAS[ATNO][  3].d[ 16] =         0.027338603080;
  BAS[ATNO][  3].a[ 17] =         1.035000000000;     BAS[ATNO][  3].d[ 17] =         0.028264651590;
  BAS[ATNO][  3].a[ 18] =         0.252800000000;     BAS[ATNO][  3].d[ 18] =         0.415969017213;
  BAS[ATNO][  3].a[ 19] =         0.105200000000;     BAS[ATNO][  3].d[ 19] =        -2.962324803073;
  BAS[ATNO][  3].a[ 20] =         0.042610000000;     BAS[ATNO][  3].d[ 20] =         3.694926373153;
  BAS[ATNO][  3].a[ 21] =         0.014100000000;     BAS[ATNO][  3].d[ 21] =        -1.316215818564;

  // Basis function   5 L = s
  InitBFNGauss(BAS[ATNO][  4]);
  BAS[ATNO][  4].l  = 0;
  BAS[ATNO][  4].ng = 22;
  BAS[ATNO][  4].a[  0] =     14630.000000000000;     BAS[ATNO][  4].d[  0] =        -0.000042516504;
  BAS[ATNO][  4].a[  1] =      2191.000000000000;     BAS[ATNO][  4].d[  1] =        -0.000329502907;
  BAS[ATNO][  4].a[  2] =       498.200000000000;     BAS[ATNO][  4].d[  2] =        -0.001726077642;
  BAS[ATNO][  4].a[  3] =       140.900000000000;     BAS[ATNO][  4].d[  3] =        -0.007148318333;
  BAS[ATNO][  4].a[  4] =        45.860000000000;     BAS[ATNO][  4].d[  4] =        -0.024434974368;
  BAS[ATNO][  4].a[  5] =        16.470000000000;     BAS[ATNO][  4].d[  5] =        -0.067330429994;
  BAS[ATNO][  4].a[  6] =         6.319000000000;     BAS[ATNO][  4].d[  6] =        -0.139879760876;
  BAS[ATNO][  4].a[  7] =         2.535000000000;     BAS[ATNO][  4].d[  7] =        -0.187135468861;
  BAS[ATNO][  4].a[  8] =         1.035000000000;     BAS[ATNO][  4].d[  8] =        -0.102773019720;
  BAS[ATNO][  4].a[  9] =     14630.000000000000;     BAS[ATNO][  4].d[  9] =         0.000061623139;
  BAS[ATNO][  4].a[ 10] =      2191.000000000000;     BAS[ATNO][  4].d[ 10] =         0.000471235772;
  BAS[ATNO][  4].a[ 11] =       498.200000000000;     BAS[ATNO][  4].d[ 11] =         0.002461300686;
  BAS[ATNO][  4].a[ 12] =       140.900000000000;     BAS[ATNO][  4].d[ 12] =         0.010356312312;
  BAS[ATNO][  4].a[ 13] =        45.860000000000;     BAS[ATNO][  4].d[ 13] =         0.035571051003;
  BAS[ATNO][  4].a[ 14] =        16.470000000000;     BAS[ATNO][  4].d[ 14] =         0.103704493850;
  BAS[ATNO][  4].a[ 15] =         6.319000000000;     BAS[ATNO][  4].d[ 15] =         0.231123021703;
  BAS[ATNO][  4].a[ 16] =         2.535000000000;     BAS[ATNO][  4].d[ 16] =         0.424949544498;
  BAS[ATNO][  4].a[ 17] =         1.035000000000;     BAS[ATNO][  4].d[ 17] =         0.439343984887;
  BAS[ATNO][  4].a[ 18] =         0.252800000000;     BAS[ATNO][  4].d[ 18] =        -3.490266822377;
  BAS[ATNO][  4].a[ 19] =         0.105200000000;     BAS[ATNO][  4].d[ 19] =         4.818137731872;
  BAS[ATNO][  4].a[ 20] =         0.042610000000;     BAS[ATNO][  4].d[ 20] =        -2.668127944912;
  BAS[ATNO][  4].a[ 21] =         0.014100000000;     BAS[ATNO][  4].d[ 21] =         0.665783389011;

  // Basis function   6 L = s
  InitBFNGauss(BAS[ATNO][  5]);
  BAS[ATNO][  5].l  = 0;
  BAS[ATNO][  5].ng = 22;
  BAS[ATNO][  5].a[  0] =     14630.000000000000;     BAS[ATNO][  5].d[  0] =        -0.000731036820;
  BAS[ATNO][  5].a[  1] =      2191.000000000000;     BAS[ATNO][  5].d[  1] =        -0.005665535357;
  BAS[ATNO][  5].a[  2] =       498.200000000000;     BAS[ATNO][  5].d[  2] =        -0.029678505691;
  BAS[ATNO][  5].a[  3] =       140.900000000000;     BAS[ATNO][  5].d[  3] =        -0.122909538428;
  BAS[ATNO][  5].a[  4] =        45.860000000000;     BAS[ATNO][  5].d[  4] =        -0.420139574273;
  BAS[ATNO][  5].a[  5] =        16.470000000000;     BAS[ATNO][  5].d[  5] =        -1.157692157471;
  BAS[ATNO][  5].a[  6] =         6.319000000000;     BAS[ATNO][  5].d[  6] =        -2.405119084626;
  BAS[ATNO][  5].a[  7] =         2.535000000000;     BAS[ATNO][  5].d[  7] =        -3.217642672160;
  BAS[ATNO][  5].a[  8] =         1.035000000000;     BAS[ATNO][  5].d[  8] =        -1.767098753713;
  BAS[ATNO][  5].a[  9] =     14630.000000000000;     BAS[ATNO][  5].d[  9] =         0.000483721831;
  BAS[ATNO][  5].a[ 10] =      2191.000000000000;     BAS[ATNO][  5].d[ 10] =         0.003699049299;
  BAS[ATNO][  5].a[ 11] =       498.200000000000;     BAS[ATNO][  5].d[ 11] =         0.019320419031;
  BAS[ATNO][  5].a[ 12] =       140.900000000000;     BAS[ATNO][  5].d[ 12] =         0.081293721901;
  BAS[ATNO][  5].a[ 13] =        45.860000000000;     BAS[ATNO][  5].d[ 13] =         0.279221313622;
  BAS[ATNO][  5].a[ 14] =        16.470000000000;     BAS[ATNO][  5].d[ 14] =         0.814046933803;
  BAS[ATNO][  5].a[ 15] =         6.319000000000;     BAS[ATNO][  5].d[ 15] =         1.814241410020;
  BAS[ATNO][  5].a[ 16] =         2.535000000000;     BAS[ATNO][  5].d[ 16] =         3.335717295140;
  BAS[ATNO][  5].a[ 17] =         1.035000000000;     BAS[ATNO][  5].d[ 17] =         3.448709024111;
  BAS[ATNO][  5].a[ 18] =         0.252800000000;     BAS[ATNO][  5].d[ 18] =        -2.252499141345;
  BAS[ATNO][  5].a[ 19] =         0.105200000000;     BAS[ATNO][  5].d[ 19] =         2.059447966217;
  BAS[ATNO][  5].a[ 20] =         0.042610000000;     BAS[ATNO][  5].d[ 20] =        -1.010263056512;
  BAS[ATNO][  5].a[ 21] =         0.014100000000;     BAS[ATNO][  5].d[ 21] =         0.254231981763;

  // Basis function   7 L = p
  InitBFNGauss(BAS[ATNO][  6]);
  BAS[ATNO][  6].l  = 1;
  BAS[ATNO][  6].ng = 7;
  BAS[ATNO][  6].a[  0] =        14.030000000000;     BAS[ATNO][  6].d[  0] =         0.000746268910;
  BAS[ATNO][  6].a[  1] =         3.168000000000;     BAS[ATNO][  6].d[  1] =         0.004665500633;
  BAS[ATNO][  6].a[  2] =         0.902400000000;     BAS[ATNO][  6].d[  2] =         0.018892127903;
  BAS[ATNO][  6].a[  3] =         0.303600000000;     BAS[ATNO][  6].d[  3] =         0.039779332416;
  BAS[ATNO][  6].a[  4] =         0.113000000000;     BAS[ATNO][  6].d[  4] =         0.115507344596;
  BAS[ATNO][  6].a[  5] =         0.042860000000;     BAS[ATNO][  6].d[  5] =         0.030038406330;
  BAS[ATNO][  6].a[  6] =         0.008400000000;     BAS[ATNO][  6].d[  6] =         0.946557711112;

  // Basis function   8 L = p
  InitBFNGauss(BAS[ATNO][  7]);
  BAS[ATNO][  7].l  = 1;
  BAS[ATNO][  7].ng = 7;
  BAS[ATNO][  7].a[  0] =        14.030000000000;     BAS[ATNO][  7].d[  0] =         0.001881302205;
  BAS[ATNO][  7].a[  1] =         3.168000000000;     BAS[ATNO][  7].d[  1] =         0.011761466288;
  BAS[ATNO][  7].a[  2] =         0.902400000000;     BAS[ATNO][  7].d[  2] =         0.047625998353;
  BAS[ATNO][  7].a[  3] =         0.303600000000;     BAS[ATNO][  7].d[  3] =         0.195662975309;
  BAS[ATNO][  7].a[  4] =         0.113000000000;     BAS[ATNO][  7].d[  4] =         0.047832476824;
  BAS[ATNO][  7].a[  5] =         0.042860000000;     BAS[ATNO][  7].d[  5] =         0.956181440350;
  BAS[ATNO][  7].a[  6] =         0.008400000000;     BAS[ATNO][  7].d[  6] =        -0.626591648988;

  // Basis function   9 L = p
  InitBFNGauss(BAS[ATNO][  8]);
  BAS[ATNO][  8].l  = 1;
  BAS[ATNO][  8].ng = 7;
  BAS[ATNO][  8].a[  0] =        14.030000000000;     BAS[ATNO][  8].d[  0] =        -0.004464613093;
  BAS[ATNO][  8].a[  1] =         3.168000000000;     BAS[ATNO][  8].d[  1] =        -0.027911728498;
  BAS[ATNO][  8].a[  2] =         0.902400000000;     BAS[ATNO][  8].d[  2] =        -0.113023657330;
  BAS[ATNO][  8].a[  3] =         0.303600000000;     BAS[ATNO][  8].d[  3] =        -0.026041532228;
  BAS[ATNO][  8].a[  4] =         0.113000000000;     BAS[ATNO][  8].d[  4] =        -1.433663813638;
  BAS[ATNO][  8].a[  5] =         0.042860000000;     BAS[ATNO][  8].d[  5] =         1.510626501757;
  BAS[ATNO][  8].a[  6] =         0.008400000000;     BAS[ATNO][  8].d[  6] =        -0.364216357425;

  // Basis function  10 L = p
  InitBFNGauss(BAS[ATNO][  9]);
  BAS[ATNO][  9].l  = 1;
  BAS[ATNO][  9].ng = 7;
  BAS[ATNO][  9].a[  0] =        14.030000000000;     BAS[ATNO][  9].d[  0] =        -0.004604145006;
  BAS[ATNO][  9].a[  1] =         3.168000000000;     BAS[ATNO][  9].d[  1] =        -0.028784049752;
  BAS[ATNO][  9].a[  2] =         0.902400000000;     BAS[ATNO][  9].d[  2] =        -0.116555969510;
  BAS[ATNO][  9].a[  3] =         0.303600000000;     BAS[ATNO][  9].d[  3] =        -1.540489271925;
  BAS[ATNO][  9].a[  4] =         0.113000000000;     BAS[ATNO][  9].d[  4] =         2.083349301175;
  BAS[ATNO][  9].a[  5] =         0.042860000000;     BAS[ATNO][  9].d[  5] =        -0.983404275480;
  BAS[ATNO][  9].a[  6] =         0.008400000000;     BAS[ATNO][  9].d[  6] =         0.180918436744;

  // Basis function  11 L = p
  InitBFNGauss(BAS[ATNO][ 10]);
  BAS[ATNO][ 10].l  = 1;
  BAS[ATNO][ 10].ng = 7;
  BAS[ATNO][ 10].a[  0] =        14.030000000000;     BAS[ATNO][ 10].d[  0] =        -0.048542047839;
  BAS[ATNO][ 10].a[  1] =         3.168000000000;     BAS[ATNO][ 10].d[  1] =        -0.303473656480;
  BAS[ATNO][ 10].a[  2] =         0.902400000000;     BAS[ATNO][ 10].d[  2] =        -1.228863435014;
  BAS[ATNO][ 10].a[  3] =         0.303600000000;     BAS[ATNO][ 10].d[  3] =         1.824351681680;
  BAS[ATNO][ 10].a[  4] =         0.113000000000;     BAS[ATNO][ 10].d[  4] =        -1.243922924182;
  BAS[ATNO][ 10].a[  5] =         0.042860000000;     BAS[ATNO][ 10].d[  5] =         0.488732017171;
  BAS[ATNO][ 10].a[  6] =         0.008400000000;     BAS[ATNO][ 10].d[  6] =        -0.089139593439;

  // Basis function  12 L = d
  InitBFNGauss(BAS[ATNO][ 11]);
  BAS[ATNO][ 11].l  = 2;
  BAS[ATNO][ 11].ng = 4;
  BAS[ATNO][ 11].a[  0] =         1.128800000000;     BAS[ATNO][ 11].d[  0] =        -0.015093136123;
  BAS[ATNO][ 11].a[  1] =         0.456900000000;     BAS[ATNO][ 11].d[  1] =         0.079248249471;
  BAS[ATNO][ 11].a[  2] =         0.185000000000;     BAS[ATNO][ 11].d[  2] =        -0.169850211651;
  BAS[ATNO][ 11].a[  3] =         0.055600000000;     BAS[ATNO][ 11].d[  3] =         1.074241928555;

  // Basis function  13 L = d
  InitBFNGauss(BAS[ATNO][ 12]);
  BAS[ATNO][ 12].l  = 2;
  BAS[ATNO][ 12].ng = 4;
  BAS[ATNO][ 12].a[  0] =         1.128800000000;     BAS[ATNO][ 12].d[  0] =         0.083152902337;
  BAS[ATNO][ 12].a[  1] =         0.456900000000;     BAS[ATNO][ 12].d[  1] =        -0.271229108902;
  BAS[ATNO][ 12].a[  2] =         0.185000000000;     BAS[ATNO][ 12].d[  2] =         1.386143656064;
  BAS[ATNO][ 12].a[  3] =         0.055600000000;     BAS[ATNO][ 12].d[  3] =        -0.621231948656;

  // Basis function  14 L = d
  InitBFNGauss(BAS[ATNO][ 13]);
  BAS[ATNO][ 13].l  = 2;
  BAS[ATNO][ 13].ng = 4;
  BAS[ATNO][ 13].a[  0] =         1.128800000000;     BAS[ATNO][ 13].d[  0] =        -0.182057055468;
  BAS[ATNO][ 13].a[  1] =         0.456900000000;     BAS[ATNO][ 13].d[  1] =         1.677205192916;
  BAS[ATNO][ 13].a[  2] =         0.185000000000;     BAS[ATNO][ 13].d[  2] =        -1.229546736321;
  BAS[ATNO][ 13].a[  3] =         0.055600000000;     BAS[ATNO][ 13].d[  3] =         0.336231434043;

  // Basis function  15 L = d
  InitBFNGauss(BAS[ATNO][ 14]);
  BAS[ATNO][ 14].l  = 2;
  BAS[ATNO][ 14].ng = 4;
  BAS[ATNO][ 14].a[  0] =         1.128800000000;     BAS[ATNO][ 14].d[  0] =         1.593451768438;
  BAS[ATNO][ 14].a[  1] =         0.456900000000;     BAS[ATNO][ 14].d[  1] =        -1.544278190559;
  BAS[ATNO][ 14].a[  2] =         0.185000000000;     BAS[ATNO][ 14].d[  2] =         0.710800818698;
  BAS[ATNO][ 14].a[  3] =         0.055600000000;     BAS[ATNO][ 14].d[  3] =        -0.175470210814;

  // Basis function  16 L = f
  InitBFNGauss(BAS[ATNO][ 15]);
  BAS[ATNO][ 15].l  = 3;
  BAS[ATNO][ 15].ng = 3;
  BAS[ATNO][ 15].a[  0] =         0.476800000000;     BAS[ATNO][ 15].d[  0] =         0.109168330389;
  BAS[ATNO][ 15].a[  1] =         0.252100000000;     BAS[ATNO][ 15].d[  1] =        -0.288681538852;
  BAS[ATNO][ 15].a[  2] =         0.090500000000;     BAS[ATNO][ 15].d[  2] =         1.123846457926;

  // Basis function  17 L = f
  InitBFNGauss(BAS[ATNO][ 16]);
  BAS[ATNO][ 16].l  = 3;
  BAS[ATNO][ 16].ng = 3;
  BAS[ATNO][ 16].a[  0] =         0.476800000000;     BAS[ATNO][ 16].d[  0] =        -0.402545061929;
  BAS[ATNO][ 16].a[  1] =         0.252100000000;     BAS[ATNO][ 16].d[  1] =         1.560352631557;
  BAS[ATNO][ 16].a[  2] =         0.090500000000;     BAS[ATNO][ 16].d[  2] =        -0.626838734553;

  // Basis function  18 L = f
  InitBFNGauss(BAS[ATNO][ 17]);
  BAS[ATNO][ 17].l  = 3;
  BAS[ATNO][ 17].ng = 3;
  BAS[ATNO][ 17].a[  0] =         0.476800000000;     BAS[ATNO][ 17].d[  0] =         1.781979001862;
  BAS[ATNO][ 17].a[  1] =         0.252100000000;     BAS[ATNO][ 17].d[  1] =        -1.457542001583;
  BAS[ATNO][ 17].a[  2] =         0.090500000000;     BAS[ATNO][ 17].d[  2] =         0.364412858250;

  // Basis function  19 L = g
  InitBFNGauss(BAS[ATNO][ 18]);
  BAS[ATNO][ 18].l  = 4;
  BAS[ATNO][ 18].ng = 2;
  BAS[ATNO][ 18].a[  0] =         0.413100000000;     BAS[ATNO][ 18].d[  0] =        -0.180408931005;
  BAS[ATNO][ 18].a[  1] =         0.165400000000;     BAS[ATNO][ 18].d[  1] =         1.092374485910;

  // Basis function  20 L = g
  InitBFNGauss(BAS[ATNO][ 19]);
  BAS[ATNO][ 19].l  = 4;
  BAS[ATNO][ 19].ng = 2;
  BAS[ATNO][ 19].a[  0] =         0.413100000000;     BAS[ATNO][ 19].d[  0] =         1.206716109441;
  BAS[ATNO][ 19].a[  1] =         0.165400000000;     BAS[ATNO][ 19].d[  1] =        -0.543533930589;

-------------------------------------------
RADIAL EXPECTATION VALUES <R**-3> TO <R**3>
-------------------------------------------
   0 :     0.000000    27.747207     3.681867     0.414995     0.232959     0.165364
   1 :     0.000000     1.055352     0.522499     2.649620     8.428746    31.429255
   2 :     0.000000     0.058569     0.127271     9.192704    90.783314   950.214667
   3 :     0.000000     0.369681     0.256295     6.021779    46.407248   433.422213
   4 :     0.000000     1.880116     0.621194     3.231544    16.621507   123.671661
   5 :     0.000000    47.416600     3.691472     0.987886     2.828077    17.784273
   6 :     0.012814     0.024127     0.118801    10.856820   135.819084  1873.239944
   7 :     0.012814     0.024127     0.118801    10.856820   135.819084  1873.239944
   8 :     0.012814     0.024127     0.118801    10.856820   135.819084  1873.239944
   9 :     0.094277     0.118177     0.268135     6.165527    59.569856   765.689060
  10 :     0.094277     0.118177     0.268135     6.165527    59.569856   765.689060
  11 :     0.094277     0.118177     0.268135     6.165527    59.569856   765.689060
  12 :     0.224213     0.203239     0.340384     4.896391    35.642873   351.579616
  13 :     0.224213     0.203239     0.340384     4.896391    35.642873   351.579616
  14 :     0.224213     0.203239     0.340384     4.896391    35.642873   351.579616
  15 :     0.577456     0.450319     0.537909     3.047868    14.944467   112.486577
  16 :     0.577456     0.450319     0.537909     3.047868    14.944467   112.486577
  17 :     0.577456     0.450319     0.537909     3.047868    14.944467   112.486577
  18 :     5.545955     2.066702     1.154115     1.571746     4.931675    29.728296
  19 :     5.545955     2.066702     1.154115     1.571746     4.931675    29.728296
  20 :     5.545955     2.066702     1.154115     1.571746     4.931675    29.728296
  21 :     0.009220     0.039439     0.190102     5.642350    33.810715  1068.969506
  22 :     0.009220     0.039439     0.190102     5.642350    33.810715  1068.969506
  23 :     0.009220     0.039439     0.190102     5.642350    33.810715  1068.969506
  24 :     0.009220     0.039439     0.190102     5.642350    33.810715  1068.969506
  25 :     0.009220     0.039439     0.190102     5.642350    33.810715  1068.969506
  26 :     0.060100     0.131370     0.337873     3.462293    14.454359   367.046944
  27 :     0.060100     0.131370     0.337873     3.462293    14.454359   367.046944
  28 :     0.060100     0.131370     0.337873     3.462293    14.454359   367.046944
  29 :     0.060100     0.131370     0.337873     3.462293    14.454359   367.046944
  30 :     0.060100     0.131370     0.337873     3.462293    14.454359   367.046944
  31 :     0.227900     0.327058     0.530830     2.310736     6.982735   141.313579
  32 :     0.227900     0.327058     0.530830     2.310736     6.982735   141.313579
  33 :     0.227900     0.327058     0.530830     2.310736     6.982735   141.313579
  34 :     0.227900     0.327058     0.530830     2.310736     6.982735   141.313579
  35 :     0.227900     0.327058     0.530830     2.310736     6.982735   141.313579
  36 :     1.205236     0.963173     0.896733     1.441120     2.986253    47.265226
  37 :     1.205236     0.963173     0.896733     1.441120     2.986253    47.265226
  38 :     1.205236     0.963173     0.896733     1.441120     2.986253    47.265226
  39 :     1.205236     0.963173     0.896733     1.441120     2.986253    47.265226
  40 :     1.205236     0.963173     0.896733     1.441120     2.986253    47.265226
  41 :     0.010112     0.043819     0.203790     5.138193    27.531561  1073.941232
  42 :     0.010112     0.043819     0.203790     5.138193    27.531561  1073.941232
  43 :     0.010112     0.043819     0.203790     5.138193    27.531561  1073.941232
  44 :     0.010112     0.043819     0.203790     5.138193    27.531561  1073.941232
  45 :     0.010112     0.043819     0.203790     5.138193    27.531561  1073.941232
  46 :     0.010112     0.043819     0.203790     5.138193    27.531561  1073.941232
  47 :     0.010112     0.043819     0.203790     5.138193    27.531561  1073.941232
  48 :     0.044494     0.117669     0.330706     3.323526    12.468185   376.813762
  49 :     0.044494     0.117669     0.330706     3.323526    12.468185   376.813762
  50 :     0.044494     0.117669     0.330706     3.323526    12.468185   376.813762
  51 :     0.044494     0.117669     0.330706     3.323526    12.468185   376.813762
  52 :     0.044494     0.117669     0.330706     3.323526    12.468185   376.813762
  53 :     0.044494     0.117669     0.330706     3.323526    12.468185   376.813762
  54 :     0.044494     0.117669     0.330706     3.323526    12.468185   376.813762
  55 :     0.199688     0.306741     0.521606     2.248778     6.245490   154.667626
  56 :     0.199688     0.306741     0.521606     2.248778     6.245490   154.667626
  57 :     0.199688     0.306741     0.521606     2.248778     6.245490   154.667626
  58 :     0.199688     0.306741     0.521606     2.248778     6.245490   154.667626
  59 :     0.199688     0.306741     0.521606     2.248778     6.245490   154.667626
  60 :     0.199688     0.306741     0.521606     2.248778     6.245490   154.667626
  61 :     0.199688     0.306741     0.521606     2.248778     6.245490   154.667626
  62 :     0.017436     0.064664     0.249496     4.157866    17.909566   558.658519
  63 :     0.017436     0.064664     0.249496     4.157866    17.909566   558.658519
  64 :     0.017436     0.064664     0.249496     4.157866    17.909566   558.658519
  65 :     0.017436     0.064664     0.249496     4.157866    17.909566   558.658519
  66 :     0.017436     0.064664     0.249496     4.157866    17.909566   558.658519
  67 :     0.017436     0.064664     0.249496     4.157866    17.909566   558.658519
  68 :     0.017436     0.064664     0.249496     4.157866    17.909566   558.658519
  69 :     0.017436     0.064664     0.249496     4.157866    17.909566   558.658519
  70 :     0.017436     0.064664     0.249496     4.157866    17.909566   558.658519
  71 :     0.093887     0.192448     0.422683     2.584894     7.459916   171.742502
  72 :     0.093887     0.192448     0.422683     2.584894     7.459916   171.742502
  73 :     0.093887     0.192448     0.422683     2.584894     7.459916   171.742502
  74 :     0.093887     0.192448     0.422683     2.584894     7.459916   171.742502
  75 :     0.093887     0.192448     0.422683     2.584894     7.459916   171.742502
  76 :     0.093887     0.192448     0.422683     2.584894     7.459916   171.742502
  77 :     0.093887     0.192448     0.422683     2.584894     7.459916   171.742502
  78 :     0.093887     0.192448     0.422683     2.584894     7.459916   171.742502
  79 :     0.093887     0.192448     0.422683     2.584894     7.459916   171.742502
-------
TIMINGS
-------

Total SCF time: 0 days 0 hours 0 min 2 sec 

Total time                  ....       2.139 sec
Sum of individual times     ....       1.680 sec  ( 78.5%)

Fock matrix formation       ....       1.504 sec  ( 70.3%)
Diagonalization             ....       0.003 sec  (  0.2%)
Density matrix formation    ....       0.000 sec  (  0.0%)
Population analysis         ....       0.008 sec  (  0.4%)
Initial guess               ....       0.132 sec  (  6.2%)
Orbital Transformation      ....       0.000 sec  (  0.0%)
Orbital Orthonormalization  ....       0.000 sec  (  0.0%)
DIIS solution               ....       0.013 sec  (  0.6%)
SOSCF solution              ....       0.003 sec  (  0.1%)


------------------------------------------------------------------------------- 
                              ORCA-MATRIX DRIVEN CI                            
------------------------------------------------------------------------------- 

--------------------------------
AUTOMATIC CHOICE OF INCORE LEVEL
--------------------------------

Memory available                           ...   2500.00 MB
Memory needed for S+T                      ...      0.14 MB
Memory needed for J+K                      ...      0.28 MB
Memory needed for DIIS                     ...      1.95 MB
Memory needed for 3-ext                    ...      3.62 MB
Memory needed for 4-ext                    ...    143.01 MB
Memory needed for triples                  ...     18.10 MB
 -> Final InCoreLevel    ... 5
 -> check shows that triples correction can be computed


Wavefunction type
-----------------
Correlation treatment                      ...      CCSD     
Single excitations                         ... ON
Orbital optimization                       ... OFF
Calculation of Z vector                    ... OFF
Calculation of Brueckner orbitals          ... OFF
Perturbative triple excitations            ... ON
Calculation of F12 correction              ... OFF
Frozen core treatment                      ... chemical core (2 el)
Reference Wavefunction                     ... RHF
  Internal Orbitals:     1 ...    1 (  1 MO's/  2 electrons)
  Virtual  Orbitals:     2 ...   79 ( 78 MO's              )
Number of AO's                             ...     80
Number of electrons                        ...      4
Number of correlated electrons             ...      2

Algorithmic settings
--------------------
Integral transformation                    ... AO direct full transformation
K(C) Formation                             ... FULL-MO TRAFO
Maximum number of iterations               ...        50
Convergence tolerance (max. residuum)      ... 1.000e-05
Level shift for amplitude update           ... 2.000e-01
Maximum number of DIIS vectors             ...         7
DIIS turned on at iteration                ...         0
Damping before turning on DIIS             ...     0.500
Damping after turning on DIIS              ...     0.000
Pair specific amplitude update             ... OFF
Natural orbital iterations                 ... OFF
Perturbative natural orbital generation    ... OFF
Printlevel                                 ... 2

Memory handling:
----------------
Maximum memory for working arrays          ...   2500 MB
Data storage in matrix containers          ... UNCOMPRESSED
Data type for integral storage             ... DOUBLE
In-Core Storage of quantities:
   Amplitudes+Sigma Vector      ... YES
   J+K operators                ... YES
   DIIS vectors                 ... YES
   3-external integrals         ... YES
   4-external integrals         ... YES


Initializing the integral package          ... done
Warning: reference  - re-canonicalizations have been set to INT 1 VIRT 1

--------------------------
CLOSED-SHELL FOCK OPERATOR
--------------------------

<ss|ss>:          231 b            0 skpd (  0.0%)    0.001 s ( 0.006 ms/b)
<ss|sp>:          630 b            0 skpd (  0.0%)    0.003 s ( 0.005 ms/b)
<ss|sd>:          504 b            0 skpd (  0.0%)    0.003 s ( 0.005 ms/b)
<ss|sf>:          378 b            0 skpd (  0.0%)    0.003 s ( 0.008 ms/b)
<ss|sg>:          252 b            0 skpd (  0.0%)    0.003 s ( 0.012 ms/b)
<ss|pp>:          315 b            0 skpd (  0.0%)    0.001 s ( 0.003 ms/b)
<ss|pd>:          420 b            0 skpd (  0.0%)    0.001 s ( 0.003 ms/b)
<ss|pf>:          315 b            0 skpd (  0.0%)    0.002 s ( 0.005 ms/b)
<ss|pg>:          210 b            0 skpd (  0.0%)    0.002 s ( 0.008 ms/b)
<ss|dd>:          210 b            0 skpd (  0.0%)    0.001 s ( 0.004 ms/b)
<ss|df>:          252 b            0 skpd (  0.0%)    0.002 s ( 0.007 ms/b)
<ss|dg>:          168 b            0 skpd (  0.0%)    0.002 s ( 0.010 ms/b)
<ss|ff>:          126 b            0 skpd (  0.0%)    0.001 s ( 0.010 ms/b)
<ss|fg>:          126 b            0 skpd (  0.0%)    0.002 s ( 0.015 ms/b)
<ss|gg>:           63 b            0 skpd (  0.0%)    0.001 s ( 0.021 ms/b)
<sp|sp>:          465 b            0 skpd (  0.0%)    0.001 s ( 0.003 ms/b)
<sp|sd>:          720 b            0 skpd (  0.0%)    0.002 s ( 0.003 ms/b)
<sp|sf>:          540 b            0 skpd (  0.0%)    0.003 s ( 0.005 ms/b)
<sp|sg>:          360 b            0 skpd (  0.0%)    0.003 s ( 0.007 ms/b)
<sp|pp>: done
<sp|pd>: done
<sp|pf>: done
<sp|pg>: done
<sp|dd>: done
<sp|df>: done
<sp|dg>: done
<sp|ff>: done
<sp|fg>:          180 b          176 skpd ( 97.8%)    0.000 s ( 0.013 ms/b)
<sp|gg>:           90 b           78 skpd ( 86.7%)    0.000 s ( 0.024 ms/b)
<sd|sd>:          300 b            0 skpd (  0.0%)    0.001 s ( 0.005 ms/b)
<sd|sf>:          432 b            0 skpd (  0.0%)    0.003 s ( 0.007 ms/b)
<sd|sg>:          288 b            0 skpd (  0.0%)    0.003 s ( 0.011 ms/b)
<sd|pp>: done
<sd|pd>: done
<sd|pf>: done
<sd|pg>: done
<sd|dd>: done
<sd|df>: done
<sd|dg>: done
<sd|ff>: done
<sd|fg>: done
<sd|gg>:           72 b           65 skpd ( 90.3%)    0.000 s ( 0.029 ms/b)
<sf|sf>:          171 b            0 skpd (  0.0%)    0.003 s ( 0.016 ms/b)
<sf|sg>:          216 b            0 skpd (  0.0%)    0.005 s ( 0.023 ms/b)
<sf|pp>: done
<sf|pd>: done
<sf|pf>: done
<sf|pg>: done
<sf|dd>: done
<sf|df>: done
<sf|dg>: done
<sf|ff>: done
<sf|fg>: done
<sf|gg>:           54 b           52 skpd ( 96.3%)    0.000 s ( 0.058 ms/b)
<sg|sg>:           78 b            0 skpd (  0.0%)    0.004 s ( 0.049 ms/b)
<sg|pp>:          180 b          178 skpd ( 98.9%)    0.000 s ( 0.017 ms/b)
<sg|pd>: done
<sg|pf>: done
<sg|pg>: done
<sg|dd>:          120 b          118 skpd ( 98.3%)    0.000 s ( 0.017 ms/b)
<sg|df>: done
<sg|dg>: done
<sg|ff>:           72 b           71 skpd ( 98.6%)    0.000 s ( 0.040 ms/b)
<sg|fg>: done
<sg|gg>:           36 b           35 skpd ( 97.2%)    0.000 s ( 0.108 ms/b)
<pp|pp>: done
<pp|pd>: done
<pp|pf>: done
<pp|pg>: done
<pp|dd>: done
<pp|df>: done
<pp|dg>: done
<pp|ff>: done
<pp|fg>: done
<pp|gg>: done
<pd|pd>: done
<pd|pf>: done
<pd|pg>: done
<pd|dd>: done
<pd|df>: done
<pd|dg>: done
<pd|ff>: done
<pd|fg>: done
<pd|gg>: done
<pf|pf>: done
<pf|pg>: done
<pf|dd>: done
<pf|df>: done
<pf|dg>: done
<pf|ff>: done
<pf|fg>: done
<pf|gg>: done
<pg|pg>: done
<pg|dd>: done
<pg|df>: done
<pg|dg>: done
<pg|ff>: done
<pg|fg>: done
<pg|gg>: done
<dd|dd>: done
<dd|df>: done
<dd|dg>: done
<dd|ff>: done
<dd|fg>: done
<dd|gg>: done
<df|df>: done
<df|dg>: done
<df|ff>: done
<df|fg>: done
<df|gg>: done
<dg|dg>: done
<dg|ff>: done
<dg|fg>: done
<dg|gg>: done
<ff|ff>: done
<ff|fg>: done
<ff|gg>: done
<fg|fg>: done
<fg|gg>: done
<gg|gg>: done
Recanonicalizing the internal orbitals
Recanonicalizing the virtual orbitals
Time needed for Fock operator              ...            0.066 sec
Reference energy                           ...    -14.572969186

------------------------------
PARTIAL COULOMB TRANSFORMATION
------------------------------

Transformation type                        ... one-operator
Dimension of the basis                     ...   80
Number of internal MOs                     ...   79 (1-79)
Pair cutoff                                ... 0.000e+00 Eh
Number of AO pairs included in the trafo   ... 3240
Total Number of distinct AO pairs          ... 3240
Memory devoted for trafo                   ... 2500.0 MB 
Max. Number of MO pairs treated together   ... 101135      
Max. Number of MOs treated per batch       ... 1264      
Number Format for Storage                  ... Double (8 Byte)
AO-integral source                         ... DIRECT
Integral package used                      ... LIBINT

Starting integral evaluation:
<ss|**>:         4410 b        0 skpd     0.059 s (  0.013 ms/b)
<sp|**>:         6300 b        0 skpd     0.498 s (  0.079 ms/b)
<sd|**>:         5040 b        0 skpd     0.124 s (  0.025 ms/b)
<sf|**>:         3780 b        0 skpd     0.118 s (  0.031 ms/b)
<sg|**>:         2520 b        0 skpd     0.371 s (  0.147 ms/b)
<pp|**>:         3150 b        0 skpd     0.083 s (  0.026 ms/b)
<pd|**>:         4200 b        0 skpd     0.411 s (  0.098 ms/b)
<pf|**>:         3150 b        0 skpd     0.470 s (  0.149 ms/b)
<pg|**>:         2100 b        0 skpd     0.209 s (  0.099 ms/b)
<dd|**>:         2100 b        0 skpd     0.126 s (  0.060 ms/b)
<df|**>:         2520 b        0 skpd     0.509 s (  0.202 ms/b)
<dg|**>:         1680 b        0 skpd     0.718 s (  0.427 ms/b)
<ff|**>:         1260 b        0 skpd     0.251 s (  0.199 ms/b)
<fg|**>:         1260 b        0 skpd     0.563 s (  0.447 ms/b)
<gg|**>:          630 b        0 skpd     0.209 s (  0.332 ms/b)
Closing buffer AOJ ( 0.08 GB; CompressionRatio= 1.00)
Collecting buffer AOJ 
    ... done with AO integral generation
Number of MO pairs included in the trafo   ... 3160
    ... Now sorting integrals
IBATCH = 1 of  1
Closing buffer JAO ( 0.08 GB; CompressionRatio= 1.00)
Collecting buffer JAO 
TOTAL TIME for half transformation         ...     9.687 sec
AO-integral generation                     ...     1.092 sec
Half transformation                        ...     3.632 sec
J-integral sorting                         ...     4.944 sec

-------------------------- SECOND HALF TRANSFORMATION -------------------------
Formation of (pq|rs)                       ... ok (     4.332 sec)
Integral sorting                           ... ok (     0.485 sec)

------------------
CLOSED SHELL GUESS
------------------

Initial guess performed in     0.000 sec
E(0)                                       ...    -14.572969186
E(MP2)                                     ...     -0.029542858
Initial E(tot)                             ...    -14.602512045
<T|T>                                      ...      0.028928151
Number of pairs included                   ... 1
Total number of pairs                      ... 1

------------------------------------------------
                  RHF COUPLED CLUSTER ITERATIONS
------------------------------------------------

Number of amplitudes to be optimized       ... 6162

Iter       E(tot)           E(Corr)          Delta-E          Residual     Time
  0    -14.602512045     -0.029542858      0.000000000      0.016348881    0.13
                           *** Turning on DIIS ***
  1    -14.608042802     -0.035073616     -0.005530758      0.011261589    0.16
  2    -14.614343681     -0.041374495     -0.006300878      0.005161772    0.19
  3    -14.618396911     -0.045427725     -0.004053230      0.001015083    0.15
  4    -14.618898931     -0.045929745     -0.000502020      0.000395357    0.15
  5    -14.618942170     -0.045972983     -0.000043239      0.000077378    0.14
  6    -14.618955492     -0.045986306     -0.000013322      0.000018368    0.12
  7    -14.618959164     -0.045989978     -0.000003672      0.000003786    0.12
               --- The Coupled-Cluster iterations have converged ---

----------------------
COUPLED CLUSTER ENERGY
----------------------

E(0)                                       ...    -14.572969186
E(CORR)                                    ...     -0.045989978
E(TOT)                                     ...    -14.618959164
Singles Norm <S|S>**1/2                    ...      0.030690354  
T1 diagnostic                              ...      0.021701358  

------------------
LARGEST AMPLITUDES
------------------
   1->  7   1->  7       0.105814
   1->  8   1->  8       0.105814
   1->  6   1->  6       0.105814
   1->  8   1-> 15       0.073854
   1-> 15   1->  8       0.073854
   1->  6   1-> 16       0.073247
   1-> 16   1->  6       0.073247
   1-> 17   1->  7       0.073219
   1->  7   1-> 17       0.073219
   1-> 17   1-> 17       0.053252
   1-> 15   1-> 15       0.053252
   1-> 16   1-> 16       0.053252
   1->  3   1->  6       0.034381
   1->  6   1->  3       0.034381
   1->  4   1->  7       0.033162
   1->  7   1->  4       0.033162


        !!!!!!!!!!!!!!!!!!!!!!!!!!!!!!!!!!!!!!!!!!!!!!!!!!!!!!!!!!!!!!!!!!!!!!!!!! 
        !  Warning: Densities are linearized densities !                         !
        !!!!!!!!!!!!!!!!!!!!!!!!!!!!!!!!!!!!!!!!!!!!!!!!!!!!!!!!!!!!!!!!!!!!!!!!!! 

Trace of internal density part =     -0.201374566
Trace of external density part =      0.201374566
----------------------
RHF TRIPLES CORRECTION (Algorithm 1)
----------------------

Multiplier for the singles contribution    ...      1.000000000

Triples Correction (T)                     ...      0.000000000
Scaling of triples based on CCSD energies (Peterson et al. Molecular Physics 113, 1551 (2015))
E(T*) = f*E(T) where f = E(F12-CCSD)/E(CCSD) 
f = CCSD (with F12)/ CCSD (without F12)    ...      1.000000000
Scaled triples correction (T)              ...      0.000000000

Final correlation energy                   ...     -0.045989978
E(CCSD)                                    ...    -14.618959164
E(CCSD(T))                                 ...    -14.618959164

NORM  =      1.101629181 sqrt=     1.049585242
W(HF) =      0.907746470
------------------------------------------------------------------------------
                           ORCA POPULATION ANALYSIS
------------------------------------------------------------------------------
Input electron density              ... 04_Be.mdcip
BaseName (.gbw .S,...)              ... 04_Be

                    ********************************
                    * MULLIKEN POPULATION ANALYSIS *
                    ********************************

-----------------------
MULLIKEN ATOMIC CHARGES
-----------------------
   0 Be:   -0.000000
Sum of atomic charges:   -0.0000000

--------------------------------
MULLIKEN REDUCED ORBITAL CHARGES
--------------------------------
  0 Bes       :     3.804151  s :     3.804151
      pz      :     0.065029  p :     0.195087
      px      :     0.065029
      py      :     0.065029
      dz2     :     0.000129  d :     0.000644
      dxz     :     0.000129
      dyz     :     0.000129
      dx2y2   :     0.000129
      dxy     :     0.000129
      f0      :     0.000014  f :     0.000095
      f+1     :     0.000014
      f-1     :     0.000014
      f+2     :     0.000014
      f-2     :     0.000014
      f+3     :     0.000014
      f-3     :     0.000014
      g0      :     0.000002  g :     0.000022
      g+1     :     0.000002
      g-1     :     0.000002
      g+2     :     0.000002
      g-2     :     0.000002
      g+3     :     0.000002
      g-3     :     0.000002
      g+4     :     0.000002
      g-4     :     0.000002


                     *******************************
                     * LOEWDIN POPULATION ANALYSIS *
                     *******************************

----------------------
LOEWDIN ATOMIC CHARGES
----------------------
   0 Be:   -0.000000

-------------------------------
LOEWDIN REDUCED ORBITAL CHARGES
-------------------------------
  0 Bes       :     3.804151  s :     3.804151
      pz      :     0.065029  p :     0.195087
      px      :     0.065029
      py      :     0.065029
      dz2     :     0.000129  d :     0.000644
      dxz     :     0.000129
      dyz     :     0.000129
      dx2y2   :     0.000129
      dxy     :     0.000129
      f0      :     0.000014  f :     0.000095
      f+1     :     0.000014
      f-1     :     0.000014
      f+2     :     0.000014
      f-2     :     0.000014
      f+3     :     0.000014
      f-3     :     0.000014
      g0      :     0.000002  g :     0.000022
      g+1     :     0.000002
      g-1     :     0.000002
      g+2     :     0.000002
      g-2     :     0.000002
      g+3     :     0.000002
      g-3     :     0.000002
      g+4     :     0.000002
      g-4     :     0.000002


                      *****************************
                      * MAYER POPULATION ANALYSIS *
                      *****************************

  NA   - Mulliken gross atomic population
  ZA   - Total nuclear charge
  QA   - Mulliken gross atomic charge
  VA   - Mayer's total valence
  BVA  - Mayer's bonded valence
  FA   - Mayer's free valence

  ATOM       NA         ZA         QA         VA         BVA        FA
  0 Be     4.0000     4.0000    -0.0000     0.7452     0.0000     0.7452





------------------------------------------------------------------------------- 
                                     TIMINGS                                   
------------------------------------------------------------------------------- 


Total execution time                   ...       16.227 sec

Fock Matrix Formation                  ...        0.066 sec (  0.4%)
Initial Guess                          ...        0.000 sec (  0.0%)
DIIS Solver                            ...        0.002 sec (  0.0%)
State Vector Update                    ...        0.000 sec (  0.0%)
Sigma-vector construction              ...        1.172 sec (  7.2%)
  <D|H|D>(2-ext)                       ...        0.002 sec (  0.1% of sigma)
  <D|H|D>(4-ext)                       ...        0.737 sec ( 62.9% of sigma)
  <D|H|D>(4-ext-corr)                  ...        0.071 sec (  6.1% of sigma)
  <S|H|D>(3-ext)                       ...        0.010 sec (  0.9% of sigma)
  Fock-dressing                        ...        0.328 sec ( 28.0% of sigma)
  (ij|ab),(ia|jb)-dressing             ...        0.012 sec (  1.0% of sigma)
Total Time for computing (T)           ...        0.002 sec (  0.0% of ALL)
  I/O of integral and amplitudes       ...        0.002 sec ( 99.7% of (T))


-------------------------   --------------------
FINAL SINGLE POINT ENERGY       -14.618959164031
-------------------------   --------------------


                            ***************************************
                            *     ORCA property calculations      *
                            ***************************************

                                    ---------------------
                                    Active property flags
                                    ---------------------
   (+) Dipole Moment


------------------------------------------------------------------------------
                       ORCA ELECTRIC PROPERTIES CALCULATION
------------------------------------------------------------------------------

Dipole Moment Calculation                       ... on
Quadrupole Moment Calculation                   ... off
Polarizability Calculation                      ... off
GBWName                                         ... 04_Be.gbw
Electron density file                           ... 04_Be.scfp
The origin for moment calculation is the CENTER OF MASS  = ( 0.000000,  0.000000  0.000000)

-------------
DIPOLE MOMENT
-------------
                                X             Y             Z
Electronic contribution:      0.00000       0.00000       0.00000
Nuclear contribution   :      0.00000       0.00000       0.00000
                        -----------------------------------------
Total Dipole Moment    :      0.00000       0.00000       0.00000
                        -----------------------------------------
Magnitude (a.u.)       :      0.00000
Magnitude (Debye)      :      0.00000



--------------------
Rotational spectrum 
--------------------
 
Rotational constants in cm-1:     0.000000     0.000000     0.000000 
Rotational constants in MHz :     0.000000     0.000000     0.000000 

 Dipole components along the rotational axes: 
x,y,z [a.u.] :     0.000000     0.000000     0.000000 
x,y,z [Debye]:     0.000000     0.000000     0.000000 

 

                           *** MDCI DENSITY ***

------------------------------------------------------------------------------
                       ORCA ELECTRIC PROPERTIES CALCULATION
------------------------------------------------------------------------------

Dipole Moment Calculation                       ... on
Quadrupole Moment Calculation                   ... off
Polarizability Calculation                      ... off
GBWName                                         ... 04_Be.gbw
Electron density file                           ... 04_Be.mdcip
The origin for moment calculation is the CENTER OF MASS  = ( 0.000000,  0.000000  0.000000)

-------------
DIPOLE MOMENT
-------------
                                X             Y             Z
Electronic contribution:      0.00000       0.00000       0.00000
Nuclear contribution   :      0.00000       0.00000       0.00000
                        -----------------------------------------
Total Dipole Moment    :      0.00000       0.00000       0.00000
                        -----------------------------------------
Magnitude (a.u.)       :      0.00000
Magnitude (Debye)      :      0.00000



--------------------
Rotational spectrum 
--------------------
 
Rotational constants in cm-1:     0.000000     0.000000     0.000000 
Rotational constants in MHz :     0.000000     0.000000     0.000000 

 Dipole components along the rotational axes: 
x,y,z [a.u.] :     0.000000     0.000000     0.000000 
x,y,z [Debye]:     0.000000     0.000000     0.000000 

 

Timings for individual modules:

Sum of individual times         ...       18.934 sec (=   0.316 min)
GTO integral calculation        ...        0.356 sec (=   0.006 min)   1.9 %
SCF iterations                  ...        2.188 sec (=   0.036 min)  11.6 %
MDCI module                     ...       16.389 sec (=   0.273 min)  86.6 %
                             ****ORCA TERMINATED NORMALLY****
TOTAL RUN TIME: 0 days 0 hours 0 minutes 19 seconds 944 msec
