
                                 *****************
                                 * O   R   C   A *
                                 *****************

           --- An Ab Initio, DFT and Semiempirical electronic structure package ---

                  #######################################################
                  #                        -***-                        #
                  #          Department of theory and spectroscopy      #
                  #               Directorship: Frank Neese             #
                  #        Max Planck Institute fuer Kohlenforschung    #
                  #                Kaiser Wilhelm Platz 1               #
                  #                 D-45470 Muelheim/Ruhr               #
                  #                      Germany                        #
                  #                                                     #
                  #                  All rights reserved                #
                  #                        -***-                        #
                  #######################################################


                         Program Version 4.2.0 -  RELEASE  -


 With contributions from (in alphabetic order):
   Daniel Aravena         : Magnetic Suceptibility
   Michael Atanasov       : Ab Initio Ligand Field Theory (pilot matlab implementation)
   Alexander A. Auer      : GIAO ZORA, VPT2
   Ute Becker             : Parallelization
   Giovanni Bistoni       : ED, misc. LED, open-shell LED, HFLED
   Martin Brehm           : Molecular dynamics
   Dmytro Bykov           : SCF Hessian
   Vijay G. Chilkuri      : MRCI spin determinant printing, contributions to CSF-ICE
   Dipayan Datta          : RHF DLPNO-CCSD density
   Achintya Kumar Dutta   : EOM-CC, STEOM-CC
   Dmitry Ganyushin       : Spin-Orbit,Spin-Spin,Magnetic field MRCI
   Miquel Garcia          : C-PCM Hessian, Gaussian charge scheme
   Yang Guo               : DLPNO-NEVPT2, CIM, IAO-localization
   Andreas Hansen         : Spin unrestricted coupled pair/coupled cluster methods
   Benjamin Helmich-Paris : CASSCF linear response (MC-RPA)
   Lee Huntington         : MR-EOM, pCC
   Robert Izsak           : Overlap fitted RIJCOSX, COSX-SCS-MP3, EOM
   Christian Kollmar      : KDIIS, OOCD, Brueckner-CCSD(T), CCSD density
   Simone Kossmann        : Meta GGA functionals, TD-DFT gradient, OOMP2, MP2 Hessian
   Martin Krupicka        : AUTO-CI
   Lucas Lang             : DCDCAS
   Dagmar Lenk            : GEPOL surface, SMD
   Dimitrios Liakos       : Extrapolation schemes; Compound Job, initial MDCI parallelization
   Dimitrios Manganas     : Further ROCIS development; embedding schemes
   Dimitrios Pantazis     : SARC Basis sets
   Taras Petrenko         : DFT Hessian,TD-DFT gradient, ASA, ECA, R-Raman, ABS, FL, XAS/XES, NRVS
   Peter Pinski           : DLPNO-MP2, DLPNO-MP2 Gradient
   Christoph Reimann      : Effective Core Potentials
   Marius Retegan         : Local ZFS, SOC
   Christoph Riplinger    : Optimizer, TS searches, QM/MM, DLPNO-CCSD(T), (RO)-DLPNO pert. Triples
   Tobias Risthaus        : Range-separated hybrids, TD-DFT gradient, RPA, STAB
   Michael Roemelt        : Original ROCIS implementation
   Masaaki Saitow         : Open-shell DLPNO-CCSD energy and density
   Barbara Sandhoefer     : DKH picture change effects
   Avijit Sen             : IP-ROCIS
   Kantharuban Sivalingam : CASSCF convergence, NEVPT2, FIC-MRCI
   Bernardo de Souza      : ESD, SOC TD-DFT
   Georgi Stoychev        : AutoAux, RI-MP2 NMR
   Willem Van den Heuvel  : Paramagnetic NMR
   Boris Wezisla          : Elementary symmetry handling
   Frank Wennmohs         : Technical directorship


 We gratefully acknowledge several colleagues who have allowed us to
 interface, adapt or use parts of their codes:
   Stefan Grimme, W. Hujo, H. Kruse,             : VdW corrections, initial TS optimization,
                  C. Bannwarth                     DFT functionals, gCP, sTDA/sTD-DF
   Ed Valeev, F. Pavosevic, A. Kumar             : LibInt (2-el integral package), F12 methods
   Garnet Chan, S. Sharma, J. Yang, R. Olivares  : DMRG
   Ulf Ekstrom                                   : XCFun DFT Library
   Mihaly Kallay                                 : mrcc  (arbitrary order and MRCC methods)
   Andreas Klamt, Michael Diedenhofen            : otool_cosmo (COSMO solvation model)
   Jiri Pittner, Ondrej Demel                    : Mk-CCSD
   Frank Weinhold                                : gennbo (NPA and NBO analysis)
   Christopher J. Cramer and Donald G. Truhlar   : smd solvation model
   Lars Goerigk                                  : TD-DFT with DH, B97 family of functionals
   V. Asgeirsson, H. Jonsson                     : NEB implementation
   FAccTs GmbH                                   : IRC, NEB, NEB-TS, Multilevel, MM, QM/MM, CI optimization
   S Lehtola, MJT Oliveira, MAL Marques          : LibXC Library


 Your calculation uses the libint2 library for the computation of 2-el integrals
 For citations please refer to: http://libint.valeyev.net

 Your ORCA version has been built with support for libXC version: 4.2.3
 For citations please refer to: https://tddft.org/programs/libxc/

 This ORCA versions uses:
   CBLAS   interface :  Fast vector & matrix operations
   LAPACKE interface :  Fast linear algebra routines
   SCALAPACK package :  Parallel linear algebra routines


----- Orbital basis set information -----
Your calculation utilizes the basis: aug-cc-pVQZ 
    H, B-Ne : Obtained from the ccRepo (grant-hill.group.shef.ac.uk/ccrepo) Feb. 2017
              R. A. Kendall, T. H. Dunning, Jr., R. J. Harrison, J. Chem. Phys. 96, 6796 (1992)
         He : Obtained from the ccRepo (grant-hill.group.shef.ac.uk/ccrepo) Feb. 2017
              D. E. Woon, T. H. Dunning, Jr., J. Chem. Phys. 100, 2975 (1994)
  Li-Be, Na : Obtained from the ccRepo (grant-hill.group.shef.ac.uk/ccrepo) Feb. 2017
              B. P. Prascher, D. E. Woon, K. A. Peterson, T. H. Dunning, Jr., A. K. Wilson, Theor. Chem. Acc. 128, 69 (2011)
         Mg : Obtained from the Peterson Research Group Website (tyr0.chem.wsu.edu/~kipeters) Feb. 2017
              B. P. Prascher, D. E. Woon, K. A. Peterson, T. H. Dunning, Jr., A. K. Wilson, Theor. Chem. Acc. 128, 69 (2011)
      Al-Ar : Obtained from the ccRepo (grant-hill.group.shef.ac.uk/ccrepo) Feb. 2017
              D. E. Woon, T. H. Dunning, Jr., J. Chem. Phys. 98, 1358 (1993)
      Sc-Zn : Obtained from the ccRepo (grant-hill.group.shef.ac.uk/ccrepo) Feb. 2017
              N. B. Balabanov, K. A. Peterson, J. Chem. Phys. 123, 064107 (2005)
              N. B. Balabanov, K. A. Peterson, J. Chem. Phys. 125, 074110 (2006)
      Ga-Kr : Obtained from the ccRepo (grant-hill.group.shef.ac.uk/ccrepo) Feb. 2017
              A. K. Wilson, D. E. Woon, K. A. Peterson, T. H. Dunning, Jr., J. Chem. Phys. 110, 7667 (1999)

================================================================================
                                        WARNINGS
                       Please study these warnings very carefully!
================================================================================


WARNING: your system is open-shell and RHF/RKS was chosen
  ===> : WILL SWITCH to UHF/UKS


WARNING: MDCI localization with Augmented Hessian Foster-Boys
  ===> : Switching off randomization!

WARNING: Post HF methods need fully converged wavefunctions
  ===> : Setting SCFConvForced true
         You can overwrite this default with %scf ConvForced false 


INFO   : the flag for use of LIBINT has been found!

================================================================================
                                       INPUT FILE
================================================================================
NAME = 13_Al.in
|  1> #
|  2> # 13_Al CCSD(T)/aug-cc-pVQZ
|  3> #
|  4> ! CCSD(T) aug-cc-pVQZ tightscf
|  5> 
|  6> *xyz 0 2
|  7>  Al 0.0 0.0 0.0
|  8> *
|  9> 
| 10> %maxcore 5000 
| 11> 
| 12> %pal
| 13> nprocs 3
| 14> end
| 15> 
| 16> 
| 17>                          ****END OF INPUT****
================================================================================

                       ****************************
                       * Single Point Calculation *
                       ****************************

---------------------------------
CARTESIAN COORDINATES (ANGSTROEM)
---------------------------------
  Al     0.000000    0.000000    0.000000

----------------------------
CARTESIAN COORDINATES (A.U.)
----------------------------
  NO LB      ZA    FRAG     MASS         X           Y           Z
   0 Al   13.0000    0    26.982    0.000000    0.000000    0.000000

--------------------------------
INTERNAL COORDINATES (ANGSTROEM)
--------------------------------
 Al     0   0   0     0.000000000000     0.00000000     0.00000000

---------------------------
INTERNAL COORDINATES (A.U.)
---------------------------
 Al     0   0   0     0.000000000000     0.00000000     0.00000000

---------------------
BASIS SET INFORMATION
---------------------
There are 1 groups of distinct atoms

 Group   1 Type Al  : 43s20p4d3f2g contracted to 7s6p4d3f2g pattern {1313131111/881111/1111/111/11}

Atom   0Al   basis set group =>   1


           ************************************************************
           *        Program running with 3 parallel MPI-processes     *
           *              working on a common directory               *
           ************************************************************
------------------------------------------------------------------------------
                           ORCA GTO INTEGRAL CALCULATION
------------------------------------------------------------------------------

                         BASIS SET STATISTICS AND STARTUP INFO

 # of primitive gaussian shells          ...   72
 # of primitive gaussian functions       ...  162
 # of contracted shells                  ...   22
 # of contracted basis functions         ...   84
 Highest angular momentum                ...    4
 Maximum contraction depth               ...   13
 Integral package used                   ... LIBINT
 Integral threshhold            Thresh   ...  2.500e-11
 Primitive cut-off              TCut     ...  2.500e-12


------------------------------ INTEGRAL EVALUATION ----------------------------


 * One electron integrals 
 Pre-screening matrix                    ... done
 Shell pair data                         ... done (   0.000 sec)



           ************************************************************
           *        Program running with 3 parallel MPI-processes     *
           *              working on a common directory               *
           ************************************************************
-------------------------------------------------------------------------------
                                 ORCA SCF
-------------------------------------------------------------------------------

------------
SCF SETTINGS
------------
Hamiltonian:
 Ab initio Hamiltonian  Method          .... Hartree-Fock(GTOs)


General Settings:
 Integral files         IntName         .... 13_Al
 Hartree-Fock type      HFTyp           .... UHF
 Total Charge           Charge          ....    0
 Multiplicity           Mult            ....    2
 Number of Electrons    NEL             ....   13
 Basis Dimension        Dim             ....   84
 Nuclear Repulsion      ENuc            ....      0.0000000000 Eh

Convergence Acceleration:
 DIIS                   CNVDIIS         .... on
   Start iteration      DIISMaxIt       ....    12
   Startup error        DIISStart       ....  0.200000
   # of expansion vecs  DIISMaxEq       ....     5
   Bias factor          DIISBfac        ....   1.050
   Max. coefficient     DIISMaxC        ....  10.000
 Newton-Raphson         CNVNR           .... off
 SOSCF                  CNVSOSCF        .... off
 Level Shifting         CNVShift        .... on
   Level shift para.    LevelShift      ....    0.2500
   Turn off err/grad.   ShiftErr        ....    0.0010
 Zerner damping         CNVZerner       .... off
 Static damping         CNVDamp         .... on
   Fraction old density DampFac         ....    0.7000
   Max. Damping (<1)    DampMax         ....    0.9800
   Min. Damping (>=0)   DampMin         ....    0.0000
   Turn off err/grad.   DampErr         ....    0.1000
 Fernandez-Rico         CNVRico         .... off

SCF Procedure:
 Maximum # iterations   MaxIter         ....   125
 SCF integral mode      SCFMode         .... Direct
   Integral package                     .... LIBINT
 Reset frequency        DirectResetFreq ....    20
 Integral Threshold     Thresh          ....  2.500e-11 Eh
 Primitive CutOff       TCut            ....  2.500e-12 Eh

Convergence Tolerance:
 Convergence Check Mode ConvCheckMode   .... Total+1el-Energy
 Convergence forced     ConvForced      .... 1
 Energy Change          TolE            ....  1.000e-08 Eh
 1-El. energy change                    ....  1.000e-05 Eh
 DIIS Error             TolErr          ....  5.000e-07


Diagonalization of the overlap matrix:
Smallest eigenvalue                        ... 1.319e-04
Time for diagonalization                   ...    0.002 sec
Threshold for overlap eigenvalues          ... 1.000e-08
Number of eigenvalues below threshold      ... 0
Time for construction of square roots      ...    0.004 sec
Total time needed                          ...    0.006 sec

-------------------
DFT GRID GENERATION
-------------------

General Integration Accuracy     IntAcc      ...  4.340
Radial Grid Type                 RadialGrid  ... Gauss-Chebyshev
Angular Grid (max. acc.)         AngularGrid ... Lebedev-110
Angular grid pruning method      GridPruning ... 3 (G Style)
Weight generation scheme         WeightScheme... Becke
Basis function cutoff            BFCut       ...    1.0000e-11
Integration weight cutoff        WCut        ...    1.0000e-14
Grids for H and He will be reduced by one unit

# of grid points (after initial pruning)     ...   1866 (   0.0 sec)
# of grid points (after weights+screening)   ...   1866 (   0.0 sec)
Grid point division into batches done        ...    0.0 sec
Reduced shell lists constructed in    0.0 sec

Total number of grid points                  ...     1866
Total number of batches                      ...       30
Average number of points per batch           ...       62
Average number of grid points per atom       ...     1866
Average number of shells per batch           ...    17.27 (78.51%)
Average number of basis functions per batch  ...    71.45 (85.06%)
Average number of large shells per batch     ...    16.55 (95.79%)
Average number of large basis fcns per batch ...    69.27 (96.95%)
Maximum spatial batch extension              ...  21.07, 38.78, 38.78 au
Average spatial batch extension              ...   5.73,  7.22,  8.87 au

Time for grid setup =    0.029 sec

------------------------------
INITIAL GUESS: MODEL POTENTIAL
------------------------------
Loading Hartree-Fock densities                     ... done
Calculating cut-offs                               ... done
Setting up the integral package                    ... done
Initializing the effective Hamiltonian             ... done
Starting the Coulomb interaction                   ... done (   0.0 sec)
Reading the grid                                   ... done
Mapping shells                                     ... done
Starting the XC term evaluation                    ... done (   0.0 sec)
Transforming the Hamiltonian                       ... done (   0.0 sec)
Diagonalizing the Hamiltonian                      ... done (   0.0 sec)
Back transforming the eigenvectors                 ... done (   0.0 sec)
Now organizing SCF variables                       ... done
                      ------------------
                      INITIAL GUESS DONE (   0.2 sec)
                      ------------------
--------------
SCF ITERATIONS
--------------
ITER       Energy         Delta-E        Max-DP      RMS-DP      [F,P]     Damp
               ***  Starting incremental Fock matrix formation  ***
  0   -241.8625453177   0.000000000000 0.31389205  0.00759235  0.0870731 0.7000
  1   -241.8671518490  -0.004606531305 0.23191179  0.00559237  0.0617033 0.7000
                               ***Turning on DIIS***
  2   -241.8706308648  -0.003479015841 0.55879287  0.01344571  0.0429117 0.0000
  3   -241.8776339844  -0.007003119566 0.04166085  0.00095475  0.0055398 0.0000
  4   -241.8869659817  -0.009331997287 0.00369407  0.00011402  0.0019721 0.0000
  5   -241.8843167263   0.002649255376 0.00417601  0.00009238  0.0007724 0.0000
  6   -241.8799399169   0.004376809433 0.00171572  0.00003234  0.0003542 0.0000
  7   -241.8800936695  -0.000153752668 0.00029435  0.00000811  0.0000931 0.0000
  8   -241.8803019919  -0.000208322323 0.00015651  0.00000376  0.0000259 0.0000
  9   -241.8804052144  -0.000103222533 0.00006572  0.00000119  0.0000068 0.0000
 10   -241.8804209015  -0.000015687126 0.00000977  0.00000017  0.0000011 0.0000
                            ***DIIS convergence achieved***

               *****************************************************
               *                     SUCCESS                       *
               *           SCF CONVERGED AFTER  11 CYCLES          *
               *****************************************************


----------------
TOTAL SCF ENERGY
----------------

Total Energy       :         -241.88042407 Eh           -6581.90096 eV

Components:
Nuclear Repulsion  :            0.00000000 Eh               0.00000 eV
Electronic Energy  :         -241.88042407 Eh           -6581.90096 eV
One Electron Energy:         -336.63449798 Eh           -9160.29039 eV
Two Electron Energy:           94.75407391 Eh            2578.38943 eV

Virial components:
Potential Energy   :         -483.75918032 Eh          -13163.75653 eV
Kinetic Energy     :          241.87875625 Eh            6581.85557 eV
Virial Ratio       :            2.00000690


---------------
SCF CONVERGENCE
---------------

  Last Energy change         ...   -3.1647e-06  Tolerance :   1.0000e-08
  Last MAX-Density change    ...    1.0887e-06  Tolerance :   1.0000e-07
  Last RMS-Density change    ...    3.3528e-08  Tolerance :   5.0000e-09
  Last DIIS Error            ...    1.8274e-07  Tolerance :   5.0000e-07

             **** THE GBW FILE WAS UPDATED (13_Al.gbw) ****
             **** DENSITY FILE WAS UPDATED (13_Al.scfp) ****
             **** ENERGY FILE WAS UPDATED (13_Al.en.tmp) ****
----------------------
UHF SPIN CONTAMINATION
----------------------

Expectation value of <S**2>     :     0.770376
Ideal value S*(S+1) for S=0.5   :     0.750000
Deviation                       :     0.020376

             **** THE GBW FILE WAS UPDATED (13_Al.gbw) ****
             **** DENSITY FILE WAS UPDATED (13_Al.scfp) ****
----------------
ORBITAL ENERGIES
----------------
                 SPIN UP ORBITALS
  NO   OCC          E(Eh)            E(eV) 
   0   1.0000     -58.500887     -1591.8901 
   1   1.0000      -4.910805      -133.6298 
   2   1.0000      -3.224187       -87.7346 
   3   1.0000      -3.218102       -87.5690 
   4   1.0000      -3.218102       -87.5690 
   5   1.0000      -0.425551       -11.5798 
   6   1.0000      -0.218387        -5.9426 
   7   0.0000       0.009404         0.2559 
   8   0.0000       0.009404         0.2559 
   9   0.0000       0.035342         0.9617 
  10   0.0000       0.036302         0.9878 
  11   0.0000       0.047820         1.3013 
  12   0.0000       0.047820         1.3013 
  13   0.0000       0.083562         2.2738 
  14   0.0000       0.083562         2.2738 
  15   0.0000       0.084499         2.2993 
  16   0.0000       0.084499         2.2993 
  17   0.0000       0.085133         2.3166 
  18   0.0000       0.197723         5.3803 
  19   0.0000       0.216456         5.8901 
  20   0.0000       0.216456         5.8901 
  21   0.0000       0.221673         6.0320 
  22   0.0000       0.232062         6.3147 
  23   0.0000       0.232062         6.3147 
  24   0.0000       0.236465         6.4346 
  25   0.0000       0.236465         6.4346 
  26   0.0000       0.239918         6.5285 
  27   0.0000       0.239918         6.5285 
  28   0.0000       0.240572         6.5463 
  29   0.0000       0.247421         6.7327 
  30   0.0000       0.249318         6.7843 
  31   0.0000       0.249318         6.7843 
  32   0.0000       0.258599         7.0368 
  33   0.0000       0.258599         7.0368 
  34   0.0000       0.659842        17.9552 
  35   0.0000       0.660110        17.9625 
  36   0.0000       0.660110        17.9625 
  37   0.0000       0.661793        18.0083 
  38   0.0000       0.661793        18.0083 
  39   0.0000       0.693686        18.8762 
  40   0.0000       0.693686        18.8762 
  41   0.0000       0.699351        19.0303 
  42   0.0000       0.699351        19.0303 
  43   0.0000       0.702344        19.1118 
  44   0.0000       0.702344        19.1118 
  45   0.0000       0.703262        19.1367 
  46   0.0000       0.747285        20.3347 
  47   0.0000       0.747285        20.3347 
  48   0.0000       0.755053        20.5460 
  49   0.0000       0.755053        20.5460 
  50   0.0000       0.760673        20.6990 
  51   0.0000       0.760673        20.6990 
  52   0.0000       0.764075        20.7915 
  53   0.0000       0.764075        20.7915 
  54   0.0000       0.765214        20.8225 
  55   0.0000       0.819070        22.2880 
  56   0.0000       0.825048        22.4507 
  57   0.0000       0.825048        22.4507 
  58   0.0000       0.870622        23.6908 
  59   0.0000       1.602579        43.6084 
  60   0.0000       1.602579        43.6084 
  61   0.0000       1.614410        43.9303 
  62   0.0000       1.614410        43.9303 
  63   0.0000       1.618470        44.0408 
  64   0.0000       1.799889        48.9775 
  65   0.0000       1.799889        48.9775 
  66   0.0000       1.809569        49.2409 
  67   0.0000       1.809569        49.2409 
  68   0.0000       1.815412        49.3999 
  69   0.0000       1.815412        49.3999 
  70   0.0000       1.817362        49.4529 
  71   0.0000       2.038397        55.4676 
  72   0.0000       2.038397        55.4676 
  73   0.0000       2.049086        55.7585 
  74   0.0000       2.049086        55.7585 
  75   0.0000       2.056823        55.9690 
  76   0.0000       2.056823        55.9690 
  77   0.0000       2.061504        56.0964 
  78   0.0000       2.061504        56.0964 
  79   0.0000       2.063070        56.1390 
  80   0.0000       6.119010       166.5067 
  81   0.0000       7.896408       214.8722 
  82   0.0000       7.896408       214.8722 
  83   0.0000       7.912106       215.2993 

                 SPIN DOWN ORBITALS
  NO   OCC          E(Eh)            E(eV) 
   0   1.0000     -58.498320     -1591.8202 
   1   1.0000      -4.907514      -133.5402 
   2   1.0000      -3.216831       -87.5344 
   3   1.0000      -3.216831       -87.5344 
   4   1.0000      -3.207358       -87.2766 
   5   1.0000      -0.363479        -9.8908 
   6   0.0000       0.013211         0.3595 
   7   0.0000       0.013211         0.3595 
   8   0.0000       0.026276         0.7150 
   9   0.0000       0.039156         1.0655 
  10   0.0000       0.051040         1.3889 
  11   0.0000       0.051040         1.3889 
  12   0.0000       0.076900         2.0926 
  13   0.0000       0.083994         2.2856 
  14   0.0000       0.083994         2.2856 
  15   0.0000       0.090201         2.4545 
  16   0.0000       0.090201         2.4545 
  17   0.0000       0.092793         2.5250 
  18   0.0000       0.219767         5.9802 
  19   0.0000       0.219767         5.9802 
  20   0.0000       0.230664         6.2767 
  21   0.0000       0.232420         6.3245 
  22   0.0000       0.232420         6.3245 
  23   0.0000       0.240326         6.5396 
  24   0.0000       0.240326         6.5396 
  25   0.0000       0.244656         6.6574 
  26   0.0000       0.245777         6.6879 
  27   0.0000       0.245777         6.6879 
  28   0.0000       0.250532         6.8173 
  29   0.0000       0.259962         7.0739 
  30   0.0000       0.259962         7.0739 
  31   0.0000       0.279658         7.6099 
  32   0.0000       0.279658         7.6099 
  33   0.0000       0.288440         7.8488 
  34   0.0000       0.662269        18.0212 
  35   0.0000       0.662269        18.0212 
  36   0.0000       0.688752        18.7419 
  37   0.0000       0.688752        18.7419 
  38   0.0000       0.694034        18.8856 
  39   0.0000       0.694034        18.8856 
  40   0.0000       0.699052        19.0222 
  41   0.0000       0.713058        19.4033 
  42   0.0000       0.713058        19.4033 
  43   0.0000       0.724789        19.7225 
  44   0.0000       0.724789        19.7225 
  45   0.0000       0.728979        19.8365 
  46   0.0000       0.747434        20.3387 
  47   0.0000       0.747434        20.3387 
  48   0.0000       0.760578        20.6964 
  49   0.0000       0.760578        20.6964 
  50   0.0000       0.770371        20.9629 
  51   0.0000       0.770371        20.9629 
  52   0.0000       0.776452        21.1283 
  53   0.0000       0.776452        21.1283 
  54   0.0000       0.778524        21.1847 
  55   0.0000       0.827984        22.5306 
  56   0.0000       0.827984        22.5306 
  57   0.0000       0.860289        23.4097 
  58   0.0000       0.881104        23.9761 
  59   0.0000       1.602761        43.6133 
  60   0.0000       1.602761        43.6133 
  61   0.0000       1.626222        44.2517 
  62   0.0000       1.626222        44.2517 
  63   0.0000       1.634997        44.4905 
  64   0.0000       1.799170        48.9579 
  65   0.0000       1.799170        48.9579 
  66   0.0000       1.820884        49.5488 
  67   0.0000       1.820884        49.5488 
  68   0.0000       1.834442        49.9177 
  69   0.0000       1.834442        49.9177 
  70   0.0000       1.839075        50.0438 
  71   0.0000       2.037627        55.4466 
  72   0.0000       2.037627        55.4466 
  73   0.0000       2.056235        55.9530 
  74   0.0000       2.056235        55.9530 
  75   0.0000       2.069917        56.3253 
  76   0.0000       2.069917        56.3253 
  77   0.0000       2.078295        56.5533 
  78   0.0000       2.078295        56.5533 
  79   0.0000       2.081119        56.6301 
  80   0.0000       6.123545       166.6301 
  81   0.0000       7.898090       214.9180 
  82   0.0000       7.898090       214.9180 
  83   0.0000       7.925481       215.6633 

                    ********************************
                    * MULLIKEN POPULATION ANALYSIS *
                    ********************************

--------------------------------------------
MULLIKEN ATOMIC CHARGES AND SPIN POPULATIONS
--------------------------------------------
   0 Al:   -0.000000    1.000000
Sum of atomic charges         :   -0.0000000
Sum of atomic spin populations:    1.0000000

-----------------------------------------------------
MULLIKEN REDUCED ORBITAL CHARGES AND SPIN POPULATIONS
-----------------------------------------------------
CHARGE
  0 Als       :     5.989658  s :     5.989658
      pz      :     2.745872  p :     6.999927
      px      :     2.000192
      py      :     2.253863
      dz2     :     0.003961  d :     0.010340
      dxz     :     0.000004
      dyz     :     0.005875
      dx2y2   :     0.000499
      dxy     :     0.000002
      f0      :     0.000008  f :     0.000073
      f+1     :     0.000000
      f-1     :     0.000051
      f+2     :     0.000013
      f-2     :     0.000000
      f+3     :     0.000000
      f-3     :     0.000001
      g0      :     0.000000  g :     0.000002
      g+1     :     0.000000
      g-1     :     0.000001
      g+2     :     0.000001
      g-2     :     0.000000
      g+3     :     0.000000
      g-3     :     0.000000
      g+4     :     0.000000
      g-4     :     0.000000

SPIN
  0 Als       :    -0.002087  s :    -0.002087
      pz      :     0.745874  p :     0.999931
      px      :     0.000193
      py      :     0.253864
      dz2     :     0.000800  d :     0.002088
      dxz     :     0.000001
      dyz     :     0.001186
      dx2y2   :     0.000101
      dxy     :     0.000000
      f0      :     0.000007  f :     0.000069
      f+1     :    -0.000000
      f-1     :     0.000050
      f+2     :     0.000012
      f-2     :    -0.000000
      f+3     :    -0.000000
      f-3     :     0.000001
      g0      :    -0.000000  g :    -0.000001
      g+1     :    -0.000000
      g-1     :    -0.000001
      g+2     :    -0.000001
      g-2     :    -0.000000
      g+3     :    -0.000000
      g-3     :    -0.000000
      g+4     :    -0.000000
      g-4     :    -0.000000


                     *******************************
                     * LOEWDIN POPULATION ANALYSIS *
                     *******************************

-------------------------------------------
LOEWDIN ATOMIC CHARGES AND SPIN POPULATIONS
-------------------------------------------
   0 Al:   -0.000000    1.000000

----------------------------------------------------
LOEWDIN REDUCED ORBITAL CHARGES AND SPIN POPULATIONS
----------------------------------------------------
CHARGE
  0 Als       :     5.989658  s :     5.989658
      pz      :     2.745872  p :     6.999927
      px      :     2.000192
      py      :     2.253863
      dz2     :     0.003961  d :     0.010340
      dxz     :     0.000004
      dyz     :     0.005875
      dx2y2   :     0.000499
      dxy     :     0.000002
      f0      :     0.000008  f :     0.000073
      f+1     :     0.000000
      f-1     :     0.000051
      f+2     :     0.000013
      f-2     :     0.000000
      f+3     :     0.000000
      f-3     :     0.000001
      g0      :     0.000000  g :     0.000002
      g+1     :     0.000000
      g-1     :     0.000001
      g+2     :     0.000001
      g-2     :     0.000000
      g+3     :     0.000000
      g-3     :     0.000000
      g+4     :     0.000000
      g-4     :     0.000000

SPIN
  0 Als       :    -0.002087  s :    -0.002087
      pz      :     0.745874  p :     0.999931
      px      :     0.000193
      py      :     0.253864
      dz2     :     0.000800  d :     0.002088
      dxz     :     0.000001
      dyz     :     0.001186
      dx2y2   :     0.000101
      dxy     :     0.000000
      f0      :     0.000007  f :     0.000069
      f+1     :    -0.000000
      f-1     :     0.000050
      f+2     :     0.000012
      f-2     :    -0.000000
      f+3     :    -0.000000
      f-3     :     0.000001
      g0      :    -0.000000  g :    -0.000001
      g+1     :    -0.000000
      g-1     :    -0.000001
      g+2     :    -0.000001
      g-2     :    -0.000000
      g+3     :    -0.000000
      g-3     :    -0.000000
      g+4     :    -0.000000
      g-4     :    -0.000000


                      *****************************
                      * MAYER POPULATION ANALYSIS *
                      *****************************

  NA   - Mulliken gross atomic population
  ZA   - Total nuclear charge
  QA   - Mulliken gross atomic charge
  VA   - Mayer's total valence
  BVA  - Mayer's bonded valence
  FA   - Mayer's free valence

  ATOM       NA         ZA         QA         VA         BVA        FA
  0 Al    13.0000    13.0000    -0.0000     1.0408     0.0000     1.0408

  Mayer bond orders larger than 0.100000


-------
TIMINGS
-------

Total SCF time: 0 days 0 hours 0 min 11 sec 

Total time                  ....      11.689 sec
Sum of individual times     ....       6.196 sec  ( 53.0%)

Fock matrix formation       ....       5.856 sec  ( 50.1%)
Diagonalization             ....       0.030 sec  (  0.3%)
Density matrix formation    ....       0.002 sec  (  0.0%)
Population analysis         ....       0.018 sec  (  0.2%)
Initial guess               ....       0.121 sec  (  1.0%)
Orbital Transformation      ....       0.000 sec  (  0.0%)
Orbital Orthonormalization  ....       0.000 sec  (  0.0%)
DIIS solution               ....       0.140 sec  (  1.2%)


           ************************************************************
           *        Program running with 3 parallel MPI-processes     *
           *              working on a common directory               *
           ************************************************************


------------------------------------------------------------------------------- 
                              ORCA-MATRIX DRIVEN CI                            
------------------------------------------------------------------------------- 

--------------------------------
AUTOMATIC CHOICE OF INCORE LEVEL
--------------------------------

Memory available                           ...   2500.00 MB
Memory needed for S+T                      ...      0.41 MB
Memory needed for J+K                      ...      0.82 MB
Memory needed for DIIS                     ...      5.70 MB
Memory needed for 3-ext                    ...      6.97 MB
Memory needed for 4-ext                    ...    135.84 MB
Memory needed for triples                  ...     17.42 MB
 -> Final InCoreLevel    ... 5
 -> check shows that triples correction can be computed


Wavefunction type
-----------------
Correlation treatment                      ...      CCSD     
Single excitations                         ... ON
Orbital optimization                       ... OFF
Calculation of Z vector                    ... OFF
Calculation of Brueckner orbitals          ... OFF
Perturbative triple excitations            ... ON
Calculation of F12 correction              ... OFF
Frozen core treatment                      ... chemical core (10 el)
Reference Wavefunction                     ... UHF
  Alpha-MOs occ    :     5 ...    6 (  2 MO's/  2 electrons)
  Beta-MOs occ     :     5 ...    5 (  1 MO's/  1 electrons)
  Alpha-MOs virt   :     7 ...   83 ( 77 MO's              )
  Beta-MOs virt    :     6 ...   83 ( 78 MO's              )
Number of AO's                             ...     84
Number of electrons                        ...     13
Number of correlated electrons             ...      3

Algorithmic settings
--------------------
Integral transformation                    ... AO direct full transformation
K(C) Formation                             ... FULL-MO TRAFO
Maximum number of iterations               ...        50
Convergence tolerance (max. residuum)      ... 1.000e-05
Level shift for amplitude update           ... 2.000e-01
Maximum number of DIIS vectors             ...         7
DIIS turned on at iteration                ...         0
Damping before turning on DIIS             ...     0.500
Damping after turning on DIIS              ...     0.000
Pair specific amplitude update             ... OFF
Natural orbital iterations                 ... OFF
Perturbative natural orbital generation    ... OFF
Printlevel                                 ... 2

Memory handling:
----------------
Maximum memory for working arrays          ...   2500 MB
Data storage in matrix containers          ... UNCOMPRESSED
Data type for integral storage             ... DOUBLE
In-Core Storage of quantities:
   Amplitudes+Sigma Vector      ... YES
   J+K operators                ... YES
   DIIS vectors                 ... YES
   3-external integrals         ... YES
   4-external integrals         ... YES


Initializing the integral package          ... done
Warning: reference  - re-canonicalizations have been set to INT 1 VIRT 1

--------------------------
UNRESTRICTED FOCK OPERATOR
--------------------------

<ss|ss>:          406 b            0 skpd (  0.0%)    0.010 s ( 0.025 ms/b)
<ss|sp>:         1176 b            0 skpd (  0.0%)    0.043 s ( 0.036 ms/b)
<ss|sd>:          784 b            0 skpd (  0.0%)    0.006 s ( 0.008 ms/b)
<ss|sf>:          588 b            0 skpd (  0.0%)    0.006 s ( 0.010 ms/b)
<ss|sg>:          392 b            0 skpd (  0.0%)    0.006 s ( 0.016 ms/b)
<ss|pp>:          588 b            0 skpd (  0.0%)    0.012 s ( 0.021 ms/b)
<ss|pd>:          672 b            0 skpd (  0.0%)    0.004 s ( 0.007 ms/b)
<ss|pf>:          504 b            0 skpd (  0.0%)    0.005 s ( 0.010 ms/b)
<ss|pg>:          336 b            0 skpd (  0.0%)    0.006 s ( 0.016 ms/b)
<ss|dd>:          280 b            0 skpd (  0.0%)    0.001 s ( 0.004 ms/b)
<ss|df>:          336 b            0 skpd (  0.0%)    0.002 s ( 0.005 ms/b)
<ss|dg>:          224 b            0 skpd (  0.0%)    0.002 s ( 0.009 ms/b)
<ss|ff>:          168 b            0 skpd (  0.0%)    0.001 s ( 0.008 ms/b)
<ss|fg>:          168 b            0 skpd (  0.0%)    0.002 s ( 0.012 ms/b)
<ss|gg>:           84 b            0 skpd (  0.0%)    0.001 s ( 0.017 ms/b)
<sp|sp>:          903 b            0 skpd (  0.0%)    0.020 s ( 0.022 ms/b)
<sp|sd>:         1176 b            0 skpd (  0.0%)    0.008 s ( 0.007 ms/b)
<sp|sf>:          882 b            3 skpd (  0.3%)    0.008 s ( 0.009 ms/b)
<sp|sg>:          588 b            4 skpd (  0.7%)    0.009 s ( 0.015 ms/b)
<sp|pp>:          882 b            0 skpd (  0.0%)    0.012 s ( 0.013 ms/b)
<sp|pd>:         1008 b            0 skpd (  0.0%)    0.007 s ( 0.007 ms/b)
<sp|pf>:          756 b            0 skpd (  0.0%)    0.008 s ( 0.011 ms/b)
<sp|pg>:          504 b            0 skpd (  0.0%)    0.008 s ( 0.016 ms/b)
<sp|dd>:          420 b            0 skpd (  0.0%)    0.002 s ( 0.005 ms/b)
<sp|df>:          504 b            0 skpd (  0.0%)    0.003 s ( 0.007 ms/b)
<sp|dg>:          336 b            1 skpd (  0.3%)    0.004 s ( 0.011 ms/b)
<sp|ff>:          252 b            0 skpd (  0.0%)    0.003 s ( 0.010 ms/b)
<sp|fg>:          252 b            0 skpd (  0.0%)    0.004 s ( 0.014 ms/b)
<sp|gg>:          126 b            1 skpd (  0.8%)    0.002 s ( 0.020 ms/b)
<sd|sd>:          406 b            1 skpd (  0.2%)    0.002 s ( 0.004 ms/b)
<sd|sf>:          588 b            6 skpd (  1.0%)    0.004 s ( 0.006 ms/b)
<sd|sg>:          392 b            6 skpd (  1.5%)    0.004 s ( 0.009 ms/b)
<sd|pp>:          588 b            0 skpd (  0.0%)    0.005 s ( 0.008 ms/b)
<sd|pd>:          672 b            9 skpd (  1.3%)    0.004 s ( 0.005 ms/b)
<sd|pf>:          504 b            6 skpd (  1.2%)    0.004 s ( 0.008 ms/b)
<sd|pg>:          336 b           17 skpd (  5.1%)    0.004 s ( 0.012 ms/b)
<sd|dd>:          280 b            1 skpd (  0.4%)    0.001 s ( 0.005 ms/b)
<sd|df>:          336 b            3 skpd (  0.9%)    0.002 s ( 0.007 ms/b)
<sd|dg>:          224 b            2 skpd (  0.9%)    0.003 s ( 0.012 ms/b)
<sd|ff>:          168 b            1 skpd (  0.6%)    0.002 s ( 0.011 ms/b)
<sd|fg>:          168 b            6 skpd (  3.6%)    0.003 s ( 0.016 ms/b)
<sd|gg>:           84 b            3 skpd (  3.6%)    0.002 s ( 0.022 ms/b)
<sf|sf>:          231 b           10 skpd (  4.3%)    0.003 s ( 0.014 ms/b)
<sf|sg>:          294 b           15 skpd (  5.1%)    0.005 s ( 0.018 ms/b)
<sf|pp>:          441 b            1 skpd (  0.2%)    0.008 s ( 0.018 ms/b)
<sf|pd>:          504 b           11 skpd (  2.2%)    0.005 s ( 0.010 ms/b)
<sf|pf>:          378 b           10 skpd (  2.6%)    0.006 s ( 0.016 ms/b)
<sf|pg>:          252 b            7 skpd (  2.8%)    0.007 s ( 0.029 ms/b)
<sf|dd>:          210 b            2 skpd (  1.0%)    0.002 s ( 0.009 ms/b)
<sf|df>:          252 b           15 skpd (  6.0%)    0.003 s ( 0.014 ms/b)
<sf|dg>:          168 b           12 skpd (  7.1%)    0.003 s ( 0.022 ms/b)
<sf|ff>:          126 b            5 skpd (  4.0%)    0.003 s ( 0.024 ms/b)
<sf|fg>:          126 b            7 skpd (  5.6%)    0.004 s ( 0.034 ms/b)
<sf|gg>:           63 b            6 skpd (  9.5%)    0.003 s ( 0.051 ms/b)
<sg|sg>:          105 b            5 skpd (  4.8%)    0.004 s ( 0.040 ms/b)
<sg|pp>:          294 b            1 skpd (  0.3%)    0.010 s ( 0.036 ms/b)
<sg|pd>:          336 b           32 skpd (  9.5%)    0.006 s ( 0.019 ms/b)
<sg|pf>:          252 b            9 skpd (  3.6%)    0.007 s ( 0.030 ms/b)
<sg|pg>:          168 b           26 skpd ( 15.5%)    0.007 s ( 0.049 ms/b)
<sg|dd>:          140 b            2 skpd (  1.4%)    0.002 s ( 0.016 ms/b)
<sg|df>:          168 b           15 skpd (  8.9%)    0.004 s ( 0.024 ms/b)
<sg|dg>:          112 b           11 skpd (  9.8%)    0.004 s ( 0.043 ms/b)
<sg|ff>:           84 b            6 skpd (  7.1%)    0.003 s ( 0.043 ms/b)
<sg|fg>:           84 b           12 skpd ( 14.3%)    0.004 s ( 0.058 ms/b)
<sg|gg>:           42 b            6 skpd ( 14.3%)    0.003 s ( 0.084 ms/b)
<pp|pp>:          231 b            0 skpd (  0.0%)    0.007 s ( 0.029 ms/b)
<pp|pd>:          504 b            0 skpd (  0.0%)    0.006 s ( 0.011 ms/b)
<pp|pf>:          378 b            0 skpd (  0.0%)    0.007 s ( 0.017 ms/b)
<pp|pg>:          252 b            0 skpd (  0.0%)    0.007 s ( 0.029 ms/b)
<pp|dd>:          210 b            0 skpd (  0.0%)    0.002 s ( 0.010 ms/b)
<pp|df>:          252 b            0 skpd (  0.0%)    0.003 s ( 0.014 ms/b)
<pp|dg>:          168 b            0 skpd (  0.0%)    0.004 s ( 0.023 ms/b)
<pp|ff>:          126 b            0 skpd (  0.0%)    0.003 s ( 0.022 ms/b)
<pp|fg>:          126 b            0 skpd (  0.0%)    0.004 s ( 0.032 ms/b)
<pp|gg>:           63 b            0 skpd (  0.0%)    0.003 s ( 0.045 ms/b)
<pd|pd>:          300 b            0 skpd (  0.0%)    0.003 s ( 0.010 ms/b)
<pd|pf>:          432 b            0 skpd (  0.0%)    0.006 s ( 0.014 ms/b)
<pd|pg>:          288 b            0 skpd (  0.0%)    0.006 s ( 0.022 ms/b)
<pd|dd>:          240 b            0 skpd (  0.0%)    0.003 s ( 0.012 ms/b)
<pd|df>:          288 b            0 skpd (  0.0%)    0.005 s ( 0.016 ms/b)
<pd|dg>:          192 b            0 skpd (  0.0%)    0.005 s ( 0.025 ms/b)
<pd|ff>:          144 b            0 skpd (  0.0%)    0.003 s ( 0.023 ms/b)
<pd|fg>:          144 b            0 skpd (  0.0%)    0.005 s ( 0.034 ms/b)
<pd|gg>:           72 b            0 skpd (  0.0%)    0.003 s ( 0.047 ms/b)
<pf|pf>:          171 b            0 skpd (  0.0%)    0.005 s ( 0.027 ms/b)
<pf|pg>:          216 b            0 skpd (  0.0%)    0.009 s ( 0.042 ms/b)
<pf|dd>:          180 b            0 skpd (  0.0%)    0.003 s ( 0.016 ms/b)
<pf|df>:          216 b            0 skpd (  0.0%)    0.006 s ( 0.026 ms/b)
<pf|dg>:          144 b            0 skpd (  0.0%)    0.006 s ( 0.040 ms/b)
<pf|ff>:          108 b            0 skpd (  0.0%)    0.005 s ( 0.042 ms/b)
<pf|fg>:          108 b            0 skpd (  0.0%)    0.007 s ( 0.061 ms/b)
<pf|gg>:           54 b            0 skpd (  0.0%)    0.004 s ( 0.082 ms/b)
<pg|pg>:           78 b            0 skpd (  0.0%)    0.007 s ( 0.085 ms/b)
<pg|dd>:          120 b            0 skpd (  0.0%)    0.003 s ( 0.027 ms/b)
<pg|df>:          144 b            0 skpd (  0.0%)    0.006 s ( 0.039 ms/b)
<pg|dg>:           96 b            2 skpd (  2.1%)    0.007 s ( 0.072 ms/b)
<pg|ff>:           72 b            0 skpd (  0.0%)    0.004 s ( 0.062 ms/b)
<pg|fg>:           72 b            0 skpd (  0.0%)    0.007 s ( 0.101 ms/b)
<pg|gg>:           36 b            0 skpd (  0.0%)    0.005 s ( 0.137 ms/b)
<dd|dd>:           55 b            0 skpd (  0.0%)    0.001 s ( 0.014 ms/b)
<dd|df>:          120 b            0 skpd (  0.0%)    0.002 s ( 0.021 ms/b)
<dd|dg>:           80 b            0 skpd (  0.0%)    0.003 s ( 0.032 ms/b)
<dd|ff>:           60 b            0 skpd (  0.0%)    0.002 s ( 0.029 ms/b)
<dd|fg>:           60 b            0 skpd (  0.0%)    0.003 s ( 0.043 ms/b)
<dd|gg>:           30 b            0 skpd (  0.0%)    0.002 s ( 0.057 ms/b)
<df|df>:           78 b            0 skpd (  0.0%)    0.003 s ( 0.038 ms/b)
<df|dg>:           96 b            0 skpd (  0.0%)    0.005 s ( 0.051 ms/b)
<df|ff>:           72 b            0 skpd (  0.0%)    0.004 s ( 0.053 ms/b)
<df|fg>:           72 b            0 skpd (  0.0%)    0.006 s ( 0.082 ms/b)
<df|gg>:           36 b            0 skpd (  0.0%)    0.004 s ( 0.101 ms/b)
<dg|dg>:           36 b            0 skpd (  0.0%)    0.003 s ( 0.084 ms/b)
<dg|ff>:           48 b            0 skpd (  0.0%)    0.003 s ( 0.067 ms/b)
<dg|fg>:           48 b            0 skpd (  0.0%)    0.005 s ( 0.110 ms/b)
<dg|gg>:           24 b            0 skpd (  0.0%)    0.003 s ( 0.146 ms/b)
<ff|ff>:           21 b            0 skpd (  0.0%)    0.002 s ( 0.101 ms/b)
<ff|fg>:           36 b            0 skpd (  0.0%)    0.004 s ( 0.122 ms/b)
<ff|gg>:           18 b            0 skpd (  0.0%)    0.003 s ( 0.169 ms/b)
<fg|fg>:           21 b            0 skpd (  0.0%)    0.005 s ( 0.229 ms/b)
<fg|gg>:           18 b            0 skpd (  0.0%)    0.005 s ( 0.275 ms/b)
<gg|gg>:            6 b            0 skpd (  0.0%)    0.004 s ( 0.662 ms/b)
Recanonicalizing the internal orbitals
Recanonicalizing the virtual orbitals
Time needed for Fock operator              ...            0.708 sec
Reference energy                           ...   -241.880424771
Warning: for UHF the TrafoType has to be JK
Warning: for UHF the K(C)-option cannot be MO but must be AOX

-------------------------------
PARTIAL EXCHANGE TRANSFORMATION
-------------------------------

Transformation type                        ... two-operators
Generation of integrals (i,mue|j,nue)      ... ON
Generation of integrals (mue,kappa|nue,tau)... ON
Generation of integrals (i,mue|a,nue)      ... ON
Dimension of the basis                     ...   84
Number of internal alpha-MOs               ...    2 (   5-   6)
Number of internal beta-MOs                ...    1 (   5-   5)
Number of external alpha-MOs               ...   77 (   7-  83)
Number of external beta-MOs                ...   78 (   6-  83)
Pair cutoff                                ... 0.000e+00 Eh
Number of AO pairs in the trafo            ... 3570
Total Number of distinct AO pairs          ... 3570
Memory devoted for trafo                   ... 2500.0 MB 
Max. Number of MO pairs treated together   ... 46439      
Number Format for Storage                  ... Double (8 Byte)
Integral package used                      ... LIBINT

Starting integral evaluation:
    ... done with AO integral generation
Closing buffer AOK[aa] ( 0.00 GB; CompressionRatio= 0.73)
Closing buffer AOK[bb] ( 0.00 GB; CompressionRatio= 0.40)
Closing buffer AOK[ab] ( 0.00 GB; CompressionRatio= 0.57)
Closing buffer AOK[ba] ( 0.00 GB; CompressionRatio= 0.57)
Collecting buffer AOK 
Closing buffer IAAO1[aa] ( 0.00 GB; CompressionRatio= 0.99)
Closing buffer IAAO1[bb] ( 0.00 GB; CompressionRatio= 0.98)
Closing buffer IAAO1[ab] ( 0.00 GB; CompressionRatio= 0.99)
Closing buffer IAAO1[ba] ( 0.00 GB; CompressionRatio= 0.98)
Closing buffer IAAO2[aa] ( 0.00 GB; CompressionRatio= 0.99)
Closing buffer IAAO2[bb] ( 0.00 GB; CompressionRatio= 0.98)
Closing buffer IAAO2[ab] ( 0.00 GB; CompressionRatio= 0.99)
Closing buffer IAAO2[ba] ( 0.00 GB; CompressionRatio= 0.98)
Collecting buffer IAAO 
Closing buffer PRQS    ( 0.06 GB; CompressionRatio= 1.00)
Collecting buffer PRQS 
Number of alpha/alpha MO pairs in trafo    ...    3
Number of beta /beta  MO pairs in trafo    ...    1
Number of alpha/ beta MO pairs in trafo    ...    2
------------------------
SORTING OF (i,mue|j,nue)
------------------------

SORTING OF ALPHA/ALPHA PAIRS
IBATCH = 1 of  1
Closing buffer KAO[aa] ( 0.00 GB; CompressionRatio= 1.00)
Collecting buffer KAO 
SORTING OF BETA /BETA  PAIRS
IBATCH = 1 of  1
Closing buffer KAO[bb] ( 0.00 GB; CompressionRatio= 1.00)
Collecting buffer KAO 
SORTING OF ALPHA/BETA  PAIRS
IBATCH = 1 of  1
Closing buffer KAO[ab] ( 0.00 GB; CompressionRatio= 0.999787460149)
Collecting buffer KAO[ab] 
------------------------
SORTING OF (i,mue|a,nue)
------------------------

Number of alpha/alpha (i,a) pairs in trafo  ...  154
Number of beta /beta  (i,a) pairs in trafo  ...   78
Number of alpha/ beta (i,a) pairs in trafo  ...  156
Number of beta /alpha (i,a) pairs in trafo  ...   77
Setting up the alpha/alpha list             ... done
Setting up the beta /beta  list             ... done
Setting up the alpha/beta  list             ... done
Setting up the beta /alpha list             ... done
    ... Now sorting (i,mue|a,nue)integrals
    ... Integrals (i,b|a,c) will be made on the fly
SORTING OF ALPHA/ALPHA PAIRS
IBATCH = 1 of  1
Closing buffer IPAQ[aa]  0.00 GB; CompressionRatio= 1.00)
SORTING OF BETA /BETA  PAIRS
IBATCH = 1 of  1
Closing buffer IPAQ[bb]( 0.00 GB; CompressionRatio= 1.00)
SORTING OF ALPHA/BETA  PAIRS (NMatSort_ab=52)
IBATCH = 1 of  1
Closing buffer IPAQ[ab]( 0.00 GB; CompressionRatio= 1.00)
SORTING OF BETA/ALPHA  PAIRS
IBATCH = 1 of  1
Closing buffer IPAQ[ba]( 0.00 GB; CompressionRatio= 1.00)
N(AO-Batches) Done                         ...     37268 
N(AO-Batches) Skipped                      ...         0 
N(IJ)-pairs Skipped                        ...         0 
TOTAL TIME for half transformation         ...    16.753 sec
AO-integral generation                     ...     1.584 sec
Half transformation                        ...     5.889 sec
K-integral sorting                         ...     0.477 sec
<ss|**>: 
------------------------------
PARTIAL COULOMB TRANSFORMATION
------------------------------

Transformation type                        ... two-operators
Dimension of the basis                     ...   84
Number of internal alpha-MOs               ...    2 (5-6)
Number of internal beta-MOs                ...    1 (5-5)
Pair cutoff                                ... 0.000e+00 Eh
Number of AO pairs included in the trafo   ... 3570
Total Number of distinct AO pairs          ... 3570
Memory devoted for trafo                   ... 2500.0 MB 
Max. Number of MO pairs treated together   ... 91787      
Max. Number of MOs treated per batch       ... 1092      
Number Format for Storage                  ... Double (8 Byte)
AO-integral source                         ... DIRECT
Integral package used                      ... LIBINT

Starting integral evaluation:
<sp|**>:         7084 b        0 skpd     0.303 s (  0.043 ms/b)
       10626 b        0 skpd     0.193 s (  0.018 ms/b)
<sd|**>: <sf|**>:         7084 b        0 skpd     0.089 s (  0.013 ms/b)
<sg|**>:         5313 b        0 skpd     0.341 s (  0.064 ms/b)
        3542 b        0 skpd     0.176 s (  0.050 ms/b)
<pp|**>:         5313 b        0 skpd     0.343 s (  0.065 ms/b)
<pd|**>:         6072 b        0 skpd     0.159 s (  0.026 ms/b)
<pf|**>:         4554 b        0 skpd     0.847 s (  0.186 ms/b)
<pg|**>: <dd|**>:         3036 b        0 skpd     0.176 s (  0.058 ms/b)
        2530 b        0 skpd     0.075 s (  0.030 ms/b)
<df|**>:         3036 b        0 skpd     0.170 s (  0.056 ms/b)
<dg|**>:         2024 b        0 skpd     0.157 s (  0.077 ms/b)
<ff|**>:         1518 b        0 skpd     0.099 s (  0.065 ms/b)
<fg|**>:         1518 b        0 skpd     0.179 s (  0.118 ms/b)
<gg|**>:          759 b        0 skpd     0.099 s (  0.131 ms/b)
Closing buffer AOJ[aa] ( 0.00 GB; CompressionRatio= 0.67)
Closing buffer AOJ[bb] ( 0.00 GB; CompressionRatio= 0.00)
Collecting buffer AOJ 
    ... done with AO integral generation
Number of Alpha-MO pairs included          ...    3
Number of Beta-MO pairs included           ...    1
    ... Now sorting integrals
SORTING ALPHA/ALPHA PAIRS
IBATCH = 1 of  1
Closing buffer JAO[aa] ( 0.00 GB; CompressionRatio= 1.00)
SORTING BETA/BETA PAIRS
IBATCH = 1 of  1
Closing buffer JAO[bb] ( 0.00 GB; CompressionRatio= 1.00)
Collecting buffer JAO 
TOTAL TIME for half transformation         ...     3.844 sec
AO-integral generation                     ...     1.811 sec
Half transformation                        ...     1.598 sec
J-integral sorting                         ...     0.425 sec

-------------------------- SECOND HALF TRANSFORMATION -------------------------
Formation of (ij|kl),(ij|ka), (ij|ab)      ... ok (     0.093 sec)
Formation of (ik|jl),(ik|ja), (ia|jb)      ... ok (     0.023 sec)


-----------------------
SPIN UNRESTRICTED GUESS
-----------------------

Entering MDCI_UHF_Guess, Tailored=0
Spin-components of the MP2 energy:
EMP2(aa)=     -0.002645910
EMP2(bb)=      0.000000000
EMP2(ab)=     -0.035452663

Initial guess performed in     0.001 sec
E(0)                                       ...   -241.880424771
E(MP2)                                     ...     -0.038098573
Initial E(tot)                             ...   -241.918523344
<T|T>                                      ...      0.030930290
Number of pairs included                   ... 3

------------------------------------------------
                  UHF COUPLED CLUSTER ITERATIONS
------------------------------------------------

Number of amplitudes to be optimized       ...        15092

Iter       E(tot)           E(Corr)          Delta-E          Residual     Time      <S|S>**1/2
  0   -241.918523344     -0.038098573     -0.000000000      0.010542311    0.53      0.000000397
                           *** Turning on DIIS ***
  1   -241.925109942     -0.044685172     -0.006586599      0.006431317    0.65      0.012566459
  2   -241.931045112     -0.050620341     -0.005935170      0.002629477    0.59      0.027103679
  3   -241.932270936     -0.051846165     -0.001225824      0.000733244    0.58      0.033096160
  4   -241.932436336     -0.052011565     -0.000165400      0.000161225    0.58      0.034993195
  5   -241.932467796     -0.052043025     -0.000031460      0.000041983    0.58      0.035278862
  6   -241.932465067     -0.052040296      0.000002730      0.000021015    0.58      0.035285534
  7   -241.932466659     -0.052041888     -0.000001592      0.000009374    0.58      0.035291001
               --- The Coupled-Cluster iterations have converged ---

----------------------
COUPLED CLUSTER ENERGY
----------------------

E(0)                                       ...   -241.880424771
E(CORR)                                    ...     -0.052041888
E(TOT)                                     ...   -241.932466659
Singles norm <S|S>**1/2                    ...      0.035291001 ( 0.029710253, 0.005580748)  
T1 diagnostic                              ...      0.020375269                              

------------------
LARGEST AMPLITUDES
------------------
   6a-> 29a   5b-> 12b       0.054113
   5a->  7a   5b-> 11b       0.052513
   5a->  8a   5b-> 10b       0.052513
   5a->  7a   5b->  6b       0.048437
   5a->  8a   5b->  7b       0.048437
   5a-> 12a   5b-> 10b       0.047829
   5a-> 11a   5b-> 11b       0.047829
   5a-> 12a   5b->  7b       0.044036
   5a-> 11a   5b->  6b       0.044036
   5a->  7a   5b-> 19b       0.041190
   5a->  8a   5b-> 18b       0.041190
   6a-> 30a   5b-> 10b       0.040122
   6a-> 31a   5b-> 11b       0.040122
   5a-> 19a   5b-> 10b       0.039425
   5a-> 20a   5b-> 11b       0.039425
   5a-> 12a   5b-> 18b       0.038025

----------------------
UHF TRIPLES CORRECTION (Algorithm 1)
----------------------

Multiplier for the singles contribution    ...      1.000000000

SPIN-CASE Alpha-Alpha-Alpha:

SPIN-CASE Beta-Beta-Beta:

SPIN-CASE Alpha-Alpha-Beta:
10% done
20% done
30% done
40% done
50% done
60% done
70% done
80% done
90% done


SPIN-CASE Beta-Beta-Alpha:

Triples Correction (T)                     ...     -0.001281483
    alpha-alpha-alpha ...  0.000000000 ( -0.0%)
    alpha-alpha-beta  ... -0.001281483 (100.0%)
    alpha-beta -beta  ...  0.000000000 ( -0.0%)
    beta -beta -beta  ...  0.000000000 ( -0.0%)
Scaling of triples based on CCSD energies (Peterson et al. Molecular Physics 113, 1551 (2015))
E(T*) = f*E(T) where f = E(F12-CCSD)/E(CCSD) 
f = CCSD (with F12)/ CCSD (without F12)    ...      1.000000000
Scaled triples correction (T)              ...     -0.001281483

Final correlation energy                   ...     -0.053323371
E(CCSD)                                    ...   -241.932466659
E(CCSD(T))                                 ...   -241.933748142



        !!!!!!!!!!!!!!!!!!!!!!!!!!!!!!!!!!!!!!!!!!!!!!!!!!!!!!!!!!!!!!!!!!!!!!!!!! 
        !  Warning: Densities are linearized densities                           !
        !!!!!!!!!!!!!!!!!!!!!!!!!!!!!!!!!!!!!!!!!!!!!!!!!!!!!!!!!!!!!!!!!!!!!!!!!! 

NORM  =      1.074134825 sqrt=     1.036404759
W(HF) =      0.930981825
------------------------------------------------------------------------------
                           ORCA POPULATION ANALYSIS
------------------------------------------------------------------------------
Input electron density              ... 13_Al.mdcip
Input spin density                  ... 13_Al.mdcir
BaseName (.gbw .S,...)              ... 13_Al

                    ********************************
                    * MULLIKEN POPULATION ANALYSIS *
                    ********************************

------------------------------------------
MULLIKEN ATOMIC CHARGES AND SPIN DENSITIES
------------------------------------------
   0 Al:   -0.000000    1.000000
Sum of atomic charges       :   -0.0000000
Sum of atomic spin densities:    1.0000000

---------------------------------------------------
MULLIKEN REDUCED ORBITAL CHARGES AND SPIN DENSITIES
---------------------------------------------------
CHARGE
  0 Als       :     5.888406  s :     5.888406
      pz      :     2.744943  p :     7.072982
      px      :     2.044957
      py      :     2.283083
      dz2     :     0.011627  d :     0.037049
      dxz     :     0.008334
      dyz     :     0.010710
      dx2y2   :     0.003178
      dxy     :     0.003201
      f0      :     0.000289  f :     0.001407
      f+1     :     0.000229
      f-1     :     0.000302
      f+2     :     0.000202
      f-2     :     0.000200
      f+3     :     0.000093
      f-3     :     0.000092
      g0      :     0.000023  g :     0.000156
      g+1     :     0.000020
      g-1     :     0.000024
      g+2     :     0.000020
      g-2     :     0.000020
      g+3     :     0.000015
      g-3     :     0.000015
      g+4     :     0.000009
      g-4     :     0.000009

SPIN
  0 Als       :     0.025587  s :     0.025587
      pz      :     0.717547  p :     0.956658
      px      :    -0.003005
      py      :     0.242117
      dz2     :     0.005537  d :     0.016947
      dxz     :     0.003694
      dyz     :     0.005225
      dx2y2   :     0.001256
      dxy     :     0.001234
      f0      :     0.000166  f :     0.000744
      f+1     :     0.000124
      f-1     :     0.000177
      f+2     :     0.000107
      f-2     :     0.000105
      f+3     :     0.000033
      f-3     :     0.000033
      g0      :     0.000010  g :     0.000063
      g+1     :     0.000009
      g-1     :     0.000011
      g+2     :     0.000008
      g-2     :     0.000008
      g+3     :     0.000006
      g-3     :     0.000006
      g+4     :     0.000003
      g-4     :     0.000003


                     *******************************
                     * LOEWDIN POPULATION ANALYSIS *
                     *******************************

-----------------------------------------
LOEWDIN ATOMIC CHARGES AND SPIN DENSITIES
-----------------------------------------
   0 Al:   -0.000000    1.000000

--------------------------------------------------
LOEWDIN REDUCED ORBITAL CHARGES AND SPIN DENSITIES
--------------------------------------------------
CHARGE
  0 Als       :     5.888406  s :     5.888406
      pz      :     2.744943  p :     7.072982
      px      :     2.044957
      py      :     2.283083
      dz2     :     0.011627  d :     0.037049
      dxz     :     0.008334
      dyz     :     0.010710
      dx2y2   :     0.003178
      dxy     :     0.003201
      f0      :     0.000289  f :     0.001407
      f+1     :     0.000229
      f-1     :     0.000302
      f+2     :     0.000202
      f-2     :     0.000200
      f+3     :     0.000093
      f-3     :     0.000092
      g0      :     0.000023  g :     0.000156
      g+1     :     0.000020
      g-1     :     0.000024
      g+2     :     0.000020
      g-2     :     0.000020
      g+3     :     0.000015
      g-3     :     0.000015
      g+4     :     0.000009
      g-4     :     0.000009

SPIN
  0 Als       :     0.025587  s :     0.025587
      pz      :     0.717547  p :     0.956658
      px      :    -0.003005
      py      :     0.242117
      dz2     :     0.005537  d :     0.016947
      dxz     :     0.003694
      dyz     :     0.005225
      dx2y2   :     0.001256
      dxy     :     0.001234
      f0      :     0.000166  f :     0.000744
      f+1     :     0.000124
      f-1     :     0.000177
      f+2     :     0.000107
      f-2     :     0.000105
      f+3     :     0.000033
      f-3     :     0.000033
      g0      :     0.000010  g :     0.000063
      g+1     :     0.000009
      g-1     :     0.000011
      g+2     :     0.000008
      g-2     :     0.000008
      g+3     :     0.000006
      g-3     :     0.000006
      g+4     :     0.000003
      g-4     :     0.000003


                      *****************************
                      * MAYER POPULATION ANALYSIS *
                      *****************************

  NA   - Mulliken gross atomic population
  ZA   - Total nuclear charge
  QA   - Mulliken gross atomic charge
  VA   - Mayer's total valence
  BVA  - Mayer's bonded valence
  FA   - Mayer's free valence

  ATOM       NA         ZA         QA         VA         BVA        FA
  0 Al    13.0000    13.0000    -0.0000     1.4910     0.0000     1.4910





------------------------------------------------------------------------------- 
                                     TIMINGS                                   
------------------------------------------------------------------------------- 


Total execution time                   ...       27.056 sec

Fock Matrix Formation                  ...        0.708 sec (  2.6%)
Initial Guess                          ...        0.001 sec (  0.0%)
DIIS Solver                            ...        0.007 sec (  0.0%)
State Vector Update                    ...        0.000 sec (  0.0%)
Sigma-vector construction              ...        4.653 sec ( 17.2%)
  <D|H|D>(2-ext)                       ...        0.002 sec (  0.0% of sigma)
  <D|H|D>(4-ext)                       ...        1.383 sec ( 29.7% of sigma)
  <S|H|0>                              ...        0.006 sec (  0.1% of sigma)
  <D|H|S>(1-ext)                       ...        0.002 sec (  0.0% of sigma)
  Fock-dressing                        ...        3.112 sec ( 66.9% of sigma)
  (ij|ab),(ia|jb)-dressing             ...        0.082 sec (  1.8% of sigma)
Total Time for computing (T)           ...        0.048 sec (  0.2% of ALL)
  I/O of integral and amplitudes       ...        0.016 sec ( 34.1% of (T))
  External N**7 contributions          ...        0.006 sec ( 13.6% of (T))
  Internal N**7 contributions          ...        0.002 sec (  4.1% of (T))
  N**6 triples energy contributions    ...        0.008 sec ( 17.1% of (T))


-------------------------   --------------------
FINAL SINGLE POINT ENERGY      -241.933748141587
-------------------------   --------------------


                            ***************************************
                            *     ORCA property calculations      *
                            ***************************************

                                    ---------------------
                                    Active property flags
                                    ---------------------
   (+) Dipole Moment


------------------------------------------------------------------------------
                       ORCA ELECTRIC PROPERTIES CALCULATION
------------------------------------------------------------------------------

Dipole Moment Calculation                       ... on
Quadrupole Moment Calculation                   ... off
Polarizability Calculation                      ... off
GBWName                                         ... 13_Al.gbw
Electron density file                           ... 13_Al.scfp
The origin for moment calculation is the CENTER OF MASS  = ( 0.000000,  0.000000  0.000000)

-------------
DIPOLE MOMENT
-------------
                                X             Y             Z
Electronic contribution:     -0.00000       0.00000      -0.00000
Nuclear contribution   :      0.00000       0.00000       0.00000
                        -----------------------------------------
Total Dipole Moment    :     -0.00000       0.00000      -0.00000
                        -----------------------------------------
Magnitude (a.u.)       :      0.00000
Magnitude (Debye)      :      0.00000



--------------------
Rotational spectrum 
--------------------
 
Rotational constants in cm-1:     0.000000     0.000000     0.000000 
Rotational constants in MHz :     0.000000     0.000000     0.000000 

 Dipole components along the rotational axes: 
x,y,z [a.u.] :    -0.000000     0.000000    -0.000000 
x,y,z [Debye]:    -0.000000     0.000000    -0.000000 

 

                           *** MDCI DENSITY ***

------------------------------------------------------------------------------
                       ORCA ELECTRIC PROPERTIES CALCULATION
------------------------------------------------------------------------------

Dipole Moment Calculation                       ... on
Quadrupole Moment Calculation                   ... off
Polarizability Calculation                      ... off
GBWName                                         ... 13_Al.gbw
Electron density file                           ... 13_Al.mdcip
The origin for moment calculation is the CENTER OF MASS  = ( 0.000000,  0.000000  0.000000)

-------------
DIPOLE MOMENT
-------------
                                X             Y             Z
Electronic contribution:     -0.00000       0.00000      -0.00000
Nuclear contribution   :      0.00000       0.00000       0.00000
                        -----------------------------------------
Total Dipole Moment    :     -0.00000       0.00000      -0.00000
                        -----------------------------------------
Magnitude (a.u.)       :      0.00000
Magnitude (Debye)      :      0.00000



--------------------
Rotational spectrum 
--------------------
 
Rotational constants in cm-1:     0.000000     0.000000     0.000000 
Rotational constants in MHz :     0.000000     0.000000     0.000000 

 Dipole components along the rotational axes: 
x,y,z [a.u.] :    -0.000000     0.000000    -0.000000 
x,y,z [Debye]:    -0.000000     0.000000    -0.000000 

 

Timings for individual modules:

Sum of individual times         ...       40.376 sec (=   0.673 min)
GTO integral calculation        ...        0.744 sec (=   0.012 min)   1.8 %
SCF iterations                  ...       12.044 sec (=   0.201 min)  29.8 %
MDCI module                     ...       27.589 sec (=   0.460 min)  68.3 %
                             ****ORCA TERMINATED NORMALLY****
TOTAL RUN TIME: 0 days 0 hours 0 minutes 41 seconds 115 msec
