
                                 *****************
                                 * O   R   C   A *
                                 *****************

           --- An Ab Initio, DFT and Semiempirical electronic structure package ---

                  #######################################################
                  #                        -***-                        #
                  #          Department of theory and spectroscopy      #
                  #               Directorship: Frank Neese             #
                  #        Max Planck Institute fuer Kohlenforschung    #
                  #                Kaiser Wilhelm Platz 1               #
                  #                 D-45470 Muelheim/Ruhr               #
                  #                      Germany                        #
                  #                                                     #
                  #                  All rights reserved                #
                  #                        -***-                        #
                  #######################################################


                         Program Version 4.2.0 -  RELEASE  -


 With contributions from (in alphabetic order):
   Daniel Aravena         : Magnetic Suceptibility
   Michael Atanasov       : Ab Initio Ligand Field Theory (pilot matlab implementation)
   Alexander A. Auer      : GIAO ZORA, VPT2
   Ute Becker             : Parallelization
   Giovanni Bistoni       : ED, misc. LED, open-shell LED, HFLED
   Martin Brehm           : Molecular dynamics
   Dmytro Bykov           : SCF Hessian
   Vijay G. Chilkuri      : MRCI spin determinant printing, contributions to CSF-ICE
   Dipayan Datta          : RHF DLPNO-CCSD density
   Achintya Kumar Dutta   : EOM-CC, STEOM-CC
   Dmitry Ganyushin       : Spin-Orbit,Spin-Spin,Magnetic field MRCI
   Miquel Garcia          : C-PCM Hessian, Gaussian charge scheme
   Yang Guo               : DLPNO-NEVPT2, CIM, IAO-localization
   Andreas Hansen         : Spin unrestricted coupled pair/coupled cluster methods
   Benjamin Helmich-Paris : CASSCF linear response (MC-RPA)
   Lee Huntington         : MR-EOM, pCC
   Robert Izsak           : Overlap fitted RIJCOSX, COSX-SCS-MP3, EOM
   Christian Kollmar      : KDIIS, OOCD, Brueckner-CCSD(T), CCSD density
   Simone Kossmann        : Meta GGA functionals, TD-DFT gradient, OOMP2, MP2 Hessian
   Martin Krupicka        : AUTO-CI
   Lucas Lang             : DCDCAS
   Dagmar Lenk            : GEPOL surface, SMD
   Dimitrios Liakos       : Extrapolation schemes; Compound Job, initial MDCI parallelization
   Dimitrios Manganas     : Further ROCIS development; embedding schemes
   Dimitrios Pantazis     : SARC Basis sets
   Taras Petrenko         : DFT Hessian,TD-DFT gradient, ASA, ECA, R-Raman, ABS, FL, XAS/XES, NRVS
   Peter Pinski           : DLPNO-MP2, DLPNO-MP2 Gradient
   Christoph Reimann      : Effective Core Potentials
   Marius Retegan         : Local ZFS, SOC
   Christoph Riplinger    : Optimizer, TS searches, QM/MM, DLPNO-CCSD(T), (RO)-DLPNO pert. Triples
   Tobias Risthaus        : Range-separated hybrids, TD-DFT gradient, RPA, STAB
   Michael Roemelt        : Original ROCIS implementation
   Masaaki Saitow         : Open-shell DLPNO-CCSD energy and density
   Barbara Sandhoefer     : DKH picture change effects
   Avijit Sen             : IP-ROCIS
   Kantharuban Sivalingam : CASSCF convergence, NEVPT2, FIC-MRCI
   Bernardo de Souza      : ESD, SOC TD-DFT
   Georgi Stoychev        : AutoAux, RI-MP2 NMR
   Willem Van den Heuvel  : Paramagnetic NMR
   Boris Wezisla          : Elementary symmetry handling
   Frank Wennmohs         : Technical directorship


 We gratefully acknowledge several colleagues who have allowed us to
 interface, adapt or use parts of their codes:
   Stefan Grimme, W. Hujo, H. Kruse,             : VdW corrections, initial TS optimization,
                  C. Bannwarth                     DFT functionals, gCP, sTDA/sTD-DF
   Ed Valeev, F. Pavosevic, A. Kumar             : LibInt (2-el integral package), F12 methods
   Garnet Chan, S. Sharma, J. Yang, R. Olivares  : DMRG
   Ulf Ekstrom                                   : XCFun DFT Library
   Mihaly Kallay                                 : mrcc  (arbitrary order and MRCC methods)
   Andreas Klamt, Michael Diedenhofen            : otool_cosmo (COSMO solvation model)
   Jiri Pittner, Ondrej Demel                    : Mk-CCSD
   Frank Weinhold                                : gennbo (NPA and NBO analysis)
   Christopher J. Cramer and Donald G. Truhlar   : smd solvation model
   Lars Goerigk                                  : TD-DFT with DH, B97 family of functionals
   V. Asgeirsson, H. Jonsson                     : NEB implementation
   FAccTs GmbH                                   : IRC, NEB, NEB-TS, Multilevel, MM, QM/MM, CI optimization
   S Lehtola, MJT Oliveira, MAL Marques          : LibXC Library


 Your calculation uses the libint2 library for the computation of 2-el integrals
 For citations please refer to: http://libint.valeyev.net

 Your ORCA version has been built with support for libXC version: 4.2.3
 For citations please refer to: https://tddft.org/programs/libxc/

 This ORCA versions uses:
   CBLAS   interface :  Fast vector & matrix operations
   LAPACKE interface :  Fast linear algebra routines
   SCALAPACK package :  Parallel linear algebra routines


----- Orbital basis set information -----
Your calculation utilizes the basis: aug-cc-pVQZ 
    H, B-Ne : Obtained from the ccRepo (grant-hill.group.shef.ac.uk/ccrepo) Feb. 2017
              R. A. Kendall, T. H. Dunning, Jr., R. J. Harrison, J. Chem. Phys. 96, 6796 (1992)
         He : Obtained from the ccRepo (grant-hill.group.shef.ac.uk/ccrepo) Feb. 2017
              D. E. Woon, T. H. Dunning, Jr., J. Chem. Phys. 100, 2975 (1994)
  Li-Be, Na : Obtained from the ccRepo (grant-hill.group.shef.ac.uk/ccrepo) Feb. 2017
              B. P. Prascher, D. E. Woon, K. A. Peterson, T. H. Dunning, Jr., A. K. Wilson, Theor. Chem. Acc. 128, 69 (2011)
         Mg : Obtained from the Peterson Research Group Website (tyr0.chem.wsu.edu/~kipeters) Feb. 2017
              B. P. Prascher, D. E. Woon, K. A. Peterson, T. H. Dunning, Jr., A. K. Wilson, Theor. Chem. Acc. 128, 69 (2011)
      Al-Ar : Obtained from the ccRepo (grant-hill.group.shef.ac.uk/ccrepo) Feb. 2017
              D. E. Woon, T. H. Dunning, Jr., J. Chem. Phys. 98, 1358 (1993)
      Sc-Zn : Obtained from the ccRepo (grant-hill.group.shef.ac.uk/ccrepo) Feb. 2017
              N. B. Balabanov, K. A. Peterson, J. Chem. Phys. 123, 064107 (2005)
              N. B. Balabanov, K. A. Peterson, J. Chem. Phys. 125, 074110 (2006)
      Ga-Kr : Obtained from the ccRepo (grant-hill.group.shef.ac.uk/ccrepo) Feb. 2017
              A. K. Wilson, D. E. Woon, K. A. Peterson, T. H. Dunning, Jr., J. Chem. Phys. 110, 7667 (1999)

================================================================================
                                        WARNINGS
                       Please study these warnings very carefully!
================================================================================


WARNING: your system is open-shell and RHF/RKS was chosen
  ===> : WILL SWITCH to UHF/UKS


WARNING: MDCI localization with Augmented Hessian Foster-Boys
  ===> : Switching off randomization!

WARNING: Post HF methods need fully converged wavefunctions
  ===> : Setting SCFConvForced true
         You can overwrite this default with %scf ConvForced false 


INFO   : the flag for use of LIBINT has been found!

================================================================================
                                       INPUT FILE
================================================================================
NAME = 14_Si.in
|  1> #
|  2> # 14_Si CCSD(T)/aug-cc-pVQZ
|  3> #
|  4> ! CCSD(T) aug-cc-pVQZ tightscf
|  5> 
|  6> *xyz 0 3
|  7>  Si 0.0 0.0 0.0
|  8> *
|  9> 
| 10> %maxcore 5000 
| 11> 
| 12> %pal
| 13> nprocs 6
| 14> end
| 15> 
| 16> 
| 17>                          ****END OF INPUT****
================================================================================

                       ****************************
                       * Single Point Calculation *
                       ****************************

---------------------------------
CARTESIAN COORDINATES (ANGSTROEM)
---------------------------------
  Si     0.000000    0.000000    0.000000

----------------------------
CARTESIAN COORDINATES (A.U.)
----------------------------
  NO LB      ZA    FRAG     MASS         X           Y           Z
   0 Si   14.0000    0    28.086    0.000000    0.000000    0.000000

--------------------------------
INTERNAL COORDINATES (ANGSTROEM)
--------------------------------
 Si     0   0   0     0.000000000000     0.00000000     0.00000000

---------------------------
INTERNAL COORDINATES (A.U.)
---------------------------
 Si     0   0   0     0.000000000000     0.00000000     0.00000000

---------------------
BASIS SET INFORMATION
---------------------
There are 1 groups of distinct atoms

 Group   1 Type Si  : 43s20p4d3f2g contracted to 7s6p4d3f2g pattern {1313131111/881111/1111/111/11}

Atom   0Si   basis set group =>   1


           ************************************************************
           *        Program running with 6 parallel MPI-processes     *
           *              working on a common directory               *
           ************************************************************
------------------------------------------------------------------------------
                           ORCA GTO INTEGRAL CALCULATION
------------------------------------------------------------------------------

                         BASIS SET STATISTICS AND STARTUP INFO

 # of primitive gaussian shells          ...   72
 # of primitive gaussian functions       ...  162
 # of contracted shells                  ...   22
 # of contracted basis functions         ...   84
 Highest angular momentum                ...    4
 Maximum contraction depth               ...   13
 Integral package used                   ... LIBINT
 Integral threshhold            Thresh   ...  2.500e-11
 Primitive cut-off              TCut     ...  2.500e-12


------------------------------ INTEGRAL EVALUATION ----------------------------


 * One electron integrals 
 Pre-screening matrix                    ... done
 Shell pair data                         ... done (   0.000 sec)



           ************************************************************
           *        Program running with 6 parallel MPI-processes     *
           *              working on a common directory               *
           ************************************************************
-------------------------------------------------------------------------------
                                 ORCA SCF
-------------------------------------------------------------------------------

------------
SCF SETTINGS
------------
Hamiltonian:
 Ab initio Hamiltonian  Method          .... Hartree-Fock(GTOs)


General Settings:
 Integral files         IntName         .... 14_Si
 Hartree-Fock type      HFTyp           .... UHF
 Total Charge           Charge          ....    0
 Multiplicity           Mult            ....    3
 Number of Electrons    NEL             ....   14
 Basis Dimension        Dim             ....   84
 Nuclear Repulsion      ENuc            ....      0.0000000000 Eh

Convergence Acceleration:
 DIIS                   CNVDIIS         .... on
   Start iteration      DIISMaxIt       ....    12
   Startup error        DIISStart       ....  0.200000
   # of expansion vecs  DIISMaxEq       ....     5
   Bias factor          DIISBfac        ....   1.050
   Max. coefficient     DIISMaxC        ....  10.000
 Newton-Raphson         CNVNR           .... off
 SOSCF                  CNVSOSCF        .... off
 Level Shifting         CNVShift        .... on
   Level shift para.    LevelShift      ....    0.2500
   Turn off err/grad.   ShiftErr        ....    0.0010
 Zerner damping         CNVZerner       .... off
 Static damping         CNVDamp         .... on
   Fraction old density DampFac         ....    0.7000
   Max. Damping (<1)    DampMax         ....    0.9800
   Min. Damping (>=0)   DampMin         ....    0.0000
   Turn off err/grad.   DampErr         ....    0.1000
 Fernandez-Rico         CNVRico         .... off

SCF Procedure:
 Maximum # iterations   MaxIter         ....   125
 SCF integral mode      SCFMode         .... Direct
   Integral package                     .... LIBINT
 Reset frequency        DirectResetFreq ....    20
 Integral Threshold     Thresh          ....  2.500e-11 Eh
 Primitive CutOff       TCut            ....  2.500e-12 Eh

Convergence Tolerance:
 Convergence Check Mode ConvCheckMode   .... Total+1el-Energy
 Convergence forced     ConvForced      .... 1
 Energy Change          TolE            ....  1.000e-08 Eh
 1-El. energy change                    ....  1.000e-05 Eh
 DIIS Error             TolErr          ....  5.000e-07


Diagonalization of the overlap matrix:
Smallest eigenvalue                        ... 4.767e-04
Time for diagonalization                   ...    0.003 sec
Threshold for overlap eigenvalues          ... 1.000e-08
Number of eigenvalues below threshold      ... 0
Time for construction of square roots      ...    0.007 sec
Total time needed                          ...    0.010 sec

-------------------
DFT GRID GENERATION
-------------------

General Integration Accuracy     IntAcc      ...  4.340
Radial Grid Type                 RadialGrid  ... Gauss-Chebyshev
Angular Grid (max. acc.)         AngularGrid ... Lebedev-110
Angular grid pruning method      GridPruning ... 3 (G Style)
Weight generation scheme         WeightScheme... Becke
Basis function cutoff            BFCut       ...    1.0000e-11
Integration weight cutoff        WCut        ...    1.0000e-14
Grids for H and He will be reduced by one unit

# of grid points (after initial pruning)     ...   1866 (   0.0 sec)
# of grid points (after weights+screening)   ...   1866 (   0.0 sec)
Grid point division into batches done        ...    0.0 sec
Reduced shell lists constructed in    0.0 sec

Total number of grid points                  ...     1866
Total number of batches                      ...       30
Average number of points per batch           ...       62
Average number of grid points per atom       ...     1866
Average number of shells per batch           ...    14.17 (64.39%)
Average number of basis functions per batch  ...    62.50 (74.40%)
Average number of large shells per batch     ...    12.67 (89.41%)
Average number of large basis fcns per batch ...    53.67 (85.87%)
Maximum spatial batch extension              ...  19.45, 35.80, 35.80 au
Average spatial batch extension              ...   2.82,  4.19,  5.45 au

Time for grid setup =    0.022 sec

------------------------------
INITIAL GUESS: MODEL POTENTIAL
------------------------------
Loading Hartree-Fock densities                     ... done
Calculating cut-offs                               ... done
Setting up the integral package                    ... done
Initializing the effective Hamiltonian             ... done
Starting the Coulomb interaction                   ... done (   0.0 sec)
Reading the grid                                   ... done
Mapping shells                                     ... done
Starting the XC term evaluation                    ... done (   0.0 sec)
Transforming the Hamiltonian                       ... done (   0.0 sec)
Diagonalizing the Hamiltonian                      ... done (   0.0 sec)
Back transforming the eigenvectors                 ... done (   0.0 sec)
Now organizing SCF variables                       ... done
                      ------------------
                      INITIAL GUESS DONE (   0.1 sec)
                      ------------------
--------------
SCF ITERATIONS
--------------
ITER       Energy         Delta-E        Max-DP      RMS-DP      [F,P]     Damp
               ***  Starting incremental Fock matrix formation  ***
  0   -288.8408474943   0.000000000000 0.13885297  0.00304504  0.0948185 0.7000
  1   -288.8454798648  -0.004632370459 0.09895739  0.00216692  0.0657534 0.7000
                               ***Turning on DIIS***
  2   -288.8489174008  -0.003437535963 0.22827680  0.00499633  0.0448565 0.0000
  3   -288.8578371556  -0.008919754805 0.00855959  0.00028081  0.0056320 0.0000
  4   -288.8622648460  -0.004427690408 0.00457450  0.00010496  0.0019704 0.0000
  5   -288.8578941807   0.004370665231 0.00274472  0.00006465  0.0011409 0.0000
  6   -288.8569607570   0.000933423735 0.00147231  0.00003627  0.0005882 0.0000
  7   -288.8581236829  -0.001162925935 0.00024390  0.00000717  0.0000939 0.0000
  8   -288.8584229866  -0.000299303623 0.00013746  0.00000269  0.0000224 0.0000
  9   -288.8584148762   0.000008110342 0.00005216  0.00000085  0.0000066 0.0000
 10   -288.8584259676  -0.000011091432 0.00000891  0.00000018  0.0000016 0.0000
                            ***DIIS convergence achieved***

               *****************************************************
               *                     SUCCESS                       *
               *           SCF CONVERGED AFTER  11 CYCLES          *
               *****************************************************


----------------
TOTAL SCF ENERGY
----------------

Total Energy       :         -288.85843143 Eh           -7860.23753 eV

Components:
Nuclear Repulsion  :            0.00000000 Eh               0.00000 eV
Electronic Energy  :         -288.85843143 Eh           -7860.23753 eV
One Electron Energy:         -400.56816133 Eh          -10900.01382 eV
Two Electron Energy:          111.70972990 Eh            3039.77629 eV

Virial components:
Potential Energy   :         -577.71485084 Eh          -15720.42030 eV
Kinetic Energy     :          288.85641941 Eh            7860.18278 eV
Virial Ratio       :            2.00000697


---------------
SCF CONVERGENCE
---------------

  Last Energy change         ...   -5.4611e-06  Tolerance :   1.0000e-08
  Last MAX-Density change    ...    1.0299e-06  Tolerance :   1.0000e-07
  Last RMS-Density change    ...    3.1459e-08  Tolerance :   5.0000e-09
  Last DIIS Error            ...    2.3004e-07  Tolerance :   5.0000e-07

             **** THE GBW FILE WAS UPDATED (14_Si.gbw) ****
             **** DENSITY FILE WAS UPDATED (14_Si.scfp) ****
             **** ENERGY FILE WAS UPDATED (14_Si.en.tmp) ****
----------------------
UHF SPIN CONTAMINATION
----------------------

Expectation value of <S**2>     :     2.015419
Ideal value S*(S+1) for S=1.0   :     2.000000
Deviation                       :     0.015419

             **** THE GBW FILE WAS UPDATED (14_Si.gbw) ****
             **** DENSITY FILE WAS UPDATED (14_Si.scfp) ****
----------------
ORBITAL ENERGIES
----------------
                 SPIN UP ORBITALS
  NO   OCC          E(Eh)            E(eV) 
   0   1.0000     -68.815806     -1872.5733 
   1   1.0000      -6.160877      -167.6460 
   2   1.0000      -4.268210      -116.1439 
   3   1.0000      -4.268210      -116.1439 
   4   1.0000      -4.258444      -115.8782 
   5   1.0000      -0.619878       -16.8677 
   6   1.0000      -0.301334        -8.1997 
   7   1.0000      -0.301334        -8.1997 
   8   0.0000      -0.010179        -0.2770 
   9   0.0000       0.051740         1.4079 
  10   0.0000       0.054084         1.4717 
  11   0.0000       0.054084         1.4717 
  12   0.0000       0.062423         1.6986 
  13   0.0000       0.122419         3.3312 
  14   0.0000       0.122419         3.3312 
  15   0.0000       0.122926         3.3450 
  16   0.0000       0.122926         3.3450 
  17   0.0000       0.123378         3.3573 
  18   0.0000       0.273534         7.4432 
  19   0.0000       0.273534         7.4432 
  20   0.0000       0.291026         7.9192 
  21   0.0000       0.313467         8.5299 
  22   0.0000       0.333099         9.0641 
  23   0.0000       0.333099         9.0641 
  24   0.0000       0.333271         9.0688 
  25   0.0000       0.333792         9.0829 
  26   0.0000       0.333792         9.0829 
  27   0.0000       0.336413         9.1543 
  28   0.0000       0.336413         9.1543 
  29   0.0000       0.341371         9.2892 
  30   0.0000       0.341371         9.2892 
  31   0.0000       0.346244         9.4218 
  32   0.0000       0.346244         9.4218 
  33   0.0000       0.351985         9.5780 
  34   0.0000       0.915655        24.9162 
  35   0.0000       0.915655        24.9162 
  36   0.0000       0.915855        24.9217 
  37   0.0000       0.915855        24.9217 
  38   0.0000       0.916253        24.9325 
  39   0.0000       0.946020        25.7425 
  40   0.0000       0.947447        25.7814 
  41   0.0000       0.947447        25.7814 
  42   0.0000       0.951590        25.8941 
  43   0.0000       0.951590        25.8941 
  44   0.0000       0.957722        26.0610 
  45   0.0000       0.957722        26.0610 
  46   0.0000       1.020318        27.7643 
  47   0.0000       1.021517        27.7969 
  48   0.0000       1.021517        27.7969 
  49   0.0000       1.025139        27.8954 
  50   0.0000       1.025139        27.8954 
  51   0.0000       1.031263        28.0621 
  52   0.0000       1.031263        28.0621 
  53   0.0000       1.040048        28.3011 
  54   0.0000       1.040048        28.3011 
  55   0.0000       1.056953        28.7611 
  56   0.0000       1.056953        28.7611 
  57   0.0000       1.064272        28.9603 
  58   0.0000       1.252997        34.0958 
  59   0.0000       2.275778        61.9271 
  60   0.0000       2.280645        62.0595 
  61   0.0000       2.280645        62.0595 
  62   0.0000       2.295658        62.4680 
  63   0.0000       2.295658        62.4680 
  64   0.0000       2.374770        64.6208 
  65   0.0000       2.376973        64.6807 
  66   0.0000       2.376973        64.6807 
  67   0.0000       2.383611        64.8613 
  68   0.0000       2.383611        64.8613 
  69   0.0000       2.394731        65.1640 
  70   0.0000       2.394731        65.1640 
  71   0.0000       2.650607        72.1267 
  72   0.0000       2.652330        72.1736 
  73   0.0000       2.652330        72.1736 
  74   0.0000       2.657523        72.3149 
  75   0.0000       2.657523        72.3149 
  76   0.0000       2.666261        72.5527 
  77   0.0000       2.666261        72.5527 
  78   0.0000       2.678664        72.8901 
  79   0.0000       2.678664        72.8901 
  80   0.0000       5.151540       140.1805 
  81   0.0000       5.167599       140.6175 
  82   0.0000       5.167599       140.6175 
  83   0.0000       9.016092       245.3403 

                 SPIN DOWN ORBITALS
  NO   OCC          E(Eh)            E(eV) 
   0   1.0000     -68.806913     -1872.3313 
   1   1.0000      -6.149839      -167.3456 
   2   1.0000      -4.253881      -115.7540 
   3   1.0000      -4.240537      -115.3909 
   4   1.0000      -4.240537      -115.3909 
   5   1.0000      -0.462901       -12.5962 
   6   0.0000       0.005127         0.1395 
   7   0.0000       0.031554         0.8586 
   8   0.0000       0.031554         0.8586 
   9   0.0000       0.058794         1.5999 
  10   0.0000       0.067538         1.8378 
  11   0.0000       0.091140         2.4800 
  12   0.0000       0.091140         2.4800 
  13   0.0000       0.129474         3.5232 
  14   0.0000       0.131482         3.5778 
  15   0.0000       0.131482         3.5778 
  16   0.0000       0.139091         3.7849 
  17   0.0000       0.139091         3.7849 
  18   0.0000       0.298842         8.1319 
  19   0.0000       0.327271         8.9055 
  20   0.0000       0.327271         8.9055 
  21   0.0000       0.336464         9.1557 
  22   0.0000       0.338684         9.2161 
  23   0.0000       0.340629         9.2690 
  24   0.0000       0.340629         9.2690 
  25   0.0000       0.344793         9.3823 
  26   0.0000       0.344793         9.3823 
  27   0.0000       0.353624         9.6226 
  28   0.0000       0.353624         9.6226 
  29   0.0000       0.380958        10.3664 
  30   0.0000       0.386975        10.5301 
  31   0.0000       0.386975        10.5301 
  32   0.0000       0.411711        11.2032 
  33   0.0000       0.411711        11.2032 
  34   0.0000       0.941463        25.6185 
  35   0.0000       0.950320        25.8595 
  36   0.0000       0.950320        25.8595 
  37   0.0000       0.966452        26.2985 
  38   0.0000       0.970967        26.4214 
  39   0.0000       0.970967        26.4214 
  40   0.0000       0.981603        26.7108 
  41   0.0000       0.981603        26.7108 
  42   0.0000       0.983839        26.7716 
  43   0.0000       0.983839        26.7716 
  44   0.0000       1.005802        27.3693 
  45   0.0000       1.005802        27.3693 
  46   0.0000       1.030990        28.0547 
  47   0.0000       1.032947        28.1079 
  48   0.0000       1.032947        28.1079 
  49   0.0000       1.038882        28.2694 
  50   0.0000       1.038882        28.2694 
  51   0.0000       1.048991        28.5445 
  52   0.0000       1.048991        28.5445 
  53   0.0000       1.063675        28.9441 
  54   0.0000       1.063675        28.9441 
  55   0.0000       1.073521        29.2120 
  56   0.0000       1.110921        30.2297 
  57   0.0000       1.110921        30.2297 
  58   0.0000       1.280861        34.8540 
  59   0.0000       2.286605        62.2217 
  60   0.0000       2.294892        62.4472 
  61   0.0000       2.294892        62.4472 
  62   0.0000       2.322517        63.1989 
  63   0.0000       2.322517        63.1989 
  64   0.0000       2.393130        65.1204 
  65   0.0000       2.398119        65.2561 
  66   0.0000       2.398119        65.2561 
  67   0.0000       2.413290        65.6690 
  68   0.0000       2.413290        65.6690 
  69   0.0000       2.439479        66.3816 
  70   0.0000       2.439479        66.3816 
  71   0.0000       2.666961        72.5717 
  72   0.0000       2.669966        72.6535 
  73   0.0000       2.669966        72.6535 
  74   0.0000       2.679060        72.9009 
  75   0.0000       2.679060        72.9009 
  76   0.0000       2.694481        73.3206 
  77   0.0000       2.694481        73.3206 
  78   0.0000       2.716703        73.9252 
  79   0.0000       2.716703        73.9252 
  80   0.0000       5.157617       140.3459 
  81   0.0000       5.194452       141.3482 
  82   0.0000       5.194452       141.3482 
  83   0.0000       9.030001       245.7188 

                    ********************************
                    * MULLIKEN POPULATION ANALYSIS *
                    ********************************

--------------------------------------------
MULLIKEN ATOMIC CHARGES AND SPIN POPULATIONS
--------------------------------------------
   0 Si:   -0.000000    2.000000
Sum of atomic charges         :   -0.0000000
Sum of atomic spin populations:    2.0000000

-----------------------------------------------------
MULLIKEN REDUCED ORBITAL CHARGES AND SPIN POPULATIONS
-----------------------------------------------------
CHARGE
  0 Sis       :     5.992342  s :     5.992342
      pz      :     2.999756  p :     7.999946
      px      :     2.578150
      py      :     2.422040
      dz2     :     0.001912  d :     0.007657
      dxz     :     0.000002
      dyz     :     0.000003
      dx2y2   :     0.000140
      dxy     :     0.005600
      f0      :     0.000010  f :     0.000054
      f+1     :     0.000001
      f-1     :     0.000001
      f+2     :     0.000000
      f-2     :     0.000016
      f+3     :     0.000007
      f-3     :     0.000018
      g0      :     0.000000  g :     0.000001
      g+1     :     0.000000
      g-1     :     0.000000
      g+2     :     0.000000
      g-2     :     0.000000
      g+3     :     0.000000
      g-3     :     0.000000
      g+4     :     0.000000
      g-4     :     0.000000

SPIN
  0 Sis       :    -0.000195  s :    -0.000195
      pz      :     0.999757  p :     1.999949
      px      :     0.578151
      py      :     0.422041
      dz2     :     0.000049  d :     0.000196
      dxz     :     0.000000
      dyz     :     0.000000
      dx2y2   :     0.000004
      dxy     :     0.000144
      f0      :     0.000010  f :     0.000051
      f+1     :     0.000001
      f-1     :     0.000001
      f+2     :     0.000000
      f-2     :     0.000016
      f+3     :     0.000006
      f-3     :     0.000017
      g0      :    -0.000000  g :    -0.000001
      g+1     :    -0.000000
      g-1     :    -0.000000
      g+2     :    -0.000000
      g-2     :    -0.000000
      g+3     :    -0.000000
      g-3     :    -0.000000
      g+4     :    -0.000000
      g-4     :    -0.000000


                     *******************************
                     * LOEWDIN POPULATION ANALYSIS *
                     *******************************

-------------------------------------------
LOEWDIN ATOMIC CHARGES AND SPIN POPULATIONS
-------------------------------------------
   0 Si:   -0.000000    2.000000

----------------------------------------------------
LOEWDIN REDUCED ORBITAL CHARGES AND SPIN POPULATIONS
----------------------------------------------------
CHARGE
  0 Sis       :     5.992342  s :     5.992342
      pz      :     2.999756  p :     7.999946
      px      :     2.578150
      py      :     2.422040
      dz2     :     0.001912  d :     0.007657
      dxz     :     0.000002
      dyz     :     0.000003
      dx2y2   :     0.000140
      dxy     :     0.005600
      f0      :     0.000010  f :     0.000054
      f+1     :     0.000001
      f-1     :     0.000001
      f+2     :     0.000000
      f-2     :     0.000016
      f+3     :     0.000007
      f-3     :     0.000018
      g0      :     0.000000  g :     0.000001
      g+1     :     0.000000
      g-1     :     0.000000
      g+2     :     0.000000
      g-2     :     0.000000
      g+3     :     0.000000
      g-3     :     0.000000
      g+4     :     0.000000
      g-4     :     0.000000

SPIN
  0 Sis       :    -0.000195  s :    -0.000195
      pz      :     0.999757  p :     1.999949
      px      :     0.578151
      py      :     0.422041
      dz2     :     0.000049  d :     0.000196
      dxz     :     0.000000
      dyz     :     0.000000
      dx2y2   :     0.000004
      dxy     :     0.000144
      f0      :     0.000010  f :     0.000051
      f+1     :     0.000001
      f-1     :     0.000001
      f+2     :     0.000000
      f-2     :     0.000016
      f+3     :     0.000006
      f-3     :     0.000017
      g0      :    -0.000000  g :    -0.000001
      g+1     :    -0.000000
      g-1     :    -0.000000
      g+2     :    -0.000000
      g-2     :    -0.000000
      g+3     :    -0.000000
      g-3     :    -0.000000
      g+4     :    -0.000000
      g-4     :    -0.000000


                      *****************************
                      * MAYER POPULATION ANALYSIS *
                      *****************************

  NA   - Mulliken gross atomic population
  ZA   - Total nuclear charge
  QA   - Mulliken gross atomic charge
  VA   - Mayer's total valence
  BVA  - Mayer's bonded valence
  FA   - Mayer's free valence

  ATOM       NA         ZA         QA         VA         BVA        FA
  0 Si    14.0000    14.0000    -0.0000     2.0308     0.0000     2.0308

  Mayer bond orders larger than 0.100000


-------
TIMINGS
-------

Total SCF time: 0 days 0 hours 0 min 16 sec 

Total time                  ....      16.728 sec
Sum of individual times     ....      14.990 sec  ( 89.6%)

Fock matrix formation       ....       4.721 sec  ( 28.2%)
Diagonalization             ....       0.039 sec  (  0.2%)
Density matrix formation    ....       0.004 sec  (  0.0%)
Population analysis         ....       0.026 sec  (  0.2%)
Initial guess               ....       0.127 sec  (  0.8%)
Orbital Transformation      ....       0.000 sec  (  0.0%)
Orbital Orthonormalization  ....       0.000 sec  (  0.0%)
DIIS solution               ....      10.052 sec  ( 60.1%)


           ************************************************************
           *        Program running with 6 parallel MPI-processes     *
           *              working on a common directory               *
           ************************************************************


------------------------------------------------------------------------------- 
                              ORCA-MATRIX DRIVEN CI                            
------------------------------------------------------------------------------- 

--------------------------------
AUTOMATIC CHOICE OF INCORE LEVEL
--------------------------------

Memory available                           ...   2500.00 MB
Memory needed for S+T                      ...      0.79 MB
Memory needed for J+K                      ...      1.59 MB
Memory needed for DIIS                     ...     11.10 MB
Memory needed for 3-ext                    ...     10.05 MB
Memory needed for 4-ext                    ...    128.94 MB
Memory needed for triples                  ...     16.75 MB
 -> Final InCoreLevel    ... 5
 -> check shows that triples correction can be computed


Wavefunction type
-----------------
Correlation treatment                      ...      CCSD     
Single excitations                         ... ON
Orbital optimization                       ... OFF
Calculation of Z vector                    ... OFF
Calculation of Brueckner orbitals          ... OFF
Perturbative triple excitations            ... ON
Calculation of F12 correction              ... OFF
Frozen core treatment                      ... chemical core (10 el)
Reference Wavefunction                     ... UHF
  Alpha-MOs occ    :     5 ...    7 (  3 MO's/  3 electrons)
  Beta-MOs occ     :     5 ...    5 (  1 MO's/  1 electrons)
  Alpha-MOs virt   :     8 ...   83 ( 76 MO's              )
  Beta-MOs virt    :     6 ...   83 ( 78 MO's              )
Number of AO's                             ...     84
Number of electrons                        ...     14
Number of correlated electrons             ...      4

Algorithmic settings
--------------------
Integral transformation                    ... AO direct full transformation
K(C) Formation                             ... FULL-MO TRAFO
Maximum number of iterations               ...        50
Convergence tolerance (max. residuum)      ... 1.000e-05
Level shift for amplitude update           ... 2.000e-01
Maximum number of DIIS vectors             ...         7
DIIS turned on at iteration                ...         0
Damping before turning on DIIS             ...     0.500
Damping after turning on DIIS              ...     0.000
Pair specific amplitude update             ... OFF
Natural orbital iterations                 ... OFF
Perturbative natural orbital generation    ... OFF
Printlevel                                 ... 2

Memory handling:
----------------
Maximum memory for working arrays          ...   2500 MB
Data storage in matrix containers          ... UNCOMPRESSED
Data type for integral storage             ... DOUBLE
In-Core Storage of quantities:
   Amplitudes+Sigma Vector      ... YES
   J+K operators                ... YES
   DIIS vectors                 ... YES
   3-external integrals         ... YES
   4-external integrals         ... YES


Initializing the integral package          ... done
Warning: reference  - re-canonicalizations have been set to INT 1 VIRT 1

--------------------------
UNRESTRICTED FOCK OPERATOR
--------------------------

<ss|ss>:          406 b            0 skpd (  0.0%)    0.006 s ( 0.016 ms/b)
<ss|sp>:         1176 b            0 skpd (  0.0%)    0.026 s ( 0.022 ms/b)
<ss|sd>:          784 b            0 skpd (  0.0%)    0.004 s ( 0.005 ms/b)
<ss|sf>:          588 b            0 skpd (  0.0%)    0.004 s ( 0.007 ms/b)
<ss|sg>:          392 b            0 skpd (  0.0%)    0.003 s ( 0.009 ms/b)
<ss|pp>:          588 b            0 skpd (  0.0%)    0.013 s ( 0.022 ms/b)
<ss|pd>:          672 b            0 skpd (  0.0%)    0.003 s ( 0.004 ms/b)
<ss|pf>:          504 b            0 skpd (  0.0%)    0.004 s ( 0.008 ms/b)
<ss|pg>:          336 b            0 skpd (  0.0%)    0.004 s ( 0.011 ms/b)
<ss|dd>:          280 b            0 skpd (  0.0%)    0.001 s ( 0.002 ms/b)
<ss|df>:          336 b            0 skpd (  0.0%)    0.001 s ( 0.003 ms/b)
<ss|dg>:          224 b            0 skpd (  0.0%)    0.001 s ( 0.006 ms/b)
<ss|ff>:          168 b            0 skpd (  0.0%)    0.001 s ( 0.004 ms/b)
<ss|fg>:          168 b            0 skpd (  0.0%)    0.001 s ( 0.006 ms/b)
<ss|gg>:           84 b            0 skpd (  0.0%)    0.001 s ( 0.017 ms/b)
<sp|sp>:          903 b            0 skpd (  0.0%)    0.014 s ( 0.015 ms/b)
<sp|sd>:         1176 b            0 skpd (  0.0%)    0.005 s ( 0.004 ms/b)
<sp|sf>:          882 b            0 skpd (  0.0%)    0.005 s ( 0.006 ms/b)
<sp|sg>:          588 b            0 skpd (  0.0%)    0.005 s ( 0.008 ms/b)
<sp|pp>:          882 b            0 skpd (  0.0%)    0.012 s ( 0.014 ms/b)
<sp|pd>:         1008 b            0 skpd (  0.0%)    0.004 s ( 0.004 ms/b)
<sp|pf>:          756 b            0 skpd (  0.0%)    0.007 s ( 0.009 ms/b)
<sp|pg>:          504 b            0 skpd (  0.0%)    0.005 s ( 0.010 ms/b)
<sp|dd>:          420 b            0 skpd (  0.0%)    0.001 s ( 0.003 ms/b)
<sp|df>:          504 b            0 skpd (  0.0%)    0.002 s ( 0.003 ms/b)
<sp|dg>:          336 b            0 skpd (  0.0%)    0.002 s ( 0.007 ms/b)
<sp|ff>:          252 b            0 skpd (  0.0%)    0.001 s ( 0.005 ms/b)
<sp|fg>:          252 b            0 skpd (  0.0%)    0.002 s ( 0.007 ms/b)
<sp|gg>:          126 b            0 skpd (  0.0%)    0.003 s ( 0.020 ms/b)
<sd|sd>:          406 b            0 skpd (  0.0%)    0.001 s ( 0.003 ms/b)
<sd|sf>:          588 b            2 skpd (  0.3%)    0.002 s ( 0.004 ms/b)
<sd|sg>:          392 b            2 skpd (  0.5%)    0.002 s ( 0.005 ms/b)
<sd|pp>:          588 b            0 skpd (  0.0%)    0.005 s ( 0.008 ms/b)
<sd|pd>:          672 b            5 skpd (  0.7%)    0.002 s ( 0.003 ms/b)
<sd|pf>:          504 b            4 skpd (  0.8%)    0.003 s ( 0.006 ms/b)
<sd|pg>:          336 b           14 skpd (  4.2%)    0.003 s ( 0.009 ms/b)
<sd|dd>:          280 b            0 skpd (  0.0%)    0.001 s ( 0.003 ms/b)
<sd|df>:          336 b            3 skpd (  0.9%)    0.001 s ( 0.004 ms/b)
<sd|dg>:          224 b            2 skpd (  0.9%)    0.002 s ( 0.008 ms/b)
<sd|ff>:          168 b            1 skpd (  0.6%)    0.001 s ( 0.006 ms/b)
<sd|fg>:          168 b            5 skpd (  3.0%)    0.001 s ( 0.008 ms/b)
<sd|gg>:           84 b            0 skpd (  0.0%)    0.002 s ( 0.024 ms/b)
<sf|sf>:          231 b            2 skpd (  0.9%)    0.002 s ( 0.009 ms/b)
<sf|sg>:          294 b            4 skpd (  1.4%)    0.003 s ( 0.011 ms/b)
<sf|pp>:          441 b            0 skpd (  0.0%)    0.008 s ( 0.019 ms/b)
<sf|pd>:          504 b            9 skpd (  1.8%)    0.003 s ( 0.007 ms/b)
<sf|pf>:          378 b            6 skpd (  1.6%)    0.005 s ( 0.013 ms/b)
<sf|pg>:          252 b            7 skpd (  2.8%)    0.005 s ( 0.019 ms/b)
<sf|dd>:          210 b            2 skpd (  1.0%)    0.001 s ( 0.005 ms/b)
<sf|df>:          252 b            9 skpd (  3.6%)    0.002 s ( 0.007 ms/b)
<sf|dg>:          168 b            7 skpd (  4.2%)    0.002 s ( 0.015 ms/b)
<sf|ff>:          126 b            7 skpd (  5.6%)    0.001 s ( 0.012 ms/b)
<sf|fg>:          126 b            8 skpd (  6.3%)    0.002 s ( 0.017 ms/b)
<sf|gg>:           63 b            6 skpd (  9.5%)    0.003 s ( 0.047 ms/b)
<sg|sg>:          105 b            2 skpd (  1.9%)    0.003 s ( 0.033 ms/b)
<sg|pp>:          294 b            0 skpd (  0.0%)    0.011 s ( 0.037 ms/b)
<sg|pd>:          336 b           23 skpd (  6.8%)    0.004 s ( 0.011 ms/b)
<sg|pf>:          252 b            8 skpd (  3.2%)    0.006 s ( 0.023 ms/b)
<sg|pg>:          168 b           26 skpd ( 15.5%)    0.005 s ( 0.035 ms/b)
<sg|dd>:          140 b            2 skpd (  1.4%)    0.001 s ( 0.008 ms/b)
<sg|df>:          168 b            9 skpd (  5.4%)    0.002 s ( 0.013 ms/b)
<sg|dg>:          112 b            7 skpd (  6.2%)    0.003 s ( 0.029 ms/b)
<sg|ff>:           84 b            6 skpd (  7.1%)    0.002 s ( 0.020 ms/b)
<sg|fg>:           84 b           12 skpd ( 14.3%)    0.002 s ( 0.030 ms/b)
<sg|gg>:           42 b            6 skpd ( 14.3%)    0.003 s ( 0.091 ms/b)
<pp|pp>:          231 b            0 skpd (  0.0%)    0.006 s ( 0.028 ms/b)
<pp|pd>:          504 b            0 skpd (  0.0%)    0.003 s ( 0.007 ms/b)
<pp|pf>:          378 b            0 skpd (  0.0%)    0.005 s ( 0.014 ms/b)
<pp|pg>:          252 b            0 skpd (  0.0%)    0.005 s ( 0.019 ms/b)
<pp|dd>:          210 b            0 skpd (  0.0%)    0.001 s ( 0.005 ms/b)
<pp|df>:          252 b            0 skpd (  0.0%)    0.002 s ( 0.007 ms/b)
<pp|dg>:          168 b            0 skpd (  0.0%)    0.003 s ( 0.015 ms/b)
<pp|ff>:          126 b            0 skpd (  0.0%)    0.001 s ( 0.011 ms/b)
<pp|fg>:          126 b            0 skpd (  0.0%)    0.002 s ( 0.016 ms/b)
<pp|gg>:           63 b            0 skpd (  0.0%)    0.003 s ( 0.046 ms/b)
<pd|pd>:          300 b            0 skpd (  0.0%)    0.002 s ( 0.005 ms/b)
<pd|pf>:          432 b            0 skpd (  0.0%)    0.004 s ( 0.010 ms/b)
<pd|pg>:          288 b            0 skpd (  0.0%)    0.004 s ( 0.014 ms/b)
<pd|dd>:          240 b            0 skpd (  0.0%)    0.002 s ( 0.007 ms/b)
<pd|df>:          288 b            0 skpd (  0.0%)    0.002 s ( 0.008 ms/b)
<pd|dg>:          192 b            0 skpd (  0.0%)    0.003 s ( 0.017 ms/b)
<pd|ff>:          144 b            0 skpd (  0.0%)    0.002 s ( 0.012 ms/b)
<pd|fg>:          144 b            0 skpd (  0.0%)    0.002 s ( 0.017 ms/b)
<pd|gg>:           72 b            0 skpd (  0.0%)    0.003 s ( 0.048 ms/b)
<pf|pf>:          171 b            0 skpd (  0.0%)    0.003 s ( 0.019 ms/b)
<pf|pg>:          216 b            0 skpd (  0.0%)    0.006 s ( 0.027 ms/b)
<pf|dd>:          180 b            0 skpd (  0.0%)    0.001 s ( 0.008 ms/b)
<pf|df>:          216 b            0 skpd (  0.0%)    0.003 s ( 0.013 ms/b)
<pf|dg>:          144 b            0 skpd (  0.0%)    0.004 s ( 0.026 ms/b)
<pf|ff>:          108 b            0 skpd (  0.0%)    0.002 s ( 0.023 ms/b)
<pf|fg>:          108 b            0 skpd (  0.0%)    0.003 s ( 0.031 ms/b)
<pf|gg>:           54 b            0 skpd (  0.0%)    0.005 s ( 0.086 ms/b)
<pg|pg>:           78 b            0 skpd (  0.0%)    0.006 s ( 0.074 ms/b)
<pg|dd>:          120 b            0 skpd (  0.0%)    0.002 s ( 0.014 ms/b)
<pg|df>:          144 b            0 skpd (  0.0%)    0.003 s ( 0.020 ms/b)
<pg|dg>:           96 b            0 skpd (  0.0%)    0.005 s ( 0.047 ms/b)
<pg|ff>:           72 b            0 skpd (  0.0%)    0.002 s ( 0.031 ms/b)
<pg|fg>:           72 b            0 skpd (  0.0%)    0.004 s ( 0.051 ms/b)
<pg|gg>:           36 b            0 skpd (  0.0%)    0.006 s ( 0.171 ms/b)
<dd|dd>:           55 b            0 skpd (  0.0%)    0.001 s ( 0.010 ms/b)
<dd|df>:          120 b            0 skpd (  0.0%)    0.001 s ( 0.011 ms/b)
<dd|dg>:           80 b            0 skpd (  0.0%)    0.002 s ( 0.022 ms/b)
<dd|ff>:           60 b            0 skpd (  0.0%)    0.001 s ( 0.015 ms/b)
<dd|fg>:           60 b            0 skpd (  0.0%)    0.001 s ( 0.022 ms/b)
<dd|gg>:           30 b            0 skpd (  0.0%)    0.002 s ( 0.064 ms/b)
<df|df>:           78 b            0 skpd (  0.0%)    0.002 s ( 0.023 ms/b)
<df|dg>:           96 b            0 skpd (  0.0%)    0.003 s ( 0.034 ms/b)
<df|ff>:           72 b            0 skpd (  0.0%)    0.002 s ( 0.030 ms/b)
<df|fg>:           72 b            0 skpd (  0.0%)    0.003 s ( 0.039 ms/b)
<df|gg>:           36 b            0 skpd (  0.0%)    0.004 s ( 0.104 ms/b)
<dg|dg>:           36 b            0 skpd (  0.0%)    0.002 s ( 0.056 ms/b)
<dg|ff>:           48 b            0 skpd (  0.0%)    0.002 s ( 0.034 ms/b)
<dg|fg>:           48 b            0 skpd (  0.0%)    0.003 s ( 0.056 ms/b)
<dg|gg>:           24 b            0 skpd (  0.0%)    0.004 s ( 0.182 ms/b)
<ff|ff>:           21 b            0 skpd (  0.0%)    0.001 s ( 0.063 ms/b)
<ff|fg>:           36 b            0 skpd (  0.0%)    0.002 s ( 0.066 ms/b)
<ff|gg>:           18 b            0 skpd (  0.0%)    0.003 s ( 0.181 ms/b)
<fg|fg>:           21 b            0 skpd (  0.0%)    0.003 s ( 0.163 ms/b)
<fg|gg>:           18 b            0 skpd (  0.0%)    0.006 s ( 0.323 ms/b)
<gg|gg>:            6 b            0 skpd (  0.0%)    0.005 s ( 0.791 ms/b)
Recanonicalizing the internal orbitals
Recanonicalizing the virtual orbitals
Time needed for Fock operator              ...            0.433 sec
Reference energy                           ...   -288.858432542
Warning: for UHF the TrafoType has to be JK
Warning: for UHF the K(C)-option cannot be MO but must be AOX

-------------------------------
PARTIAL EXCHANGE TRANSFORMATION
-------------------------------

Transformation type                        ... two-operators
Generation of integrals (i,mue|j,nue)      ... ON
Generation of integrals (mue,kappa|nue,tau)... ON
Generation of integrals (i,mue|a,nue)      ... ON
Dimension of the basis                     ...   84
Number of internal alpha-MOs               ...    3 (   5-   7)
Number of internal beta-MOs                ...    1 (   5-   5)
Number of external alpha-MOs               ...   76 (   8-  83)
Number of external beta-MOs                ...   78 (   6-  83)
Pair cutoff                                ... 0.000e+00 Eh
Number of AO pairs in the trafo            ... 3570
Total Number of distinct AO pairs          ... 3570
Memory devoted for trafo                   ... 2500.0 MB 
Max. Number of MO pairs treated together   ... 46439      
Number Format for Storage                  ... Double (8 Byte)
Integral package used                      ... LIBINT

Starting integral evaluation:
    ... done with AO integral generation
Closing buffer AOK[aa] ( 0.00 GB; CompressionRatio= 0.86)
Closing buffer AOK[bb] ( 0.00 GB; CompressionRatio= 0.40)
Closing buffer AOK[ab] ( 0.00 GB; CompressionRatio= 0.67)
Closing buffer AOK[ba] ( 0.00 GB; CompressionRatio= 0.67)
Collecting buffer AOK 
Closing buffer IAAO1[aa] ( 0.00 GB; CompressionRatio= 0.99)
Closing buffer IAAO1[bb] ( 0.00 GB; CompressionRatio= 0.98)
Closing buffer IAAO1[ab] ( 0.00 GB; CompressionRatio= 0.99)
Closing buffer IAAO1[ba] ( 0.00 GB; CompressionRatio= 0.98)
Closing buffer IAAO2[aa] ( 0.00 GB; CompressionRatio= 0.99)
Closing buffer IAAO2[bb] ( 0.00 GB; CompressionRatio= 0.98)
Closing buffer IAAO2[ab] ( 0.00 GB; CompressionRatio= 0.99)
Closing buffer IAAO2[ba] ( 0.00 GB; CompressionRatio= 0.98)
Collecting buffer IAAO 
Closing buffer PRQS    ( 0.02 GB; CompressionRatio= 1.00)
Collecting buffer PRQS 
Number of alpha/alpha MO pairs in trafo    ...    6
Number of beta /beta  MO pairs in trafo    ...    1
Number of alpha/ beta MO pairs in trafo    ...    3
------------------------
SORTING OF (i,mue|j,nue)
------------------------

SORTING OF ALPHA/ALPHA PAIRS
IBATCH = 1 of  1
Closing buffer KAO[aa] ( 0.00 GB; CompressionRatio= 1.00)
Collecting buffer KAO 
SORTING OF BETA /BETA  PAIRS
IBATCH = 1 of  1
Closing buffer KAO[bb] ( 0.00 GB; CompressionRatio= 1.00)
Collecting buffer KAO 
SORTING OF ALPHA/BETA  PAIRS
IBATCH = 1 of  1
Closing buffer KAO[ab] ( 0.00 GB; CompressionRatio= 0.999787460149)
Collecting buffer KAO[ab] 
------------------------
SORTING OF (i,mue|a,nue)
------------------------

Number of alpha/alpha (i,a) pairs in trafo  ...  228
Number of beta /beta  (i,a) pairs in trafo  ...   78
Number of alpha/ beta (i,a) pairs in trafo  ...  234
Number of beta /alpha (i,a) pairs in trafo  ...   76
Setting up the alpha/alpha list             ... done
Setting up the beta /beta  list             ... done
Setting up the alpha/beta  list             ... done
Setting up the beta /alpha list             ... done
    ... Now sorting (i,mue|a,nue)integrals
    ... Integrals (i,b|a,c) will be made on the fly
SORTING OF ALPHA/ALPHA PAIRS
IBATCH = 1 of  1
Closing buffer IPAQ[aa]  0.00 GB; CompressionRatio= 1.00)
SORTING OF BETA /BETA  PAIRS
IBATCH = 1 of  1
Closing buffer IPAQ[bb]( 0.00 GB; CompressionRatio= 1.00)
SORTING OF ALPHA/BETA  PAIRS (NMatSort_ab=39)
IBATCH = 1 of  1
Closing buffer IPAQ[ab]( 0.00 GB; CompressionRatio= 1.00)
SORTING OF BETA/ALPHA  PAIRS
IBATCH = 1 of  1
Closing buffer IPAQ[ba]( 0.00 GB; CompressionRatio= 1.00)
N(AO-Batches) Done                         ...     15972 
N(AO-Batches) Skipped                      ...         0 
N(IJ)-pairs Skipped                        ...         0 
TOTAL TIME for half transformation         ...    10.239 sec
AO-integral generation                     ...     0.720 sec
Half transformation                        ...     2.765 sec
K-integral sorting                         ...     0.389 sec
<ss|**>: 
------------------------------
PARTIAL COULOMB TRANSFORMATION
------------------------------

Transformation type                        ... two-operators
Dimension of the basis                     ...   84
Number of internal alpha-MOs               ...    3 (5-7)
Number of internal beta-MOs                ...    1 (5-5)
Pair cutoff                                ... 0.000e+00 Eh
Number of AO pairs included in the trafo   ... 3570
Total Number of distinct AO pairs          ... 3570
Memory devoted for trafo                   ... 2500.0 MB 
Max. Number of MO pairs treated together   ... 91787      
Max. Number of MOs treated per batch       ... 1092      
Number Format for Storage                  ... Double (8 Byte)
AO-integral source                         ... DIRECT
Integral package used                      ... LIBINT

Starting integral evaluation:
        7084 b        0 skpd     0.287 s (  0.041 ms/b)
<sp|**>: <sd|**>:        10626 b        0 skpd     0.123 s (  0.012 ms/b)
<sf|**>:         7084 b        0 skpd     0.050 s (  0.007 ms/b)
        5313 b        0 skpd     0.096 s (  0.018 ms/b)
<sg|**>:         3542 b        0 skpd     0.079 s (  0.022 ms/b)
<pp|**>:         5313 b        0 skpd     0.113 s (  0.021 ms/b)
<pd|**>:         6072 b        0 skpd     0.106 s (  0.018 ms/b)
<pf|**>:         4554 b        0 skpd     0.115 s (  0.025 ms/b)
<pg|**>:         3036 b        0 skpd     0.112 s (  0.037 ms/b)
<dd|**>:         2530 b        0 skpd     0.053 s (  0.021 ms/b)
<df|**>:         3036 b        0 skpd     0.098 s (  0.032 ms/b)
<dg|**>:         2024 b        0 skpd     0.118 s (  0.058 ms/b)
<ff|**>:         1518 b        0 skpd     0.062 s (  0.041 ms/b)
<fg|**>:         1518 b        0 skpd     0.103 s (  0.068 ms/b)
<gg|**>:          759 b        0 skpd     0.118 s (  0.155 ms/b)
Closing buffer AOJ[aa] ( 0.00 GB; CompressionRatio= 0.80)
Closing buffer AOJ[bb] ( 0.00 GB; CompressionRatio= 0.00)
Collecting buffer AOJ 
    ... done with AO integral generation
Number of Alpha-MO pairs included          ...    6
Number of Beta-MO pairs included           ...    1
    ... Now sorting integrals
SORTING ALPHA/ALPHA PAIRS
IBATCH = 1 of  1
Closing buffer JAO[aa] ( 0.00 GB; CompressionRatio= 1.00)
SORTING BETA/BETA PAIRS
IBATCH = 1 of  1
Closing buffer JAO[bb] ( 0.00 GB; CompressionRatio= 1.00)
Collecting buffer JAO 
TOTAL TIME for half transformation         ...     1.903 sec
AO-integral generation                     ...     0.946 sec
Half transformation                        ...     0.692 sec
J-integral sorting                         ...     0.041 sec

-------------------------- SECOND HALF TRANSFORMATION -------------------------
Formation of (ij|kl),(ij|ka), (ij|ab)      ... ok (     0.031 sec)
Formation of (ik|jl),(ik|ja), (ia|jb)      ... ok (     0.097 sec)


-----------------------
SPIN UNRESTRICTED GUESS
-----------------------

Entering MDCI_UHF_Guess, Tailored=0
Spin-components of the MP2 energy:
EMP2(aa)=     -0.010243477
EMP2(bb)=      0.000000000
EMP2(ab)=     -0.049822180

Initial guess performed in     0.001 sec
E(0)                                       ...   -288.858432542
E(MP2)                                     ...     -0.060065657
Initial E(tot)                             ...   -288.918498199
<T|T>                                      ...      0.037553547
Number of pairs included                   ... 6

------------------------------------------------
                  UHF COUPLED CLUSTER ITERATIONS
------------------------------------------------

Number of amplitudes to be optimized       ...        26601

Iter       E(tot)           E(Corr)          Delta-E          Residual     Time      <S|S>**1/2
  0   -288.918498199     -0.060065657     -0.000000000      0.016673454    0.49      0.000000232
                           *** Turning on DIIS ***
  1   -288.927906312     -0.069473770     -0.009408113      0.009185595    0.48      0.011786684
  2   -288.934016597     -0.075584055     -0.006110285      0.002723912    0.45      0.022791339
  3   -288.934745978     -0.076313435     -0.000729380      0.000827872    0.42      0.026752162
  4   -288.934925003     -0.076492461     -0.000179026      0.000172251    0.43      0.027971012
  5   -288.934928507     -0.076495965     -0.000003504      0.000047347    0.42      0.028082233
  6   -288.934930585     -0.076498042     -0.000002078      0.000015882    0.42      0.028094003
  7   -288.934931070     -0.076498528     -0.000000485      0.000002794    0.42      0.028096663
               --- The Coupled-Cluster iterations have converged ---

----------------------
COUPLED CLUSTER ENERGY
----------------------

E(0)                                       ...   -288.858432542
E(CORR)                                    ...     -0.076498528
E(TOT)                                     ...   -288.934931070
Singles norm <S|S>**1/2                    ...      0.028096663 ( 0.024880575, 0.003216088)  
T1 diagnostic                              ...      0.014048332                              

------------------
LARGEST AMPLITUDES
------------------
   5a->  8a   5b->  6b       0.074119
   5a->  8a   5b-> 10b       0.049402
   7a-> 32a   5b->  6b       0.043151
   6a-> 31a   5b->  6b       0.043151
   5a->  8a   5b-> 18b       0.040983
   7a-> 23a   6a-> 22a       0.037492
   7a-> 22a   6a-> 23a       0.037492
   6a-> 23a   5b-> 12b       0.037185
   7a-> 22a   5b-> 12b       0.037185
   6a-> 22a   5b-> 11b       0.037185
   7a-> 23a   5b-> 11b       0.037185
   5a-> 12a   5b->  6b       0.037169
   5a-> 20a   5b->  6b       0.034946
   7a->  8a   5b-> 30b       0.031259
   6a->  8a   5b-> 31b       0.031259
   6a-> 31a   5b-> 10b       0.028428

----------------------
UHF TRIPLES CORRECTION (Algorithm 1)
----------------------

Multiplier for the singles contribution    ...      1.000000000

SPIN-CASE Alpha-Alpha-Alpha:
10% done
20% done
30% done
40% done
50% done
60% done
70% done
80% done
90% done


SPIN-CASE Beta-Beta-Beta:

SPIN-CASE Alpha-Alpha-Beta:
10% done
20% done
30% done
40% done
50% done
60% done
70% done
80% done
90% done


SPIN-CASE Beta-Beta-Alpha:

Triples Correction (T)                     ...     -0.002858357
    alpha-alpha-alpha ... -0.000076772 (  2.7%)
    alpha-alpha-beta  ... -0.002781585 ( 97.3%)
    alpha-beta -beta  ...  0.000000000 ( -0.0%)
    beta -beta -beta  ...  0.000000000 ( -0.0%)
Scaling of triples based on CCSD energies (Peterson et al. Molecular Physics 113, 1551 (2015))
E(T*) = f*E(T) where f = E(F12-CCSD)/E(CCSD) 
f = CCSD (with F12)/ CCSD (without F12)    ...      1.000000000
Scaled triples correction (T)              ...     -0.002858357

Final correlation energy                   ...     -0.079356885
E(CCSD)                                    ...   -288.934931070
E(CCSD(T))                                 ...   -288.937789427



        !!!!!!!!!!!!!!!!!!!!!!!!!!!!!!!!!!!!!!!!!!!!!!!!!!!!!!!!!!!!!!!!!!!!!!!!!! 
        !  Warning: Densities are linearized densities                           !
        !!!!!!!!!!!!!!!!!!!!!!!!!!!!!!!!!!!!!!!!!!!!!!!!!!!!!!!!!!!!!!!!!!!!!!!!!! 

NORM  =      1.072460113 sqrt=     1.035596501
W(HF) =      0.932435610
------------------------------------------------------------------------------
                           ORCA POPULATION ANALYSIS
------------------------------------------------------------------------------
Input electron density              ... 14_Si.mdcip
Input spin density                  ... 14_Si.mdcir
BaseName (.gbw .S,...)              ... 14_Si

                    ********************************
                    * MULLIKEN POPULATION ANALYSIS *
                    ********************************

------------------------------------------
MULLIKEN ATOMIC CHARGES AND SPIN DENSITIES
------------------------------------------
   0 Si:   -0.000000    2.000000
Sum of atomic charges       :   -0.0000000
Sum of atomic spin densities:    2.0000000

---------------------------------------------------
MULLIKEN REDUCED ORBITAL CHARGES AND SPIN DENSITIES
---------------------------------------------------
CHARGE
  0 Sis       :     5.914228  s :     5.914228
      pz      :     2.988387  p :     8.023054
      px      :     2.590920
      py      :     2.443747
      dz2     :     0.013487  d :     0.059136
      dxz     :     0.013050
      dyz     :     0.012272
      dx2y2   :     0.010170
      dxy     :     0.010157
      f0      :     0.000605  f :     0.003258
      f+1     :     0.000596
      f-1     :     0.000532
      f+2     :     0.000434
      f-2     :     0.000472
      f+3     :     0.000310
      f-3     :     0.000309
      g0      :     0.000044  g :     0.000324
      g+1     :     0.000045
      g-1     :     0.000041
      g+2     :     0.000039
      g-2     :     0.000039
      g+3     :     0.000033
      g-3     :     0.000033
      g+4     :     0.000025
      g-4     :     0.000025

SPIN
  0 Sis       :     0.038201  s :     0.038201
      pz      :     0.964102  p :     1.924200
      px      :     0.555666
      py      :     0.404432
      dz2     :     0.009999  d :     0.036066
      dxz     :     0.009188
      dyz     :     0.007889
      dx2y2   :     0.004388
      dxy     :     0.004603
      f0      :     0.000235  f :     0.001383
      f+1     :     0.000232
      f-1     :     0.000215
      f+2     :     0.000186
      f-2     :     0.000200
      f+3     :     0.000158
      f-3     :     0.000158
      g0      :     0.000020  g :     0.000150
      g+1     :     0.000021
      g-1     :     0.000019
      g+2     :     0.000018
      g-2     :     0.000018
      g+3     :     0.000015
      g-3     :     0.000015
      g+4     :     0.000011
      g-4     :     0.000011


                     *******************************
                     * LOEWDIN POPULATION ANALYSIS *
                     *******************************

-----------------------------------------
LOEWDIN ATOMIC CHARGES AND SPIN DENSITIES
-----------------------------------------
   0 Si:   -0.000000    2.000000

--------------------------------------------------
LOEWDIN REDUCED ORBITAL CHARGES AND SPIN DENSITIES
--------------------------------------------------
CHARGE
  0 Sis       :     5.914228  s :     5.914228
      pz      :     2.988387  p :     8.023054
      px      :     2.590920
      py      :     2.443747
      dz2     :     0.013487  d :     0.059136
      dxz     :     0.013050
      dyz     :     0.012272
      dx2y2   :     0.010170
      dxy     :     0.010157
      f0      :     0.000605  f :     0.003258
      f+1     :     0.000596
      f-1     :     0.000532
      f+2     :     0.000434
      f-2     :     0.000472
      f+3     :     0.000310
      f-3     :     0.000309
      g0      :     0.000044  g :     0.000324
      g+1     :     0.000045
      g-1     :     0.000041
      g+2     :     0.000039
      g-2     :     0.000039
      g+3     :     0.000033
      g-3     :     0.000033
      g+4     :     0.000025
      g-4     :     0.000025

SPIN
  0 Sis       :     0.038201  s :     0.038201
      pz      :     0.964102  p :     1.924200
      px      :     0.555666
      py      :     0.404432
      dz2     :     0.009999  d :     0.036066
      dxz     :     0.009188
      dyz     :     0.007889
      dx2y2   :     0.004388
      dxy     :     0.004603
      f0      :     0.000235  f :     0.001383
      f+1     :     0.000232
      f-1     :     0.000215
      f+2     :     0.000186
      f-2     :     0.000200
      f+3     :     0.000158
      f-3     :     0.000158
      g0      :     0.000020  g :     0.000150
      g+1     :     0.000021
      g-1     :     0.000019
      g+2     :     0.000018
      g-2     :     0.000018
      g+3     :     0.000015
      g-3     :     0.000015
      g+4     :     0.000011
      g-4     :     0.000011


                      *****************************
                      * MAYER POPULATION ANALYSIS *
                      *****************************

  NA   - Mulliken gross atomic population
  ZA   - Total nuclear charge
  QA   - Mulliken gross atomic charge
  VA   - Mayer's total valence
  BVA  - Mayer's bonded valence
  FA   - Mayer's free valence

  ATOM       NA         ZA         QA         VA         BVA        FA
  0 Si    14.0000    14.0000    -0.0000     2.4175     0.0000     2.4175





------------------------------------------------------------------------------- 
                                     TIMINGS                                   
------------------------------------------------------------------------------- 


Total execution time                   ...       16.629 sec

Fock Matrix Formation                  ...        0.433 sec (  2.6%)
Initial Guess                          ...        0.001 sec (  0.0%)
DIIS Solver                            ...        0.012 sec (  0.1%)
State Vector Update                    ...        0.001 sec (  0.0%)
Sigma-vector construction              ...        3.503 sec ( 21.1%)
  <D|H|D>(2-ext)                       ...        0.003 sec (  0.1% of sigma)
  <D|H|D>(4-ext)                       ...        1.338 sec ( 38.2% of sigma)
  <S|H|0>                              ...        0.010 sec (  0.3% of sigma)
  <D|H|S>(1-ext)                       ...        0.003 sec (  0.1% of sigma)
  Fock-dressing                        ...        1.966 sec ( 56.1% of sigma)
  (ij|ab),(ia|jb)-dressing             ...        0.114 sec (  3.2% of sigma)
Total Time for computing (T)           ...        0.061 sec (  0.4% of ALL)
  I/O of integral and amplitudes       ...        0.022 sec ( 35.9% of (T))
  External N**7 contributions          ...        0.009 sec ( 15.2% of (T))
  Internal N**7 contributions          ...        0.003 sec (  4.4% of (T))
  N**6 triples energy contributions    ...        0.010 sec ( 16.8% of (T))


-------------------------   --------------------
FINAL SINGLE POINT ENERGY      -288.937789427162
-------------------------   --------------------


                            ***************************************
                            *     ORCA property calculations      *
                            ***************************************

                                    ---------------------
                                    Active property flags
                                    ---------------------
   (+) Dipole Moment


------------------------------------------------------------------------------
                       ORCA ELECTRIC PROPERTIES CALCULATION
------------------------------------------------------------------------------

Dipole Moment Calculation                       ... on
Quadrupole Moment Calculation                   ... off
Polarizability Calculation                      ... off
GBWName                                         ... 14_Si.gbw
Electron density file                           ... 14_Si.scfp
The origin for moment calculation is the CENTER OF MASS  = ( 0.000000,  0.000000  0.000000)

-------------
DIPOLE MOMENT
-------------
                                X             Y             Z
Electronic contribution:      0.00000       0.00000       0.00000
Nuclear contribution   :      0.00000       0.00000       0.00000
                        -----------------------------------------
Total Dipole Moment    :      0.00000       0.00000       0.00000
                        -----------------------------------------
Magnitude (a.u.)       :      0.00000
Magnitude (Debye)      :      0.00000



--------------------
Rotational spectrum 
--------------------
 
Rotational constants in cm-1:     0.000000     0.000000     0.000000 
Rotational constants in MHz :     0.000000     0.000000     0.000000 

 Dipole components along the rotational axes: 
x,y,z [a.u.] :     0.000000     0.000000     0.000000 
x,y,z [Debye]:     0.000000     0.000000     0.000000 

 

                           *** MDCI DENSITY ***

------------------------------------------------------------------------------
                       ORCA ELECTRIC PROPERTIES CALCULATION
------------------------------------------------------------------------------

Dipole Moment Calculation                       ... on
Quadrupole Moment Calculation                   ... off
Polarizability Calculation                      ... off
GBWName                                         ... 14_Si.gbw
Electron density file                           ... 14_Si.mdcip
The origin for moment calculation is the CENTER OF MASS  = ( 0.000000,  0.000000  0.000000)

-------------
DIPOLE MOMENT
-------------
                                X             Y             Z
Electronic contribution:     -0.00000      -0.00000      -0.00000
Nuclear contribution   :      0.00000       0.00000       0.00000
                        -----------------------------------------
Total Dipole Moment    :     -0.00000      -0.00000      -0.00000
                        -----------------------------------------
Magnitude (a.u.)       :      0.00000
Magnitude (Debye)      :      0.00000



--------------------
Rotational spectrum 
--------------------
 
Rotational constants in cm-1:     0.000000     0.000000     0.000000 
Rotational constants in MHz :     0.000000     0.000000     0.000000 

 Dipole components along the rotational axes: 
x,y,z [a.u.] :    -0.000000    -0.000000    -0.000000 
x,y,z [Debye]:    -0.000000    -0.000000    -0.000000 

 

Timings for individual modules:

Sum of individual times         ...       35.014 sec (=   0.584 min)
GTO integral calculation        ...        0.751 sec (=   0.013 min)   2.1 %
SCF iterations                  ...       17.119 sec (=   0.285 min)  48.9 %
MDCI module                     ...       17.144 sec (=   0.286 min)  49.0 %
                             ****ORCA TERMINATED NORMALLY****
TOTAL RUN TIME: 0 days 0 hours 0 minutes 36 seconds 618 msec
