
                                 *****************
                                 * O   R   C   A *
                                 *****************

           --- An Ab Initio, DFT and Semiempirical electronic structure package ---

                  #######################################################
                  #                        -***-                        #
                  #          Department of theory and spectroscopy      #
                  #               Directorship: Frank Neese             #
                  #        Max Planck Institute fuer Kohlenforschung    #
                  #                Kaiser Wilhelm Platz 1               #
                  #                 D-45470 Muelheim/Ruhr               #
                  #                      Germany                        #
                  #                                                     #
                  #                  All rights reserved                #
                  #                        -***-                        #
                  #######################################################


                         Program Version 4.2.0 -  RELEASE  -


 With contributions from (in alphabetic order):
   Daniel Aravena         : Magnetic Suceptibility
   Michael Atanasov       : Ab Initio Ligand Field Theory (pilot matlab implementation)
   Alexander A. Auer      : GIAO ZORA, VPT2
   Ute Becker             : Parallelization
   Giovanni Bistoni       : ED, misc. LED, open-shell LED, HFLED
   Martin Brehm           : Molecular dynamics
   Dmytro Bykov           : SCF Hessian
   Vijay G. Chilkuri      : MRCI spin determinant printing, contributions to CSF-ICE
   Dipayan Datta          : RHF DLPNO-CCSD density
   Achintya Kumar Dutta   : EOM-CC, STEOM-CC
   Dmitry Ganyushin       : Spin-Orbit,Spin-Spin,Magnetic field MRCI
   Miquel Garcia          : C-PCM Hessian, Gaussian charge scheme
   Yang Guo               : DLPNO-NEVPT2, CIM, IAO-localization
   Andreas Hansen         : Spin unrestricted coupled pair/coupled cluster methods
   Benjamin Helmich-Paris : CASSCF linear response (MC-RPA)
   Lee Huntington         : MR-EOM, pCC
   Robert Izsak           : Overlap fitted RIJCOSX, COSX-SCS-MP3, EOM
   Christian Kollmar      : KDIIS, OOCD, Brueckner-CCSD(T), CCSD density
   Simone Kossmann        : Meta GGA functionals, TD-DFT gradient, OOMP2, MP2 Hessian
   Martin Krupicka        : AUTO-CI
   Lucas Lang             : DCDCAS
   Dagmar Lenk            : GEPOL surface, SMD
   Dimitrios Liakos       : Extrapolation schemes; Compound Job, initial MDCI parallelization
   Dimitrios Manganas     : Further ROCIS development; embedding schemes
   Dimitrios Pantazis     : SARC Basis sets
   Taras Petrenko         : DFT Hessian,TD-DFT gradient, ASA, ECA, R-Raman, ABS, FL, XAS/XES, NRVS
   Peter Pinski           : DLPNO-MP2, DLPNO-MP2 Gradient
   Christoph Reimann      : Effective Core Potentials
   Marius Retegan         : Local ZFS, SOC
   Christoph Riplinger    : Optimizer, TS searches, QM/MM, DLPNO-CCSD(T), (RO)-DLPNO pert. Triples
   Tobias Risthaus        : Range-separated hybrids, TD-DFT gradient, RPA, STAB
   Michael Roemelt        : Original ROCIS implementation
   Masaaki Saitow         : Open-shell DLPNO-CCSD energy and density
   Barbara Sandhoefer     : DKH picture change effects
   Avijit Sen             : IP-ROCIS
   Kantharuban Sivalingam : CASSCF convergence, NEVPT2, FIC-MRCI
   Bernardo de Souza      : ESD, SOC TD-DFT
   Georgi Stoychev        : AutoAux, RI-MP2 NMR
   Willem Van den Heuvel  : Paramagnetic NMR
   Boris Wezisla          : Elementary symmetry handling
   Frank Wennmohs         : Technical directorship


 We gratefully acknowledge several colleagues who have allowed us to
 interface, adapt or use parts of their codes:
   Stefan Grimme, W. Hujo, H. Kruse,             : VdW corrections, initial TS optimization,
                  C. Bannwarth                     DFT functionals, gCP, sTDA/sTD-DF
   Ed Valeev, F. Pavosevic, A. Kumar             : LibInt (2-el integral package), F12 methods
   Garnet Chan, S. Sharma, J. Yang, R. Olivares  : DMRG
   Ulf Ekstrom                                   : XCFun DFT Library
   Mihaly Kallay                                 : mrcc  (arbitrary order and MRCC methods)
   Andreas Klamt, Michael Diedenhofen            : otool_cosmo (COSMO solvation model)
   Jiri Pittner, Ondrej Demel                    : Mk-CCSD
   Frank Weinhold                                : gennbo (NPA and NBO analysis)
   Christopher J. Cramer and Donald G. Truhlar   : smd solvation model
   Lars Goerigk                                  : TD-DFT with DH, B97 family of functionals
   V. Asgeirsson, H. Jonsson                     : NEB implementation
   FAccTs GmbH                                   : IRC, NEB, NEB-TS, Multilevel, MM, QM/MM, CI optimization
   S Lehtola, MJT Oliveira, MAL Marques          : LibXC Library


 Your calculation uses the libint2 library for the computation of 2-el integrals
 For citations please refer to: http://libint.valeyev.net

 Your ORCA version has been built with support for libXC version: 4.2.3
 For citations please refer to: https://tddft.org/programs/libxc/

 This ORCA versions uses:
   CBLAS   interface :  Fast vector & matrix operations
   LAPACKE interface :  Fast linear algebra routines
   SCALAPACK package :  Parallel linear algebra routines


----- Orbital basis set information -----
Your calculation utilizes the basis: aug-cc-pVQZ 
    H, B-Ne : Obtained from the ccRepo (grant-hill.group.shef.ac.uk/ccrepo) Feb. 2017
              R. A. Kendall, T. H. Dunning, Jr., R. J. Harrison, J. Chem. Phys. 96, 6796 (1992)
         He : Obtained from the ccRepo (grant-hill.group.shef.ac.uk/ccrepo) Feb. 2017
              D. E. Woon, T. H. Dunning, Jr., J. Chem. Phys. 100, 2975 (1994)
  Li-Be, Na : Obtained from the ccRepo (grant-hill.group.shef.ac.uk/ccrepo) Feb. 2017
              B. P. Prascher, D. E. Woon, K. A. Peterson, T. H. Dunning, Jr., A. K. Wilson, Theor. Chem. Acc. 128, 69 (2011)
         Mg : Obtained from the Peterson Research Group Website (tyr0.chem.wsu.edu/~kipeters) Feb. 2017
              B. P. Prascher, D. E. Woon, K. A. Peterson, T. H. Dunning, Jr., A. K. Wilson, Theor. Chem. Acc. 128, 69 (2011)
      Al-Ar : Obtained from the ccRepo (grant-hill.group.shef.ac.uk/ccrepo) Feb. 2017
              D. E. Woon, T. H. Dunning, Jr., J. Chem. Phys. 98, 1358 (1993)
      Sc-Zn : Obtained from the ccRepo (grant-hill.group.shef.ac.uk/ccrepo) Feb. 2017
              N. B. Balabanov, K. A. Peterson, J. Chem. Phys. 123, 064107 (2005)
              N. B. Balabanov, K. A. Peterson, J. Chem. Phys. 125, 074110 (2006)
      Ga-Kr : Obtained from the ccRepo (grant-hill.group.shef.ac.uk/ccrepo) Feb. 2017
              A. K. Wilson, D. E. Woon, K. A. Peterson, T. H. Dunning, Jr., J. Chem. Phys. 110, 7667 (1999)

================================================================================
                                        WARNINGS
                       Please study these warnings very carefully!
================================================================================


WARNING: your system is open-shell and RHF/RKS was chosen
  ===> : WILL SWITCH to UHF/UKS


WARNING: MDCI localization with Augmented Hessian Foster-Boys
  ===> : Switching off randomization!

WARNING: Post HF methods need fully converged wavefunctions
  ===> : Setting SCFConvForced true
         You can overwrite this default with %scf ConvForced false 


INFO   : the flag for use of LIBINT has been found!

================================================================================
                                       INPUT FILE
================================================================================
NAME = 16_S.in
|  1> #
|  2> # 16_S CCSD(T)/aug-cc-pVQZ
|  3> #
|  4> ! CCSD(T) aug-cc-pVQZ tightscf
|  5> 
|  6> *xyz 0 3
|  7>  S 0.0 0.0 0.0
|  8> *
|  9> 
| 10> %maxcore 5000 
| 11> 
| 12> %pal
| 13> nprocs 15
| 14> end
| 15> 
| 16> 
| 17>                          ****END OF INPUT****
================================================================================

                       ****************************
                       * Single Point Calculation *
                       ****************************

---------------------------------
CARTESIAN COORDINATES (ANGSTROEM)
---------------------------------
  S      0.000000    0.000000    0.000000

----------------------------
CARTESIAN COORDINATES (A.U.)
----------------------------
  NO LB      ZA    FRAG     MASS         X           Y           Z
   0 S    16.0000    0    32.060    0.000000    0.000000    0.000000

--------------------------------
INTERNAL COORDINATES (ANGSTROEM)
--------------------------------
 S      0   0   0     0.000000000000     0.00000000     0.00000000

---------------------------
INTERNAL COORDINATES (A.U.)
---------------------------
 S      0   0   0     0.000000000000     0.00000000     0.00000000

---------------------
BASIS SET INFORMATION
---------------------
There are 1 groups of distinct atoms

 Group   1 Type S   : 43s20p4d3f2g contracted to 7s6p4d3f2g pattern {1313131111/881111/1111/111/11}

Atom   0S    basis set group =>   1


           ************************************************************
           *        Program running with 15 parallel MPI-processes    *
           *              working on a common directory               *
           ************************************************************
------------------------------------------------------------------------------
                           ORCA GTO INTEGRAL CALCULATION
------------------------------------------------------------------------------

                         BASIS SET STATISTICS AND STARTUP INFO

 # of primitive gaussian shells          ...   72
 # of primitive gaussian functions       ...  162
 # of contracted shells                  ...   22
 # of contracted basis functions         ...   84
 Highest angular momentum                ...    4
 Maximum contraction depth               ...   13
 Integral package used                   ... LIBINT
 Integral threshhold            Thresh   ...  2.500e-11
 Primitive cut-off              TCut     ...  2.500e-12


------------------------------ INTEGRAL EVALUATION ----------------------------


 * One electron integrals 
 Pre-screening matrix                    ... done
 Shell pair data                         ... done (   0.000 sec)



           ************************************************************
           *        Program running with 15 parallel MPI-processes    *
           *              working on a common directory               *
           ************************************************************
-------------------------------------------------------------------------------
                                 ORCA SCF
-------------------------------------------------------------------------------

------------
SCF SETTINGS
------------
Hamiltonian:
 Ab initio Hamiltonian  Method          .... Hartree-Fock(GTOs)


General Settings:
 Integral files         IntName         .... 16_S
 Hartree-Fock type      HFTyp           .... UHF
 Total Charge           Charge          ....    0
 Multiplicity           Mult            ....    3
 Number of Electrons    NEL             ....   16
 Basis Dimension        Dim             ....   84
 Nuclear Repulsion      ENuc            ....      0.0000000000 Eh

Convergence Acceleration:
 DIIS                   CNVDIIS         .... on
   Start iteration      DIISMaxIt       ....    12
   Startup error        DIISStart       ....  0.200000
   # of expansion vecs  DIISMaxEq       ....     5
   Bias factor          DIISBfac        ....   1.050
   Max. coefficient     DIISMaxC        ....  10.000
 Newton-Raphson         CNVNR           .... off
 SOSCF                  CNVSOSCF        .... off
 Level Shifting         CNVShift        .... on
   Level shift para.    LevelShift      ....    0.2500
   Turn off err/grad.   ShiftErr        ....    0.0010
 Zerner damping         CNVZerner       .... off
 Static damping         CNVDamp         .... on
   Fraction old density DampFac         ....    0.7000
   Max. Damping (<1)    DampMax         ....    0.9800
   Min. Damping (>=0)   DampMin         ....    0.0000
   Turn off err/grad.   DampErr         ....    0.1000
 Fernandez-Rico         CNVRico         .... off

SCF Procedure:
 Maximum # iterations   MaxIter         ....   125
 SCF integral mode      SCFMode         .... Direct
   Integral package                     .... LIBINT
 Reset frequency        DirectResetFreq ....    20
 Integral Threshold     Thresh          ....  2.500e-11 Eh
 Primitive CutOff       TCut            ....  2.500e-12 Eh

Convergence Tolerance:
 Convergence Check Mode ConvCheckMode   .... Total+1el-Energy
 Convergence forced     ConvForced      .... 1
 Energy Change          TolE            ....  1.000e-08 Eh
 1-El. energy change                    ....  1.000e-05 Eh
 DIIS Error             TolErr          ....  5.000e-07


Diagonalization of the overlap matrix:
Smallest eigenvalue                        ... 8.203e-04
Time for diagonalization                   ...    0.002 sec
Threshold for overlap eigenvalues          ... 1.000e-08
Number of eigenvalues below threshold      ... 0
Time for construction of square roots      ...    0.007 sec
Total time needed                          ...    0.010 sec

-------------------
DFT GRID GENERATION
-------------------

General Integration Accuracy     IntAcc      ...  4.340
Radial Grid Type                 RadialGrid  ... Gauss-Chebyshev
Angular Grid (max. acc.)         AngularGrid ... Lebedev-110
Angular grid pruning method      GridPruning ... 3 (G Style)
Weight generation scheme         WeightScheme... Becke
Basis function cutoff            BFCut       ...    1.0000e-11
Integration weight cutoff        WCut        ...    1.0000e-14
Grids for H and He will be reduced by one unit

# of grid points (after initial pruning)     ...   1806 (   0.0 sec)
# of grid points (after weights+screening)   ...   1806 (   0.0 sec)
Grid point division into batches done        ...    0.0 sec
Reduced shell lists constructed in    0.0 sec

Total number of grid points                  ...     1806
Total number of batches                      ...       29
Average number of points per batch           ...       62
Average number of grid points per atom       ...     1806
Average number of shells per batch           ...    10.67 (48.48%)
Average number of basis functions per batch  ...    46.67 (55.56%)
Average number of large shells per batch     ...     9.33 (87.50%)
Average number of large basis fcns per batch ...    41.33 (88.57%)
Maximum spatial batch extension              ...  16.21, 29.83, 29.83 au
Average spatial batch extension              ...   1.12,  2.06,  2.06 au

Time for grid setup =    0.027 sec

------------------------------
INITIAL GUESS: MODEL POTENTIAL
------------------------------
Loading Hartree-Fock densities                     ... done
Calculating cut-offs                               ... done
Setting up the integral package                    ... done
Initializing the effective Hamiltonian             ... done
Starting the Coulomb interaction                   ... done (   0.0 sec)
Reading the grid                                   ... done
Mapping shells                                     ... done
Starting the XC term evaluation                    ... done (   0.0 sec)
Transforming the Hamiltonian                       ... done (   0.0 sec)
Diagonalizing the Hamiltonian                      ... done (   0.0 sec)
Back transforming the eigenvectors                 ... done (   0.0 sec)
Now organizing SCF variables                       ... done
                      ------------------
                      INITIAL GUESS DONE (   0.2 sec)
                      ------------------
--------------
SCF ITERATIONS
--------------
ITER       Energy         Delta-E        Max-DP      RMS-DP      [F,P]     Damp
               ***  Starting incremental Fock matrix formation  ***
  0   -397.4911328305   0.000000000000 0.05848509  0.00127666  0.1008851 0.7000
  1   -397.4965972206  -0.005464390045 0.04089321  0.00090717  0.0719408 0.7000
                               ***Turning on DIIS***
  2   -397.5007583160  -0.004161095413 0.09426488  0.00210809  0.0509275 0.0000
  3   -397.5085414312  -0.007783115216 0.00824271  0.00026326  0.0047401 0.0000
  4   -397.5187908392  -0.010249408034 0.00418265  0.00010442  0.0028158 0.0000
  5   -397.5111031753   0.007687663894 0.00169235  0.00004301  0.0011983 0.0000
  6   -397.5119208677  -0.000817692353 0.00071786  0.00001918  0.0004521 0.0000
  7   -397.5125653763  -0.000644508598 0.00014867  0.00000369  0.0001109 0.0000
  8   -397.5127040644  -0.000138688150 0.00004669  0.00000115  0.0000151 0.0000
  9   -397.5126891899   0.000014874571 0.00001742  0.00000048  0.0000026 0.0000
 10   -397.5126909052  -0.000001715309 0.00000834  0.00000024  0.0000010 0.0000
                            ***DIIS convergence achieved***

               *****************************************************
               *                     SUCCESS                       *
               *           SCF CONVERGED AFTER  11 CYCLES          *
               *****************************************************


----------------
TOTAL SCF ENERGY
----------------

Total Energy       :         -397.51269038 Eh          -10816.87022 eV

Components:
Nuclear Repulsion  :            0.00000000 Eh               0.00000 eV
Electronic Energy  :         -397.51269038 Eh          -10816.87022 eV
One Electron Energy:         -549.38578612 Eh          -14949.54726 eV
Two Electron Energy:          151.87309574 Eh            4132.67704 eV

Virial components:
Potential Energy   :         -795.02357938 Eh          -21633.69143 eV
Kinetic Energy     :          397.51088900 Eh           10816.82121 eV
Virial Ratio       :            2.00000453


---------------
SCF CONVERGENCE
---------------

  Last Energy change         ...    5.2983e-07  Tolerance :   1.0000e-08
  Last MAX-Density change    ...    4.6058e-06  Tolerance :   1.0000e-07
  Last RMS-Density change    ...    1.3220e-07  Tolerance :   5.0000e-09
  Last DIIS Error            ...    3.6999e-07  Tolerance :   5.0000e-07

             **** THE GBW FILE WAS UPDATED (16_S.gbw) ****
             **** DENSITY FILE WAS UPDATED (16_S.scfp) ****
             **** ENERGY FILE WAS UPDATED (16_S.en.tmp) ****
----------------------
UHF SPIN CONTAMINATION
----------------------

Expectation value of <S**2>     :     2.013272
Ideal value S*(S+1) for S=1.0   :     2.000000
Deviation                       :     0.013272

             **** THE GBW FILE WAS UPDATED (16_S.gbw) ****
             **** DENSITY FILE WAS UPDATED (16_S.scfp) ****
----------------
ORBITAL ENERGIES
----------------
                 SPIN UP ORBITALS
  NO   OCC          E(Eh)            E(eV) 
   0   1.0000     -92.012687     -2503.7925 
   1   1.0000      -9.013146      -245.2602 
   2   1.0000      -6.705899      -182.4768 
   3   1.0000      -6.705899      -182.4768 
   4   1.0000      -6.685298      -181.9162 
   5   1.0000      -0.989886       -26.9362 
   6   1.0000      -0.486998       -13.2519 
   7   1.0000      -0.486998       -13.2519 
   8   1.0000      -0.415621       -11.3096 
   9   0.0000       0.078668         2.1407 
  10   0.0000       0.078668         2.1407 
  11   0.0000       0.080865         2.2005 
  12   0.0000       0.085166         2.3175 
  13   0.0000       0.194952         5.3049 
  14   0.0000       0.194952         5.3049 
  15   0.0000       0.207023         5.6334 
  16   0.0000       0.207023         5.6334 
  17   0.0000       0.211612         5.7583 
  18   0.0000       0.391416        10.6510 
  19   0.0000       0.391416        10.6510 
  20   0.0000       0.415841        11.3156 
  21   0.0000       0.500782        13.6270 
  22   0.0000       0.500782        13.6270 
  23   0.0000       0.507834        13.8189 
  24   0.0000       0.532240        14.4830 
  25   0.0000       0.532240        14.4830 
  26   0.0000       0.539800        14.6887 
  27   0.0000       0.539800        14.6887 
  28   0.0000       0.544833        14.8257 
  29   0.0000       0.550292        14.9742 
  30   0.0000       0.550292        14.9742 
  31   0.0000       0.557055        15.1582 
  32   0.0000       0.557055        15.1582 
  33   0.0000       0.559444        15.2232 
  34   0.0000       1.380214        37.5575 
  35   0.0000       1.380214        37.5575 
  36   0.0000       1.415092        38.5066 
  37   0.0000       1.415092        38.5066 
  38   0.0000       1.428081        38.8600 
  39   0.0000       1.437173        39.1075 
  40   0.0000       1.437173        39.1075 
  41   0.0000       1.452208        39.5166 
  42   0.0000       1.452208        39.5166 
  43   0.0000       1.463511        39.8242 
  44   0.0000       1.463511        39.8242 
  45   0.0000       1.470728        40.0205 
  46   0.0000       1.470728        40.0205 
  47   0.0000       1.471515        40.0420 
  48   0.0000       1.471515        40.0420 
  49   0.0000       1.473311        40.0908 
  50   0.0000       1.497423        40.7470 
  51   0.0000       1.497423        40.7470 
  52   0.0000       1.498444        40.7747 
  53   0.0000       1.498444        40.7747 
  54   0.0000       1.515292        41.2332 
  55   0.0000       1.519670        41.3523 
  56   0.0000       1.519670        41.3523 
  57   0.0000       1.553816        42.2815 
  58   0.0000       2.113790        57.5191 
  59   0.0000       3.485296        94.8397 
  60   0.0000       3.485296        94.8397 
  61   0.0000       3.518366        95.7396 
  62   0.0000       3.518366        95.7396 
  63   0.0000       3.530411        96.0674 
  64   0.0000       3.620155        98.5094 
  65   0.0000       3.620155        98.5094 
  66   0.0000       3.651752        99.3692 
  67   0.0000       3.651752        99.3692 
  68   0.0000       3.671290        99.9009 
  69   0.0000       3.671290        99.9009 
  70   0.0000       3.677919       100.0813 
  71   0.0000       3.777595       102.7936 
  72   0.0000       3.777595       102.7936 
  73   0.0000       3.803444       103.4970 
  74   0.0000       3.803444       103.4970 
  75   0.0000       3.822566       104.0173 
  76   0.0000       3.822566       104.0173 
  77   0.0000       3.834355       104.3381 
  78   0.0000       3.834355       104.3381 
  79   0.0000       3.838346       104.4467 
  80   0.0000       5.582325       151.9028 
  81   0.0000       5.582325       151.9028 
  82   0.0000       5.627726       153.1382 
  83   0.0000      17.142583       466.4734 

                 SPIN DOWN ORBITALS
  NO   OCC          E(Eh)            E(eV) 
   0   1.0000     -91.994865     -2503.3075 
   1   1.0000      -8.994125      -244.7426 
   2   1.0000      -6.675489      -181.6493 
   3   1.0000      -6.659612      -181.2173 
   4   1.0000      -6.659612      -181.2173 
   5   1.0000      -0.773997       -21.0615 
   6   1.0000      -0.379463       -10.3257 
   7   0.0000       0.001095         0.0298 
   8   0.0000       0.001095         0.0298 
   9   0.0000       0.086370         2.3502 
  10   0.0000       0.088928         2.4199 
  11   0.0000       0.100896         2.7455 
  12   0.0000       0.100896         2.7455 
  13   0.0000       0.219307         5.9676 
  14   0.0000       0.219307         5.9676 
  15   0.0000       0.219506         5.9731 
  16   0.0000       0.219790         5.9808 
  17   0.0000       0.219790         5.9808 
  18   0.0000       0.423636        11.5277 
  19   0.0000       0.449081        12.2201 
  20   0.0000       0.449081        12.2201 
  21   0.0000       0.538575        14.6554 
  22   0.0000       0.553246        15.0546 
  23   0.0000       0.553246        15.0546 
  24   0.0000       0.558918        15.2089 
  25   0.0000       0.558918        15.2089 
  26   0.0000       0.562529        15.3072 
  27   0.0000       0.562529        15.3072 
  28   0.0000       0.563658        15.3379 
  29   0.0000       0.584532        15.9059 
  30   0.0000       0.589376        16.0377 
  31   0.0000       0.589376        16.0377 
  32   0.0000       0.609200        16.5772 
  33   0.0000       0.609200        16.5772 
  34   0.0000       1.456813        39.6419 
  35   0.0000       1.457630        39.6641 
  36   0.0000       1.457630        39.6641 
  37   0.0000       1.459800        39.7232 
  38   0.0000       1.459800        39.7232 
  39   0.0000       1.460576        39.7443 
  40   0.0000       1.460576        39.7443 
  41   0.0000       1.468899        39.9708 
  42   0.0000       1.468899        39.9708 
  43   0.0000       1.476825        40.1864 
  44   0.0000       1.476825        40.1864 
  45   0.0000       1.481388        40.3106 
  46   0.0000       1.481388        40.3106 
  47   0.0000       1.482924        40.3524 
  48   0.0000       1.532295        41.6959 
  49   0.0000       1.532295        41.6959 
  50   0.0000       1.538271        41.8585 
  51   0.0000       1.538271        41.8585 
  52   0.0000       1.539856        41.9016 
  53   0.0000       1.540300        41.9137 
  54   0.0000       1.540300        41.9137 
  55   0.0000       1.566998        42.6402 
  56   0.0000       1.578138        42.9433 
  57   0.0000       1.578138        42.9433 
  58   0.0000       2.155146        58.6445 
  59   0.0000       3.521777        95.8324 
  60   0.0000       3.521777        95.8324 
  61   0.0000       3.538736        96.2939 
  62   0.0000       3.538736        96.2939 
  63   0.0000       3.544429        96.4488 
  64   0.0000       3.684135       100.2504 
  65   0.0000       3.684135       100.2504 
  66   0.0000       3.695163       100.5505 
  67   0.0000       3.695163       100.5505 
  68   0.0000       3.701713       100.7287 
  69   0.0000       3.701713       100.7287 
  70   0.0000       3.703882       100.7878 
  71   0.0000       3.830245       104.2263 
  72   0.0000       3.830245       104.2263 
  73   0.0000       3.842937       104.5716 
  74   0.0000       3.842937       104.5716 
  75   0.0000       3.852105       104.8211 
  76   0.0000       3.852105       104.8211 
  77   0.0000       3.857649       104.9720 
  78   0.0000       3.857649       104.9720 
  79   0.0000       3.859504       105.0225 
  80   0.0000       5.629574       153.1885 
  81   0.0000       5.629574       153.1885 
  82   0.0000       5.638707       153.4370 
  83   0.0000      17.165241       467.0900 

                    ********************************
                    * MULLIKEN POPULATION ANALYSIS *
                    ********************************

--------------------------------------------
MULLIKEN ATOMIC CHARGES AND SPIN POPULATIONS
--------------------------------------------
   0 S :   -0.000000    2.000000
Sum of atomic charges         :   -0.0000000
Sum of atomic spin populations:    2.0000000

-----------------------------------------------------
MULLIKEN REDUCED ORBITAL CHARGES AND SPIN POPULATIONS
-----------------------------------------------------
CHARGE
  0 S s       :     5.994304  s :     5.994304
      pz      :     3.998654  p :     9.998347
      px      :     2.999570
      py      :     3.000123
      dz2     :     0.005686  d :     0.005696
      dxz     :     0.000000
      dyz     :     0.000010
      dx2y2   :     0.000000
      dxy     :     0.000000
      f0      :     0.000785  f :     0.001653
      f+1     :     0.000433
      f-1     :     0.000434
      f+2     :     0.000001
      f-2     :     0.000001
      f+3     :     0.000000
      f-3     :     0.000000
      g0      :     0.000000  g :     0.000000
      g+1     :     0.000000
      g-1     :     0.000000
      g+2     :     0.000000
      g-2     :     0.000000
      g+3     :     0.000000
      g-3     :     0.000000
      g+4     :     0.000000
      g-4     :     0.000000

SPIN
  0 S s       :     0.001971  s :     0.001971
      pz      :    -0.000126  p :     1.998446
      px      :     0.999563
      py      :     0.999010
      dz2     :    -0.001968  d :    -0.001971
      dxz     :    -0.000000
      dyz     :    -0.000003
      dx2y2   :    -0.000000
      dxy     :    -0.000000
      f0      :     0.000686  f :     0.001554
      f+1     :     0.000433
      f-1     :     0.000434
      f+2     :     0.000001
      f-2     :     0.000001
      f+3     :     0.000000
      f-3     :     0.000000
      g0      :     0.000000  g :     0.000000
      g+1     :     0.000000
      g-1     :     0.000000
      g+2     :     0.000000
      g-2     :     0.000000
      g+3     :     0.000000
      g-3     :     0.000000
      g+4     :     0.000000
      g-4     :     0.000000


                     *******************************
                     * LOEWDIN POPULATION ANALYSIS *
                     *******************************

-------------------------------------------
LOEWDIN ATOMIC CHARGES AND SPIN POPULATIONS
-------------------------------------------
   0 S :   -0.000000    2.000000

----------------------------------------------------
LOEWDIN REDUCED ORBITAL CHARGES AND SPIN POPULATIONS
----------------------------------------------------
CHARGE
  0 S s       :     5.994304  s :     5.994304
      pz      :     3.998654  p :     9.998347
      px      :     2.999570
      py      :     3.000123
      dz2     :     0.005686  d :     0.005696
      dxz     :     0.000000
      dyz     :     0.000010
      dx2y2   :     0.000000
      dxy     :     0.000000
      f0      :     0.000785  f :     0.001653
      f+1     :     0.000433
      f-1     :     0.000434
      f+2     :     0.000001
      f-2     :     0.000001
      f+3     :     0.000000
      f-3     :     0.000000
      g0      :     0.000000  g :     0.000000
      g+1     :     0.000000
      g-1     :     0.000000
      g+2     :     0.000000
      g-2     :     0.000000
      g+3     :     0.000000
      g-3     :     0.000000
      g+4     :     0.000000
      g-4     :     0.000000

SPIN
  0 S s       :     0.001971  s :     0.001971
      pz      :    -0.000126  p :     1.998446
      px      :     0.999563
      py      :     0.999010
      dz2     :    -0.001968  d :    -0.001971
      dxz     :    -0.000000
      dyz     :    -0.000003
      dx2y2   :    -0.000000
      dxy     :    -0.000000
      f0      :     0.000686  f :     0.001554
      f+1     :     0.000433
      f-1     :     0.000434
      f+2     :     0.000001
      f-2     :     0.000001
      f+3     :     0.000000
      f-3     :     0.000000
      g0      :     0.000000  g :     0.000000
      g+1     :     0.000000
      g-1     :     0.000000
      g+2     :     0.000000
      g-2     :     0.000000
      g+3     :     0.000000
      g-3     :     0.000000
      g+4     :     0.000000
      g-4     :     0.000000


                      *****************************
                      * MAYER POPULATION ANALYSIS *
                      *****************************

  NA   - Mulliken gross atomic population
  ZA   - Total nuclear charge
  QA   - Mulliken gross atomic charge
  VA   - Mayer's total valence
  BVA  - Mayer's bonded valence
  FA   - Mayer's free valence

  ATOM       NA         ZA         QA         VA         BVA        FA
  0 S     16.0000    16.0000    -0.0000     2.0265     0.0000     2.0265

  Mayer bond orders larger than 0.100000


-------
TIMINGS
-------

Total SCF time: 0 days 0 hours 0 min 4 sec 

Total time                  ....       4.856 sec
Sum of individual times     ....       3.675 sec  ( 75.7%)

Fock matrix formation       ....       3.245 sec  ( 66.8%)
Diagonalization             ....       0.042 sec  (  0.9%)
Density matrix formation    ....       0.005 sec  (  0.1%)
Population analysis         ....       0.031 sec  (  0.6%)
Initial guess               ....       0.138 sec  (  2.8%)
Orbital Transformation      ....       0.000 sec  (  0.0%)
Orbital Orthonormalization  ....       0.000 sec  (  0.0%)
DIIS solution               ....       0.187 sec  (  3.8%)


           ************************************************************
           *        Program running with 15 parallel MPI-processes    *
           *              working on a common directory               *
           ************************************************************


------------------------------------------------------------------------------- 
                              ORCA-MATRIX DRIVEN CI                            
------------------------------------------------------------------------------- 

--------------------------------
AUTOMATIC CHOICE OF INCORE LEVEL
--------------------------------

Memory available                           ...   2500.00 MB
Memory needed for S+T                      ...      1.29 MB
Memory needed for J+K                      ...      2.59 MB
Memory needed for DIIS                     ...     18.02 MB
Memory needed for 3-ext                    ...     12.87 MB
Memory needed for 4-ext                    ...    122.31 MB
Memory needed for triples                  ...     16.09 MB
 -> Final InCoreLevel    ... 5
 -> check shows that triples correction can be computed


Wavefunction type
-----------------
Correlation treatment                      ...      CCSD     
Single excitations                         ... ON
Orbital optimization                       ... OFF
Calculation of Z vector                    ... OFF
Calculation of Brueckner orbitals          ... OFF
Perturbative triple excitations            ... ON
Calculation of F12 correction              ... OFF
Frozen core treatment                      ... chemical core (10 el)
Reference Wavefunction                     ... UHF
  Alpha-MOs occ    :     5 ...    8 (  4 MO's/  4 electrons)
  Beta-MOs occ     :     5 ...    6 (  2 MO's/  2 electrons)
  Alpha-MOs virt   :     9 ...   83 ( 75 MO's              )
  Beta-MOs virt    :     7 ...   83 ( 77 MO's              )
Number of AO's                             ...     84
Number of electrons                        ...     16
Number of correlated electrons             ...      6

Algorithmic settings
--------------------
Integral transformation                    ... AO direct full transformation
K(C) Formation                             ... FULL-MO TRAFO
Maximum number of iterations               ...        50
Convergence tolerance (max. residuum)      ... 1.000e-05
Level shift for amplitude update           ... 2.000e-01
Maximum number of DIIS vectors             ...         7
DIIS turned on at iteration                ...         0
Damping before turning on DIIS             ...     0.500
Damping after turning on DIIS              ...     0.000
Pair specific amplitude update             ... OFF
Natural orbital iterations                 ... OFF
Perturbative natural orbital generation    ... OFF
Printlevel                                 ... 2

Memory handling:
----------------
Maximum memory for working arrays          ...   2500 MB
Data storage in matrix containers          ... UNCOMPRESSED
Data type for integral storage             ... DOUBLE
In-Core Storage of quantities:
   Amplitudes+Sigma Vector      ... YES
   J+K operators                ... YES
   DIIS vectors                 ... YES
   3-external integrals         ... YES
   4-external integrals         ... YES


Initializing the integral package          ... done
Warning: reference  - re-canonicalizations have been set to INT 1 VIRT 1

--------------------------
UNRESTRICTED FOCK OPERATOR
--------------------------

<ss|ss>:          406 b            0 skpd (  0.0%)    0.005 s ( 0.013 ms/b)
<ss|sp>:         1176 b            0 skpd (  0.0%)    0.018 s ( 0.016 ms/b)
<ss|sd>:          784 b            0 skpd (  0.0%)    0.003 s ( 0.003 ms/b)
<ss|sf>:          588 b            0 skpd (  0.0%)    0.002 s ( 0.004 ms/b)
<ss|sg>:          392 b            0 skpd (  0.0%)    0.003 s ( 0.007 ms/b)
<ss|pp>:          588 b            0 skpd (  0.0%)    0.011 s ( 0.019 ms/b)
<ss|pd>:          672 b            0 skpd (  0.0%)    0.003 s ( 0.004 ms/b)
<ss|pf>:          504 b            0 skpd (  0.0%)    0.002 s ( 0.004 ms/b)
<ss|pg>:          336 b            0 skpd (  0.0%)    0.003 s ( 0.009 ms/b)
<ss|dd>:          280 b            0 skpd (  0.0%)    0.000 s ( 0.001 ms/b)
<ss|df>:          336 b            0 skpd (  0.0%)    0.000 s ( 0.001 ms/b)
<ss|dg>:          224 b            0 skpd (  0.0%)    0.001 s ( 0.003 ms/b)
<ss|ff>:          168 b            0 skpd (  0.0%)    0.001 s ( 0.004 ms/b)
<ss|fg>:          168 b            0 skpd (  0.0%)    0.001 s ( 0.006 ms/b)
<ss|gg>:           84 b            0 skpd (  0.0%)    0.001 s ( 0.017 ms/b)
<sp|sp>:          903 b            0 skpd (  0.0%)    0.011 s ( 0.013 ms/b)
<sp|sd>:         1176 b            0 skpd (  0.0%)    0.003 s ( 0.003 ms/b)
<sp|sf>:          882 b            0 skpd (  0.0%)    0.003 s ( 0.003 ms/b)
<sp|sg>:          588 b            0 skpd (  0.0%)    0.004 s ( 0.007 ms/b)
<sp|pp>:          882 b            0 skpd (  0.0%)    0.010 s ( 0.011 ms/b)
<sp|pd>:         1008 b            0 skpd (  0.0%)    0.004 s ( 0.004 ms/b)
<sp|pf>:          756 b            0 skpd (  0.0%)    0.004 s ( 0.005 ms/b)
<sp|pg>:          504 b            0 skpd (  0.0%)    0.005 s ( 0.009 ms/b)
<sp|dd>:          420 b            0 skpd (  0.0%)    0.001 s ( 0.001 ms/b)
<sp|df>:          504 b            0 skpd (  0.0%)    0.001 s ( 0.002 ms/b)
<sp|dg>:          336 b            0 skpd (  0.0%)    0.001 s ( 0.004 ms/b)
<sp|ff>:          252 b            0 skpd (  0.0%)    0.001 s ( 0.005 ms/b)
<sp|fg>:          252 b            0 skpd (  0.0%)    0.002 s ( 0.007 ms/b)
<sp|gg>:          126 b            0 skpd (  0.0%)    0.002 s ( 0.020 ms/b)
<sd|sd>:          406 b            0 skpd (  0.0%)    0.001 s ( 0.002 ms/b)
<sd|sf>:          588 b            0 skpd (  0.0%)    0.001 s ( 0.002 ms/b)
<sd|sg>:          392 b            0 skpd (  0.0%)    0.002 s ( 0.004 ms/b)
<sd|pp>:          588 b            0 skpd (  0.0%)    0.004 s ( 0.007 ms/b)
<sd|pd>:          672 b            2 skpd (  0.3%)    0.002 s ( 0.003 ms/b)
<sd|pf>:          504 b            0 skpd (  0.0%)    0.002 s ( 0.003 ms/b)
<sd|pg>:          336 b            7 skpd (  2.1%)    0.002 s ( 0.007 ms/b)
<sd|dd>:          280 b            0 skpd (  0.0%)    0.000 s ( 0.001 ms/b)
<sd|df>:          336 b            0 skpd (  0.0%)    0.001 s ( 0.002 ms/b)
<sd|dg>:          224 b            0 skpd (  0.0%)    0.001 s ( 0.004 ms/b)
<sd|ff>:          168 b            0 skpd (  0.0%)    0.001 s ( 0.006 ms/b)
<sd|fg>:          168 b            0 skpd (  0.0%)    0.001 s ( 0.008 ms/b)
<sd|gg>:           84 b            0 skpd (  0.0%)    0.002 s ( 0.023 ms/b)
<sf|sf>:          231 b            0 skpd (  0.0%)    0.001 s ( 0.006 ms/b)
<sf|sg>:          294 b            1 skpd (  0.3%)    0.003 s ( 0.009 ms/b)
<sf|pp>:          441 b            0 skpd (  0.0%)    0.007 s ( 0.015 ms/b)
<sf|pd>:          504 b            2 skpd (  0.4%)    0.003 s ( 0.006 ms/b)
<sf|pf>:          378 b            2 skpd (  0.5%)    0.003 s ( 0.008 ms/b)
<sf|pg>:          252 b            2 skpd (  0.8%)    0.004 s ( 0.018 ms/b)
<sf|dd>:          210 b            0 skpd (  0.0%)    0.000 s ( 0.002 ms/b)
<sf|df>:          252 b            1 skpd (  0.4%)    0.001 s ( 0.004 ms/b)
<sf|dg>:          168 b            3 skpd (  1.8%)    0.001 s ( 0.008 ms/b)
<sf|ff>:          126 b            0 skpd (  0.0%)    0.002 s ( 0.013 ms/b)
<sf|fg>:          126 b            0 skpd (  0.0%)    0.002 s ( 0.018 ms/b)
<sf|gg>:           63 b            6 skpd (  9.5%)    0.003 s ( 0.046 ms/b)
<sg|sg>:          105 b            0 skpd (  0.0%)    0.003 s ( 0.025 ms/b)
<sg|pp>:          294 b            0 skpd (  0.0%)    0.009 s ( 0.030 ms/b)
<sg|pd>:          336 b           15 skpd (  4.5%)    0.004 s ( 0.011 ms/b)
<sg|pf>:          252 b            3 skpd (  1.2%)    0.004 s ( 0.014 ms/b)
<sg|pg>:          168 b           28 skpd ( 16.7%)    0.004 s ( 0.031 ms/b)
<sg|dd>:          140 b            0 skpd (  0.0%)    0.001 s ( 0.004 ms/b)
<sg|df>:          168 b            4 skpd (  2.4%)    0.001 s ( 0.007 ms/b)
<sg|dg>:          112 b            3 skpd (  2.7%)    0.002 s ( 0.016 ms/b)
<sg|ff>:           84 b            0 skpd (  0.0%)    0.002 s ( 0.021 ms/b)
<sg|fg>:           84 b           12 skpd ( 14.3%)    0.002 s ( 0.029 ms/b)
<sg|gg>:           42 b            6 skpd ( 14.3%)    0.003 s ( 0.083 ms/b)
<pp|pp>:          231 b            0 skpd (  0.0%)    0.006 s ( 0.027 ms/b)
<pp|pd>:          504 b            0 skpd (  0.0%)    0.003 s ( 0.006 ms/b)
<pp|pf>:          378 b            0 skpd (  0.0%)    0.003 s ( 0.007 ms/b)
<pp|pg>:          252 b            0 skpd (  0.0%)    0.004 s ( 0.016 ms/b)
<pp|dd>:          210 b            0 skpd (  0.0%)    0.001 s ( 0.002 ms/b)
<pp|df>:          252 b            0 skpd (  0.0%)    0.001 s ( 0.003 ms/b)
<pp|dg>:          168 b            0 skpd (  0.0%)    0.001 s ( 0.008 ms/b)
<pp|ff>:          126 b            0 skpd (  0.0%)    0.001 s ( 0.011 ms/b)
<pp|fg>:          126 b            0 skpd (  0.0%)    0.002 s ( 0.016 ms/b)
<pp|gg>:           63 b            0 skpd (  0.0%)    0.003 s ( 0.045 ms/b)
<pd|pd>:          300 b            0 skpd (  0.0%)    0.001 s ( 0.004 ms/b)
<pd|pf>:          432 b            0 skpd (  0.0%)    0.002 s ( 0.006 ms/b)
<pd|pg>:          288 b            0 skpd (  0.0%)    0.003 s ( 0.011 ms/b)
<pd|dd>:          240 b            0 skpd (  0.0%)    0.001 s ( 0.003 ms/b)
<pd|df>:          288 b            0 skpd (  0.0%)    0.001 s ( 0.004 ms/b)
<pd|dg>:          192 b            0 skpd (  0.0%)    0.002 s ( 0.009 ms/b)
<pd|ff>:          144 b            0 skpd (  0.0%)    0.002 s ( 0.012 ms/b)
<pd|fg>:          144 b            0 skpd (  0.0%)    0.002 s ( 0.017 ms/b)
<pd|gg>:           72 b            0 skpd (  0.0%)    0.003 s ( 0.046 ms/b)
<pf|pf>:          171 b            0 skpd (  0.0%)    0.002 s ( 0.012 ms/b)
<pf|pg>:          216 b            0 skpd (  0.0%)    0.005 s ( 0.022 ms/b)
<pf|dd>:          180 b            0 skpd (  0.0%)    0.001 s ( 0.004 ms/b)
<pf|df>:          216 b            0 skpd (  0.0%)    0.001 s ( 0.007 ms/b)
<pf|dg>:          144 b            0 skpd (  0.0%)    0.002 s ( 0.013 ms/b)
<pf|ff>:          108 b            0 skpd (  0.0%)    0.002 s ( 0.023 ms/b)
<pf|fg>:          108 b            0 skpd (  0.0%)    0.003 s ( 0.031 ms/b)
<pf|gg>:           54 b            0 skpd (  0.0%)    0.004 s ( 0.083 ms/b)
<pg|pg>:           78 b            0 skpd (  0.0%)    0.004 s ( 0.049 ms/b)
<pg|dd>:          120 b            0 skpd (  0.0%)    0.001 s ( 0.007 ms/b)
<pg|df>:          144 b            0 skpd (  0.0%)    0.001 s ( 0.010 ms/b)
<pg|dg>:           96 b            2 skpd (  2.1%)    0.002 s ( 0.024 ms/b)
<pg|ff>:           72 b            0 skpd (  0.0%)    0.002 s ( 0.031 ms/b)
<pg|fg>:           72 b            0 skpd (  0.0%)    0.004 s ( 0.052 ms/b)
<pg|gg>:           36 b            2 skpd (  5.6%)    0.005 s ( 0.145 ms/b)
<dd|dd>:           55 b            0 skpd (  0.0%)    0.000 s ( 0.006 ms/b)
<dd|df>:          120 b            0 skpd (  0.0%)    0.001 s ( 0.005 ms/b)
<dd|dg>:           80 b            0 skpd (  0.0%)    0.001 s ( 0.011 ms/b)
<dd|ff>:           60 b            0 skpd (  0.0%)    0.001 s ( 0.015 ms/b)
<dd|fg>:           60 b            0 skpd (  0.0%)    0.001 s ( 0.022 ms/b)
<dd|gg>:           30 b            0 skpd (  0.0%)    0.002 s ( 0.057 ms/b)
<df|df>:           78 b            0 skpd (  0.0%)    0.001 s ( 0.016 ms/b)
<df|dg>:           96 b            0 skpd (  0.0%)    0.002 s ( 0.018 ms/b)
<df|ff>:           72 b            0 skpd (  0.0%)    0.002 s ( 0.030 ms/b)
<df|fg>:           72 b            0 skpd (  0.0%)    0.003 s ( 0.039 ms/b)
<df|gg>:           36 b            0 skpd (  0.0%)    0.004 s ( 0.102 ms/b)
<dg|dg>:           36 b            0 skpd (  0.0%)    0.002 s ( 0.046 ms/b)
<dg|ff>:           48 b            0 skpd (  0.0%)    0.002 s ( 0.034 ms/b)
<dg|fg>:           48 b            0 skpd (  0.0%)    0.003 s ( 0.056 ms/b)
<dg|gg>:           24 b            0 skpd (  0.0%)    0.004 s ( 0.150 ms/b)
<ff|ff>:           21 b            0 skpd (  0.0%)    0.001 s ( 0.064 ms/b)
<ff|fg>:           36 b            0 skpd (  0.0%)    0.002 s ( 0.066 ms/b)
<ff|gg>:           18 b            0 skpd (  0.0%)    0.003 s ( 0.179 ms/b)
<fg|fg>:           21 b            0 skpd (  0.0%)    0.003 s ( 0.163 ms/b)
<fg|gg>:           18 b            0 skpd (  0.0%)    0.005 s ( 0.279 ms/b)
<gg|gg>:            6 b            0 skpd (  0.0%)    0.005 s ( 0.786 ms/b)
Recanonicalizing the internal orbitals
Recanonicalizing the virtual orbitals
Time needed for Fock operator              ...            0.652 sec
Reference energy                           ...   -397.512691371
Warning: for UHF the TrafoType has to be JK
Warning: for UHF the K(C)-option cannot be MO but must be AOX

-------------------------------
PARTIAL EXCHANGE TRANSFORMATION
-------------------------------

Transformation type                        ... two-operators
Generation of integrals (i,mue|j,nue)      ... ON
Generation of integrals (mue,kappa|nue,tau)... ON
Generation of integrals (i,mue|a,nue)      ... ON
Dimension of the basis                     ...   84
Number of internal alpha-MOs               ...    4 (   5-   8)
Number of internal beta-MOs                ...    2 (   5-   6)
Number of external alpha-MOs               ...   75 (   9-  83)
Number of external beta-MOs                ...   77 (   7-  83)
Pair cutoff                                ... 0.000e+00 Eh
Number of AO pairs in the trafo            ... 3570
Total Number of distinct AO pairs          ... 3570
Memory devoted for trafo                   ... 2500.0 MB 
Max. Number of MO pairs treated together   ... 46439      
Number Format for Storage                  ... Double (8 Byte)
Integral package used                      ... LIBINT

Starting integral evaluation:
    ... done with AO integral generation
Closing buffer AOK[aa] ( 0.00 GB; CompressionRatio= 0.91)
Closing buffer AOK[bb] ( 0.00 GB; CompressionRatio= 0.73)
Closing buffer AOK[ab] ( 0.00 GB; CompressionRatio= 0.84)
Closing buffer AOK[ba] ( 0.00 GB; CompressionRatio= 0.84)
Collecting buffer AOK 
Closing buffer IAAO1[aa] ( 0.00 GB; CompressionRatio= 1.00)
Closing buffer IAAO1[bb] ( 0.00 GB; CompressionRatio= 0.99)
Closing buffer IAAO1[ab] ( 0.00 GB; CompressionRatio= 1.00)
Closing buffer IAAO1[ba] ( 0.00 GB; CompressionRatio= 0.99)
Closing buffer IAAO2[aa] ( 0.00 GB; CompressionRatio= 1.00)
Closing buffer IAAO2[bb] ( 0.00 GB; CompressionRatio= 0.99)
Closing buffer IAAO2[ab] ( 0.00 GB; CompressionRatio= 1.00)
Closing buffer IAAO2[ba] ( 0.00 GB; CompressionRatio= 0.99)
Collecting buffer IAAO 
Closing buffer PRQS    ( 0.00 GB; CompressionRatio= 1.00)
Collecting buffer PRQS 
Number of alpha/alpha MO pairs in trafo    ...   10
Number of beta /beta  MO pairs in trafo    ...    3
Number of alpha/ beta MO pairs in trafo    ...    8
------------------------
SORTING OF (i,mue|j,nue)
------------------------

SORTING OF ALPHA/ALPHA PAIRS
IBATCH = 1 of  1
Closing buffer KAO[aa] ( 0.00 GB; CompressionRatio= 1.00)
Collecting buffer KAO 
SORTING OF BETA /BETA  PAIRS
IBATCH = 1 of  1
Closing buffer KAO[bb] ( 0.00 GB; CompressionRatio= 1.00)
Collecting buffer KAO 
SORTING OF ALPHA/BETA  PAIRS
IBATCH = 1 of  1
Closing buffer KAO[ab] ( 0.00 GB; CompressionRatio= 0.999787460149)
Collecting buffer KAO[ab] 
------------------------
SORTING OF (i,mue|a,nue)
------------------------

Number of alpha/alpha (i,a) pairs in trafo  ...  300
Number of beta /beta  (i,a) pairs in trafo  ...  154
Number of alpha/ beta (i,a) pairs in trafo  ...  308
Number of beta /alpha (i,a) pairs in trafo  ...  150
Setting up the alpha/alpha list             ... done
Setting up the beta /beta  list             ... done
Setting up the alpha/beta  list             ... done
Setting up the beta /alpha list             ... done
    ... Now sorting (i,mue|a,nue)integrals
    ... Integrals (i,b|a,c) will be made on the fly
SORTING OF ALPHA/ALPHA PAIRS
IBATCH = 1 of  1
Closing buffer IPAQ[aa]  0.00 GB; CompressionRatio= 1.00)
SORTING OF BETA /BETA  PAIRS
IBATCH = 1 of  1
Closing buffer IPAQ[bb]( 0.00 GB; CompressionRatio= 1.00)
SORTING OF ALPHA/BETA  PAIRS (NMatSort_ab=21)
IBATCH = 1 of  1
Closing buffer IPAQ[ab]( 0.00 GB; CompressionRatio= 1.00)
SORTING OF BETA/ALPHA  PAIRS
IBATCH = 1 of  1
Closing buffer IPAQ[ba]( 0.00 GB; CompressionRatio= 1.00)
N(AO-Batches) Done                         ...      3872 
N(AO-Batches) Skipped                      ...         0 
N(IJ)-pairs Skipped                        ...         0 
TOTAL TIME for half transformation         ...    10.502 sec
AO-integral generation                     ...     0.193 sec
Half transformation                        ...     2.588 sec
K-integral sorting                         ...     0.767 sec
<ss|**>: 
------------------------------
PARTIAL COULOMB TRANSFORMATION
------------------------------

Transformation type                        ... two-operators
Dimension of the basis                     ...   84
Number of internal alpha-MOs               ...    4 (5-8)
Number of internal beta-MOs                ...    2 (5-6)
Pair cutoff                                ... 0.000e+00 Eh
Number of AO pairs included in the trafo   ... 3570
Total Number of distinct AO pairs          ... 3570
Memory devoted for trafo                   ... 2500.0 MB 
Max. Number of MO pairs treated together   ... 91787      
Max. Number of MOs treated per batch       ... 1092      
Number Format for Storage                  ... Double (8 Byte)
AO-integral source                         ... DIRECT
Integral package used                      ... LIBINT

Starting integral evaluation:
<sp|**>:         7084 b        0 skpd     0.056 s (  0.008 ms/b)
       10626 b        0 skpd     0.068 s (  0.006 ms/b)
<sd|**>:         7084 b        0 skpd     0.035 s (  0.005 ms/b)
<sf|**>:         5313 b        0 skpd     0.050 s (  0.009 ms/b)
<sg|**>:         3542 b        0 skpd     0.066 s (  0.019 ms/b)
<pp|**>:         5313 b        0 skpd     0.085 s (  0.016 ms/b)
<pd|**>:         6072 b        0 skpd     0.067 s (  0.011 ms/b)
<pf|**>:         4554 b        0 skpd     0.091 s (  0.020 ms/b)
<pg|**>:         3036 b        0 skpd     0.073 s (  0.024 ms/b)
<dd|**>:         2530 b        0 skpd     0.033 s (  0.013 ms/b)
<df|**>:         3036 b        0 skpd     0.056 s (  0.018 ms/b)
<dg|**>:         2024 b        0 skpd     0.058 s (  0.029 ms/b)
<ff|**>:         1518 b        0 skpd     0.056 s (  0.037 ms/b)
<fg|**>:         1518 b        0 skpd     0.088 s (  0.058 ms/b)
<gg|**>:          759 b        0 skpd     0.285 s (  0.375 ms/b)
Closing buffer AOJ[aa] ( 0.00 GB; CompressionRatio= 0.87)
Closing buffer AOJ[bb] ( 0.00 GB; CompressionRatio= 0.00)
Collecting buffer AOJ 
    ... done with AO integral generation
Number of Alpha-MO pairs included          ...   10
Number of Beta-MO pairs included           ...    3
    ... Now sorting integrals
SORTING ALPHA/ALPHA PAIRS
IBATCH = 1 of  1
Closing buffer JAO[aa] ( 0.00 GB; CompressionRatio= 1.00)
SORTING BETA/BETA PAIRS
IBATCH = 1 of  1
Closing buffer JAO[bb] ( 0.00 GB; CompressionRatio= 1.00)
Collecting buffer JAO 
TOTAL TIME for half transformation         ...     2.100 sec
AO-integral generation                     ...     0.987 sec
Half transformation                        ...     0.187 sec
J-integral sorting                         ...     0.267 sec

-------------------------- SECOND HALF TRANSFORMATION -------------------------
Formation of (ij|kl),(ij|ka), (ij|ab)      ... ok (     0.089 sec)
Formation of (ik|jl),(ik|ja), (ia|jb)      ... ok (     0.095 sec)


-----------------------
SPIN UNRESTRICTED GUESS
-----------------------

Entering MDCI_UHF_Guess, Tailored=0
Spin-components of the MP2 energy:
EMP2(aa)=     -0.025163848
EMP2(bb)=     -0.003260971
EMP2(ab)=     -0.099814134

Initial guess performed in     0.003 sec
E(0)                                       ...   -397.512691371
E(MP2)                                     ...     -0.128238953
Initial E(tot)                             ...   -397.640930325
<T|T>                                      ...      0.051408308
Number of pairs included                   ... 15

------------------------------------------------
                  UHF COUPLED CLUSTER ITERATIONS
------------------------------------------------

Number of amplitudes to be optimized       ...        66263

Iter       E(tot)           E(Corr)          Delta-E          Residual     Time      <S|S>**1/2
  0   -397.640930325     -0.128238953     -0.000000000      0.020006339    0.49      0.000000762
                           *** Turning on DIIS ***
  1   -397.655356282     -0.142664910     -0.014425957      0.009391690    0.46      0.010853257
  2   -397.661360148     -0.148668776     -0.006003866      0.002868589    0.48      0.017687011
  3   -397.662010336     -0.149318965     -0.000650189      0.000587628    0.46      0.019974138
  4   -397.662115257     -0.149423886     -0.000104921      0.000106969    0.41      0.020581564
  5   -397.662132002     -0.149440631     -0.000016745      0.000055384    0.44      0.020667561
  6   -397.662131552     -0.149440181      0.000000450      0.000023000    0.46      0.020667987
  7   -397.662131886     -0.149440515     -0.000000334      0.000007553    0.48      0.020659776
               --- The Coupled-Cluster iterations have converged ---

----------------------
COUPLED CLUSTER ENERGY
----------------------

E(0)                                       ...   -397.512691371
E(CORR)                                    ...     -0.149440515
E(TOT)                                     ...   -397.662131886
Singles norm <S|S>**1/2                    ...      0.020659776 ( 0.009622824, 0.011036953)  
T1 diagnostic                              ...      0.008434318                              

------------------
LARGEST AMPLITUDES
------------------
   8a-> 28a   6b-> 29b       0.041698
   8a-> 24a   6b-> 30b       0.032566
   8a-> 25a   6b-> 31b       0.032566
   8a-> 24a   5b->  7b       0.030588
   8a-> 25a   5b->  8b       0.030588
   7a-> 22a   6a-> 21a       0.028069
   7a-> 21a   6a-> 22a       0.028069
   7a-> 21a   5b->  8b       0.028067
   6a-> 21a   5b->  7b       0.028067
   6a-> 22a   5b->  8b       0.028067
   7a-> 22a   5b->  7b       0.028067
   8a-> 24a   7a-> 28a       0.026893
   8a-> 28a   7a-> 24a       0.026893
   8a-> 25a   6a-> 28a       0.026893
   8a-> 28a   6a-> 25a       0.026893
   8a-> 20a   6b-> 18b       0.025312

----------------------
UHF TRIPLES CORRECTION (Algorithm 1)
----------------------

Multiplier for the singles contribution    ...      1.000000000

SPIN-CASE Alpha-Alpha-Alpha:
10% done
20% done
30% done
40% done
50% done
60% done
70% done
80% done
90% done


SPIN-CASE Beta-Beta-Beta:

SPIN-CASE Alpha-Alpha-Beta:
10% done
20% done
30% done
40% done
50% done
60% done
70% done
80% done
90% done


SPIN-CASE Beta-Beta-Alpha:
10% done
20% done
30% done
40% done
50% done
60% done
70% done
80% done
90% done


Triples Correction (T)                     ...     -0.005852151
    alpha-alpha-alpha ... -0.000297802 (  5.1%)
    alpha-alpha-beta  ... -0.004316610 ( 73.8%)
    alpha-beta -beta  ... -0.001237739 ( 21.2%)
    beta -beta -beta  ...  0.000000000 ( -0.0%)
Scaling of triples based on CCSD energies (Peterson et al. Molecular Physics 113, 1551 (2015))
E(T*) = f*E(T) where f = E(F12-CCSD)/E(CCSD) 
f = CCSD (with F12)/ CCSD (without F12)    ...      1.000000000
Scaled triples correction (T)              ...     -0.005852151

Final correlation energy                   ...     -0.155292666
E(CCSD)                                    ...   -397.662131886
E(CCSD(T))                                 ...   -397.667984037



        !!!!!!!!!!!!!!!!!!!!!!!!!!!!!!!!!!!!!!!!!!!!!!!!!!!!!!!!!!!!!!!!!!!!!!!!!! 
        !  Warning: Densities are linearized densities                           !
        !!!!!!!!!!!!!!!!!!!!!!!!!!!!!!!!!!!!!!!!!!!!!!!!!!!!!!!!!!!!!!!!!!!!!!!!!! 

NORM  =      1.075967341 sqrt=     1.037288456
W(HF) =      0.929396239
------------------------------------------------------------------------------
                           ORCA POPULATION ANALYSIS
------------------------------------------------------------------------------
Input electron density              ... 16_S.mdcip
Input spin density                  ... 16_S.mdcir
BaseName (.gbw .S,...)              ... 16_S

                    ********************************
                    * MULLIKEN POPULATION ANALYSIS *
                    ********************************

------------------------------------------
MULLIKEN ATOMIC CHARGES AND SPIN DENSITIES
------------------------------------------
   0 S :   -0.000000    2.000000
Sum of atomic charges       :   -0.0000000
Sum of atomic spin densities:    2.0000000

---------------------------------------------------
MULLIKEN REDUCED ORBITAL CHARGES AND SPIN DENSITIES
---------------------------------------------------
CHARGE
  0 S s       :     5.959060  s :     5.959060
      pz      :     3.951002  p :     9.941327
      px      :     2.994898
      py      :     2.995428
      dz2     :     0.020503  d :     0.086965
      dxz     :     0.018946
      dyz     :     0.018949
      dx2y2   :     0.014284
      dxy     :     0.014284
      f0      :     0.002313  f :     0.011222
      f+1     :     0.002149
      f-1     :     0.002150
      f+2     :     0.001589
      f-2     :     0.001589
      f+3     :     0.000716
      f-3     :     0.000716
      g0      :     0.000235  g :     0.001425
      g+1     :     0.000223
      g-1     :     0.000223
      g+2     :     0.000187
      g-2     :     0.000187
      g+3     :     0.000130
      g-3     :     0.000130
      g+4     :     0.000056
      g-4     :     0.000056

SPIN
  0 S s       :     0.022942  s :     0.022942
      pz      :     0.000461  p :     1.934259
      px      :     0.967167
      py      :     0.966631
      dz2     :     0.003800  d :     0.038304
      dxz     :     0.005523
      dyz     :     0.005520
      dx2y2   :     0.011730
      dxy     :     0.011730
      f0      :     0.000927  f :     0.004529
      f+1     :     0.000866
      f-1     :     0.000866
      f+2     :     0.000646
      f-2     :     0.000646
      f+3     :     0.000289
      f-3     :     0.000289
      g0      :    -0.000023  g :    -0.000033
      g+1     :    -0.000021
      g-1     :    -0.000021
      g+2     :    -0.000013
      g-2     :    -0.000013
      g+3     :     0.000001
      g-3     :     0.000001
      g+4     :     0.000027
      g-4     :     0.000027


                     *******************************
                     * LOEWDIN POPULATION ANALYSIS *
                     *******************************

-----------------------------------------
LOEWDIN ATOMIC CHARGES AND SPIN DENSITIES
-----------------------------------------
   0 S :   -0.000000    2.000000

--------------------------------------------------
LOEWDIN REDUCED ORBITAL CHARGES AND SPIN DENSITIES
--------------------------------------------------
CHARGE
  0 S s       :     5.959060  s :     5.959060
      pz      :     3.951002  p :     9.941327
      px      :     2.994898
      py      :     2.995428
      dz2     :     0.020503  d :     0.086965
      dxz     :     0.018946
      dyz     :     0.018949
      dx2y2   :     0.014284
      dxy     :     0.014284
      f0      :     0.002313  f :     0.011222
      f+1     :     0.002149
      f-1     :     0.002150
      f+2     :     0.001589
      f-2     :     0.001589
      f+3     :     0.000716
      f-3     :     0.000716
      g0      :     0.000235  g :     0.001425
      g+1     :     0.000223
      g-1     :     0.000223
      g+2     :     0.000187
      g-2     :     0.000187
      g+3     :     0.000130
      g-3     :     0.000130
      g+4     :     0.000056
      g-4     :     0.000056

SPIN
  0 S s       :     0.022942  s :     0.022942
      pz      :     0.000461  p :     1.934259
      px      :     0.967167
      py      :     0.966631
      dz2     :     0.003800  d :     0.038304
      dxz     :     0.005523
      dyz     :     0.005520
      dx2y2   :     0.011730
      dxy     :     0.011730
      f0      :     0.000927  f :     0.004529
      f+1     :     0.000866
      f-1     :     0.000866
      f+2     :     0.000646
      f-2     :     0.000646
      f+3     :     0.000289
      f-3     :     0.000289
      g0      :    -0.000023  g :    -0.000033
      g+1     :    -0.000021
      g-1     :    -0.000021
      g+2     :    -0.000013
      g-2     :    -0.000013
      g+3     :     0.000001
      g-3     :     0.000001
      g+4     :     0.000027
      g-4     :     0.000027


                      *****************************
                      * MAYER POPULATION ANALYSIS *
                      *****************************

  NA   - Mulliken gross atomic population
  ZA   - Total nuclear charge
  QA   - Mulliken gross atomic charge
  VA   - Mayer's total valence
  BVA  - Mayer's bonded valence
  FA   - Mayer's free valence

  ATOM       NA         ZA         QA         VA         BVA        FA
  0 S     16.0000    16.0000    -0.0000     2.4583     0.0000     2.4583





------------------------------------------------------------------------------- 
                                     TIMINGS                                   
------------------------------------------------------------------------------- 


Total execution time                   ...       18.350 sec

Fock Matrix Formation                  ...        0.652 sec (  3.6%)
Initial Guess                          ...        0.003 sec (  0.0%)
DIIS Solver                            ...        0.034 sec (  0.2%)
State Vector Update                    ...        0.002 sec (  0.0%)
Sigma-vector construction              ...        3.649 sec ( 19.9%)
  <D|H|D>(2-ext)                       ...        0.005 sec (  0.1% of sigma)
  <D|H|D>(4-ext)                       ...        1.656 sec ( 45.4% of sigma)
  <S|H|0>                              ...        0.016 sec (  0.4% of sigma)
  <D|H|S>(1-ext)                       ...        0.006 sec (  0.2% of sigma)
  Fock-dressing                        ...        1.701 sec ( 46.6% of sigma)
  (ij|ab),(ia|jb)-dressing             ...        0.179 sec (  4.9% of sigma)
Total Time for computing (T)           ...        0.214 sec (  1.2% of ALL)
  I/O of integral and amplitudes       ...        0.076 sec ( 35.2% of (T))
  External N**7 contributions          ...        0.042 sec ( 19.7% of (T))
  Internal N**7 contributions          ...        0.013 sec (  6.1% of (T))
  N**6 triples energy contributions    ...        0.055 sec ( 25.5% of (T))


-------------------------   --------------------
FINAL SINGLE POINT ENERGY      -397.667984036866
-------------------------   --------------------


                            ***************************************
                            *     ORCA property calculations      *
                            ***************************************

                                    ---------------------
                                    Active property flags
                                    ---------------------
   (+) Dipole Moment


------------------------------------------------------------------------------
                       ORCA ELECTRIC PROPERTIES CALCULATION
------------------------------------------------------------------------------

Dipole Moment Calculation                       ... on
Quadrupole Moment Calculation                   ... off
Polarizability Calculation                      ... off
GBWName                                         ... 16_S.gbw
Electron density file                           ... 16_S.scfp
The origin for moment calculation is the CENTER OF MASS  = ( 0.000000,  0.000000  0.000000)

-------------
DIPOLE MOMENT
-------------
                                X             Y             Z
Electronic contribution:     -0.00000      -0.00000       0.00000
Nuclear contribution   :      0.00000       0.00000       0.00000
                        -----------------------------------------
Total Dipole Moment    :     -0.00000      -0.00000       0.00000
                        -----------------------------------------
Magnitude (a.u.)       :      0.00000
Magnitude (Debye)      :      0.00000



--------------------
Rotational spectrum 
--------------------
 
Rotational constants in cm-1:     0.000000     0.000000     0.000000 
Rotational constants in MHz :     0.000000     0.000000     0.000000 

 Dipole components along the rotational axes: 
x,y,z [a.u.] :    -0.000000    -0.000000     0.000000 
x,y,z [Debye]:    -0.000000    -0.000000     0.000000 

 

                           *** MDCI DENSITY ***

------------------------------------------------------------------------------
                       ORCA ELECTRIC PROPERTIES CALCULATION
------------------------------------------------------------------------------

Dipole Moment Calculation                       ... on
Quadrupole Moment Calculation                   ... off
Polarizability Calculation                      ... off
GBWName                                         ... 16_S.gbw
Electron density file                           ... 16_S.mdcip
The origin for moment calculation is the CENTER OF MASS  = ( 0.000000,  0.000000  0.000000)

-------------
DIPOLE MOMENT
-------------
                                X             Y             Z
Electronic contribution:     -0.00000      -0.00000       0.00000
Nuclear contribution   :      0.00000       0.00000       0.00000
                        -----------------------------------------
Total Dipole Moment    :     -0.00000      -0.00000       0.00000
                        -----------------------------------------
Magnitude (a.u.)       :      0.00000
Magnitude (Debye)      :      0.00000



--------------------
Rotational spectrum 
--------------------
 
Rotational constants in cm-1:     0.000000     0.000000     0.000000 
Rotational constants in MHz :     0.000000     0.000000     0.000000 

 Dipole components along the rotational axes: 
x,y,z [a.u.] :    -0.000000    -0.000000     0.000000 
x,y,z [Debye]:    -0.000000    -0.000000     0.000000 

 

Timings for individual modules:

Sum of individual times         ...       25.022 sec (=   0.417 min)
GTO integral calculation        ...        0.831 sec (=   0.014 min)   3.3 %
SCF iterations                  ...        5.275 sec (=   0.088 min)  21.1 %
MDCI module                     ...       18.916 sec (=   0.315 min)  75.6 %
                             ****ORCA TERMINATED NORMALLY****
TOTAL RUN TIME: 0 days 0 hours 0 minutes 25 seconds 874 msec
