
                                 *****************
                                 * O   R   C   A *
                                 *****************

           --- An Ab Initio, DFT and Semiempirical electronic structure package ---

                  #######################################################
                  #                        -***-                        #
                  #          Department of theory and spectroscopy      #
                  #               Directorship: Frank Neese             #
                  #        Max Planck Institute fuer Kohlenforschung    #
                  #                Kaiser Wilhelm Platz 1               #
                  #                 D-45470 Muelheim/Ruhr               #
                  #                      Germany                        #
                  #                                                     #
                  #                  All rights reserved                #
                  #                        -***-                        #
                  #######################################################


                         Program Version 4.2.0 -  RELEASE  -


 With contributions from (in alphabetic order):
   Daniel Aravena         : Magnetic Suceptibility
   Michael Atanasov       : Ab Initio Ligand Field Theory (pilot matlab implementation)
   Alexander A. Auer      : GIAO ZORA, VPT2
   Ute Becker             : Parallelization
   Giovanni Bistoni       : ED, misc. LED, open-shell LED, HFLED
   Martin Brehm           : Molecular dynamics
   Dmytro Bykov           : SCF Hessian
   Vijay G. Chilkuri      : MRCI spin determinant printing, contributions to CSF-ICE
   Dipayan Datta          : RHF DLPNO-CCSD density
   Achintya Kumar Dutta   : EOM-CC, STEOM-CC
   Dmitry Ganyushin       : Spin-Orbit,Spin-Spin,Magnetic field MRCI
   Miquel Garcia          : C-PCM Hessian, Gaussian charge scheme
   Yang Guo               : DLPNO-NEVPT2, CIM, IAO-localization
   Andreas Hansen         : Spin unrestricted coupled pair/coupled cluster methods
   Benjamin Helmich-Paris : CASSCF linear response (MC-RPA)
   Lee Huntington         : MR-EOM, pCC
   Robert Izsak           : Overlap fitted RIJCOSX, COSX-SCS-MP3, EOM
   Christian Kollmar      : KDIIS, OOCD, Brueckner-CCSD(T), CCSD density
   Simone Kossmann        : Meta GGA functionals, TD-DFT gradient, OOMP2, MP2 Hessian
   Martin Krupicka        : AUTO-CI
   Lucas Lang             : DCDCAS
   Dagmar Lenk            : GEPOL surface, SMD
   Dimitrios Liakos       : Extrapolation schemes; Compound Job, initial MDCI parallelization
   Dimitrios Manganas     : Further ROCIS development; embedding schemes
   Dimitrios Pantazis     : SARC Basis sets
   Taras Petrenko         : DFT Hessian,TD-DFT gradient, ASA, ECA, R-Raman, ABS, FL, XAS/XES, NRVS
   Peter Pinski           : DLPNO-MP2, DLPNO-MP2 Gradient
   Christoph Reimann      : Effective Core Potentials
   Marius Retegan         : Local ZFS, SOC
   Christoph Riplinger    : Optimizer, TS searches, QM/MM, DLPNO-CCSD(T), (RO)-DLPNO pert. Triples
   Tobias Risthaus        : Range-separated hybrids, TD-DFT gradient, RPA, STAB
   Michael Roemelt        : Original ROCIS implementation
   Masaaki Saitow         : Open-shell DLPNO-CCSD energy and density
   Barbara Sandhoefer     : DKH picture change effects
   Avijit Sen             : IP-ROCIS
   Kantharuban Sivalingam : CASSCF convergence, NEVPT2, FIC-MRCI
   Bernardo de Souza      : ESD, SOC TD-DFT
   Georgi Stoychev        : AutoAux, RI-MP2 NMR
   Willem Van den Heuvel  : Paramagnetic NMR
   Boris Wezisla          : Elementary symmetry handling
   Frank Wennmohs         : Technical directorship


 We gratefully acknowledge several colleagues who have allowed us to
 interface, adapt or use parts of their codes:
   Stefan Grimme, W. Hujo, H. Kruse,             : VdW corrections, initial TS optimization,
                  C. Bannwarth                     DFT functionals, gCP, sTDA/sTD-DF
   Ed Valeev, F. Pavosevic, A. Kumar             : LibInt (2-el integral package), F12 methods
   Garnet Chan, S. Sharma, J. Yang, R. Olivares  : DMRG
   Ulf Ekstrom                                   : XCFun DFT Library
   Mihaly Kallay                                 : mrcc  (arbitrary order and MRCC methods)
   Andreas Klamt, Michael Diedenhofen            : otool_cosmo (COSMO solvation model)
   Jiri Pittner, Ondrej Demel                    : Mk-CCSD
   Frank Weinhold                                : gennbo (NPA and NBO analysis)
   Christopher J. Cramer and Donald G. Truhlar   : smd solvation model
   Lars Goerigk                                  : TD-DFT with DH, B97 family of functionals
   V. Asgeirsson, H. Jonsson                     : NEB implementation
   FAccTs GmbH                                   : IRC, NEB, NEB-TS, Multilevel, MM, QM/MM, CI optimization
   S Lehtola, MJT Oliveira, MAL Marques          : LibXC Library


 Your calculation uses the libint2 library for the computation of 2-el integrals
 For citations please refer to: http://libint.valeyev.net

 Your ORCA version has been built with support for libXC version: 4.2.3
 For citations please refer to: https://tddft.org/programs/libxc/

 This ORCA versions uses:
   CBLAS   interface :  Fast vector & matrix operations
   LAPACKE interface :  Fast linear algebra routines
   SCALAPACK package :  Parallel linear algebra routines


----- Orbital basis set information -----
Your calculation utilizes the basis: aug-cc-pVQZ 
    H, B-Ne : Obtained from the ccRepo (grant-hill.group.shef.ac.uk/ccrepo) Feb. 2017
              R. A. Kendall, T. H. Dunning, Jr., R. J. Harrison, J. Chem. Phys. 96, 6796 (1992)
         He : Obtained from the ccRepo (grant-hill.group.shef.ac.uk/ccrepo) Feb. 2017
              D. E. Woon, T. H. Dunning, Jr., J. Chem. Phys. 100, 2975 (1994)
  Li-Be, Na : Obtained from the ccRepo (grant-hill.group.shef.ac.uk/ccrepo) Feb. 2017
              B. P. Prascher, D. E. Woon, K. A. Peterson, T. H. Dunning, Jr., A. K. Wilson, Theor. Chem. Acc. 128, 69 (2011)
         Mg : Obtained from the Peterson Research Group Website (tyr0.chem.wsu.edu/~kipeters) Feb. 2017
              B. P. Prascher, D. E. Woon, K. A. Peterson, T. H. Dunning, Jr., A. K. Wilson, Theor. Chem. Acc. 128, 69 (2011)
      Al-Ar : Obtained from the ccRepo (grant-hill.group.shef.ac.uk/ccrepo) Feb. 2017
              D. E. Woon, T. H. Dunning, Jr., J. Chem. Phys. 98, 1358 (1993)
      Sc-Zn : Obtained from the ccRepo (grant-hill.group.shef.ac.uk/ccrepo) Feb. 2017
              N. B. Balabanov, K. A. Peterson, J. Chem. Phys. 123, 064107 (2005)
              N. B. Balabanov, K. A. Peterson, J. Chem. Phys. 125, 074110 (2006)
      Ga-Kr : Obtained from the ccRepo (grant-hill.group.shef.ac.uk/ccrepo) Feb. 2017
              A. K. Wilson, D. E. Woon, K. A. Peterson, T. H. Dunning, Jr., J. Chem. Phys. 110, 7667 (1999)

================================================================================
                                        WARNINGS
                       Please study these warnings very carefully!
================================================================================


WARNING: your system is open-shell and RHF/RKS was chosen
  ===> : WILL SWITCH to UHF/UKS


WARNING: MDCI localization with Augmented Hessian Foster-Boys
  ===> : Switching off randomization!

WARNING: Post HF methods need fully converged wavefunctions
  ===> : Setting SCFConvForced true
         You can overwrite this default with %scf ConvForced false 


INFO   : the flag for use of LIBINT has been found!

================================================================================
                                       INPUT FILE
================================================================================
NAME = 17_Cl.in
|  1> #
|  2> # 17_Cl CCSD(T)/aug-cc-pVQZ
|  3> #
|  4> ! CCSD(T) aug-cc-pVQZ tightscf
|  5> 
|  6> *xyz 0 2
|  7>  Cl 0.0 0.0 0.0
|  8> *
|  9> 
| 10> %maxcore 5000 
| 11> 
| 12> %pal
| 13> nprocs 21
| 14> end
| 15> 
| 16> 
| 17>                          ****END OF INPUT****
================================================================================

                       ****************************
                       * Single Point Calculation *
                       ****************************

---------------------------------
CARTESIAN COORDINATES (ANGSTROEM)
---------------------------------
  Cl     0.000000    0.000000    0.000000

----------------------------
CARTESIAN COORDINATES (A.U.)
----------------------------
  NO LB      ZA    FRAG     MASS         X           Y           Z
   0 Cl   17.0000    0    35.453    0.000000    0.000000    0.000000

--------------------------------
INTERNAL COORDINATES (ANGSTROEM)
--------------------------------
 Cl     0   0   0     0.000000000000     0.00000000     0.00000000

---------------------------
INTERNAL COORDINATES (A.U.)
---------------------------
 Cl     0   0   0     0.000000000000     0.00000000     0.00000000

---------------------
BASIS SET INFORMATION
---------------------
There are 1 groups of distinct atoms

 Group   1 Type Cl  : 43s20p4d3f2g contracted to 7s6p4d3f2g pattern {1313131111/881111/1111/111/11}

Atom   0Cl   basis set group =>   1


           ************************************************************
           *        Program running with 21 parallel MPI-processes    *
           *              working on a common directory               *
           ************************************************************
------------------------------------------------------------------------------
                           ORCA GTO INTEGRAL CALCULATION
------------------------------------------------------------------------------

                         BASIS SET STATISTICS AND STARTUP INFO

 # of primitive gaussian shells          ...   72
 # of primitive gaussian functions       ...  162
 # of contracted shells                  ...   22
 # of contracted basis functions         ...   84
 Highest angular momentum                ...    4
 Maximum contraction depth               ...   13
 Integral package used                   ... LIBINT
 Integral threshhold            Thresh   ...  2.500e-11
 Primitive cut-off              TCut     ...  2.500e-12


------------------------------ INTEGRAL EVALUATION ----------------------------


 * One electron integrals 
 Pre-screening matrix                    ... done
 Shell pair data                         ... done (   0.000 sec)



           ************************************************************
           *        Program running with 21 parallel MPI-processes    *
           *              working on a common directory               *
           ************************************************************
-------------------------------------------------------------------------------
                                 ORCA SCF
-------------------------------------------------------------------------------

------------
SCF SETTINGS
------------
Hamiltonian:
 Ab initio Hamiltonian  Method          .... Hartree-Fock(GTOs)


General Settings:
 Integral files         IntName         .... 17_Cl
 Hartree-Fock type      HFTyp           .... UHF
 Total Charge           Charge          ....    0
 Multiplicity           Mult            ....    2
 Number of Electrons    NEL             ....   17
 Basis Dimension        Dim             ....   84
 Nuclear Repulsion      ENuc            ....      0.0000000000 Eh

Convergence Acceleration:
 DIIS                   CNVDIIS         .... on
   Start iteration      DIISMaxIt       ....    12
   Startup error        DIISStart       ....  0.200000
   # of expansion vecs  DIISMaxEq       ....     5
   Bias factor          DIISBfac        ....   1.050
   Max. coefficient     DIISMaxC        ....  10.000
 Newton-Raphson         CNVNR           .... off
 SOSCF                  CNVSOSCF        .... off
 Level Shifting         CNVShift        .... on
   Level shift para.    LevelShift      ....    0.2500
   Turn off err/grad.   ShiftErr        ....    0.0010
 Zerner damping         CNVZerner       .... off
 Static damping         CNVDamp         .... on
   Fraction old density DampFac         ....    0.7000
   Max. Damping (<1)    DampMax         ....    0.9800
   Min. Damping (>=0)   DampMin         ....    0.0000
   Turn off err/grad.   DampErr         ....    0.1000
 Fernandez-Rico         CNVRico         .... off

SCF Procedure:
 Maximum # iterations   MaxIter         ....   125
 SCF integral mode      SCFMode         .... Direct
   Integral package                     .... LIBINT
 Reset frequency        DirectResetFreq ....    20
 Integral Threshold     Thresh          ....  2.500e-11 Eh
 Primitive CutOff       TCut            ....  2.500e-12 Eh

Convergence Tolerance:
 Convergence Check Mode ConvCheckMode   .... Total+1el-Energy
 Convergence forced     ConvForced      .... 1
 Energy Change          TolE            ....  1.000e-08 Eh
 1-El. energy change                    ....  1.000e-05 Eh
 DIIS Error             TolErr          ....  5.000e-07


Diagonalization of the overlap matrix:
Smallest eigenvalue                        ... 6.788e-04
Time for diagonalization                   ...    0.002 sec
Threshold for overlap eigenvalues          ... 1.000e-08
Number of eigenvalues below threshold      ... 0
Time for construction of square roots      ...    0.008 sec
Total time needed                          ...    0.010 sec

-------------------
DFT GRID GENERATION
-------------------

General Integration Accuracy     IntAcc      ...  4.340
Radial Grid Type                 RadialGrid  ... Gauss-Chebyshev
Angular Grid (max. acc.)         AngularGrid ... Lebedev-110
Angular grid pruning method      GridPruning ... 3 (G Style)
Weight generation scheme         WeightScheme... Becke
Basis function cutoff            BFCut       ...    1.0000e-11
Integration weight cutoff        WCut        ...    1.0000e-14
Grids for H and He will be reduced by one unit

# of grid points (after initial pruning)     ...   1844 (   0.0 sec)
# of grid points (after weights+screening)   ...   1844 (   0.0 sec)
Grid point division into batches done        ...    0.0 sec
Reduced shell lists constructed in    0.0 sec

Total number of grid points                  ...     1844
Total number of batches                      ...       29
Average number of points per batch           ...       63
Average number of grid points per atom       ...     1844
Average number of shells per batch           ...    10.67 (48.48%)
Average number of basis functions per batch  ...    46.67 (55.56%)
Average number of large shells per batch     ...     8.67 (81.25%)
Average number of large basis fcns per batch ...    39.33 (84.29%)
Maximum spatial batch extension              ...  16.21, 29.83, 29.83 au
Average spatial batch extension              ...   1.12,  2.06,  2.06 au

Time for grid setup =    0.067 sec

------------------------------
INITIAL GUESS: MODEL POTENTIAL
------------------------------
Loading Hartree-Fock densities                     ... done
Calculating cut-offs                               ... done
Setting up the integral package                    ... done
Initializing the effective Hamiltonian             ... done
Starting the Coulomb interaction                   ... done (   0.0 sec)
Reading the grid                                   ... done
Mapping shells                                     ... done
Starting the XC term evaluation                    ... done (   0.0 sec)
Transforming the Hamiltonian                       ... done (   0.0 sec)
Diagonalizing the Hamiltonian                      ... done (   0.0 sec)
Back transforming the eigenvectors                 ... done (   0.0 sec)
Now organizing SCF variables                       ... done
                      ------------------
                      INITIAL GUESS DONE (   0.2 sec)
                      ------------------
--------------
SCF ITERATIONS
--------------
ITER       Energy         Delta-E        Max-DP      RMS-DP      [F,P]     Damp
               ***  Starting incremental Fock matrix formation  ***
  0   -459.4678072727   0.000000000000 0.05364846  0.00100787  0.1109548 0.7000
  1   -459.4733559276  -0.005548654933 0.03759073  0.00071792  0.0793406 0.7000
                               ***Turning on DIIS***
  2   -459.4775421741  -0.004186246492 0.08711178  0.00167797  0.0563951 0.0000
  3   -459.4871965571  -0.009654383030 0.00514057  0.00016554  0.0061501 0.0000
  4   -459.4899834582  -0.002786901019 0.00239288  0.00006527  0.0033592 0.0000
  5   -459.4871926919   0.002790766220 0.00096487  0.00002457  0.0013675 0.0000
  6   -459.4889459522  -0.001753260234 0.00046883  0.00001067  0.0005034 0.0000
  7   -459.4891243604  -0.000178408237 0.00004884  0.00000164  0.0000537 0.0000
  8   -459.4891801967  -0.000055836262 0.00001638  0.00000046  0.0000089 0.0000
  9   -459.4891839379  -0.000003741193 0.00000813  0.00000022  0.0000021 0.0000
                            ***DIIS convergence achieved***

               *****************************************************
               *                     SUCCESS                       *
               *           SCF CONVERGED AFTER  10 CYCLES          *
               *****************************************************


----------------
TOTAL SCF ENERGY
----------------

Total Energy       :         -459.48917793 Eh          -12503.33619 eV

Components:
Nuclear Repulsion  :            0.00000000 Eh               0.00000 eV
Electronic Energy  :         -459.48917793 Eh          -12503.33619 eV
One Electron Energy:         -634.86790619 Eh          -17275.63400 eV
Two Electron Energy:          175.37872826 Eh            4772.29781 eV

Virial components:
Potential Energy   :         -918.97575326 Eh          -25006.60156 eV
Kinetic Energy     :          459.48657533 Eh           12503.26537 eV
Virial Ratio       :            2.00000566


---------------
SCF CONVERGENCE
---------------

  Last Energy change         ...    6.0038e-06  Tolerance :   1.0000e-08
  Last MAX-Density change    ...    3.7074e-06  Tolerance :   1.0000e-07
  Last RMS-Density change    ...    1.0795e-07  Tolerance :   5.0000e-09
  Last DIIS Error            ...    6.2476e-07  Tolerance :   5.0000e-07

             **** THE GBW FILE WAS UPDATED (17_Cl.gbw) ****
             **** DENSITY FILE WAS UPDATED (17_Cl.scfp) ****
             **** ENERGY FILE WAS UPDATED (17_Cl.en.tmp) ****
----------------------
UHF SPIN CONTAMINATION
----------------------

Expectation value of <S**2>     :     0.760496
Ideal value S*(S+1) for S=0.5   :     0.750000
Deviation                       :     0.010496

             **** THE GBW FILE WAS UPDATED (17_Cl.gbw) ****
             **** DENSITY FILE WAS UPDATED (17_Cl.scfp) ****
----------------
ORBITAL ENERGIES
----------------
                 SPIN UP ORBITALS
  NO   OCC          E(Eh)            E(eV) 
   0   1.0000    -104.889398     -2854.1856 
   1   1.0000     -10.612500      -288.7808 
   2   1.0000      -8.098204      -220.3633 
   3   1.0000      -8.073753      -219.6980 
   4   1.0000      -8.073753      -219.6980 
   5   1.0000      -1.136149       -30.9162 
   6   1.0000      -0.581781       -15.8311 
   7   1.0000      -0.502587       -13.6761 
   8   1.0000      -0.502587       -13.6761 
   9   0.0000       0.090620         2.4659 
  10   0.0000       0.097092         2.6420 
  11   0.0000       0.097092         2.6420 
  12   0.0000       0.099935         2.7194 
  13   0.0000       0.248808         6.7704 
  14   0.0000       0.252718         6.8768 
  15   0.0000       0.252718         6.8768 
  16   0.0000       0.266190         7.2434 
  17   0.0000       0.266190         7.2434 
  18   0.0000       0.445577        12.1248 
  19   0.0000       0.470443        12.8014 
  20   0.0000       0.470443        12.8014 
  21   0.0000       0.623411        16.9639 
  22   0.0000       0.626666        17.0524 
  23   0.0000       0.633827        17.2473 
  24   0.0000       0.633827        17.2473 
  25   0.0000       0.669742        18.2246 
  26   0.0000       0.669742        18.2246 
  27   0.0000       0.793411        21.5898 
  28   0.0000       0.795963        21.6593 
  29   0.0000       0.795963        21.6593 
  30   0.0000       0.803741        21.8709 
  31   0.0000       0.803741        21.8709 
  32   0.0000       0.817330        22.2407 
  33   0.0000       0.817330        22.2407 
  34   0.0000       1.686740        45.8985 
  35   0.0000       1.697749        46.1981 
  36   0.0000       1.698351        46.2145 
  37   0.0000       1.698351        46.2145 
  38   0.0000       1.737500        47.2798 
  39   0.0000       1.737500        47.2798 
  40   0.0000       1.746668        47.5293 
  41   0.0000       1.746668        47.5293 
  42   0.0000       1.821929        49.5772 
  43   0.0000       1.824152        49.6377 
  44   0.0000       1.824152        49.6377 
  45   0.0000       1.830887        49.8210 
  46   0.0000       1.830887        49.8210 
  47   0.0000       1.842282        50.1310 
  48   0.0000       1.842282        50.1310 
  49   0.0000       1.859051        50.5874 
  50   0.0000       1.859051        50.5874 
  51   0.0000       1.993727        54.2521 
  52   0.0000       1.999264        54.4027 
  53   0.0000       1.999264        54.4027 
  54   0.0000       2.016098        54.8608 
  55   0.0000       2.016098        54.8608 
  56   0.0000       2.045652        55.6650 
  57   0.0000       2.045652        55.6650 
  58   0.0000       2.608857        70.9906 
  59   0.0000       4.232742       115.1788 
  60   0.0000       4.244254       115.4920 
  61   0.0000       4.244254       115.4920 
  62   0.0000       4.281925       116.5171 
  63   0.0000       4.281925       116.5171 
  64   0.0000       4.618674       125.6805 
  65   0.0000       4.625442       125.8647 
  66   0.0000       4.625442       125.8647 
  67   0.0000       4.638825       126.2288 
  68   0.0000       4.642726       126.3350 
  69   0.0000       4.642726       126.3350 
  70   0.0000       4.645976       126.4234 
  71   0.0000       4.645976       126.4234 
  72   0.0000       4.654539       126.6564 
  73   0.0000       4.654539       126.6564 
  74   0.0000       4.674604       127.2024 
  75   0.0000       4.674604       127.2024 
  76   0.0000       4.681123       127.3798 
  77   0.0000       4.681123       127.3798 
  78   0.0000       4.703692       127.9940 
  79   0.0000       4.703692       127.9940 
  80   0.0000       6.007640       163.4762 
  81   0.0000       6.058519       164.8607 
  82   0.0000       6.058519       164.8607 
  83   0.0000      22.574491       614.2831 

                 SPIN DOWN ORBITALS
  NO   OCC          E(Eh)            E(eV) 
   0   1.0000    -104.878152     -2853.8796 
   1   1.0000     -10.601122      -288.4712 
   2   1.0000      -8.067826      -219.5367 
   3   1.0000      -8.067826      -219.5367 
   4   1.0000      -8.048556      -219.0123 
   5   1.0000      -1.014476       -27.6053 
   6   1.0000      -0.480891       -13.0857 
   7   1.0000      -0.480891       -13.0857 
   8   0.0000      -0.041007        -1.1159 
   9   0.0000       0.097688         2.6582 
  10   0.0000       0.097688         2.6582 
  11   0.0000       0.104178         2.8348 
  12   0.0000       0.106984         2.9112 
  13   0.0000       0.265842         7.2339 
  14   0.0000       0.265842         7.2339 
  15   0.0000       0.268341         7.3019 
  16   0.0000       0.268341         7.3019 
  17   0.0000       0.269459         7.3323 
  18   0.0000       0.474428        12.9098 
  19   0.0000       0.474428        12.9098 
  20   0.0000       0.498754        13.5718 
  21   0.0000       0.643013        17.4973 
  22   0.0000       0.672642        18.3035 
  23   0.0000       0.672642        18.3035 
  24   0.0000       0.696013        18.9395 
  25   0.0000       0.696013        18.9395 
  26   0.0000       0.705660        19.2020 
  27   0.0000       0.805048        21.9065 
  28   0.0000       0.806307        21.9407 
  29   0.0000       0.806307        21.9407 
  30   0.0000       0.810155        22.0454 
  31   0.0000       0.810155        22.0454 
  32   0.0000       0.816595        22.2207 
  33   0.0000       0.816595        22.2207 
  34   0.0000       1.741186        47.3801 
  35   0.0000       1.741186        47.3801 
  36   0.0000       1.741506        47.3888 
  37   0.0000       1.741506        47.3888 
  38   0.0000       1.741804        47.3969 
  39   0.0000       1.754871        47.7525 
  40   0.0000       1.754871        47.7525 
  41   0.0000       1.769851        48.1601 
  42   0.0000       1.835958        49.9589 
  43   0.0000       1.837267        49.9946 
  44   0.0000       1.837267        49.9946 
  45   0.0000       1.841259        50.1032 
  46   0.0000       1.841259        50.1032 
  47   0.0000       1.848124        50.2900 
  48   0.0000       1.848124        50.2900 
  49   0.0000       1.858170        50.5634 
  50   0.0000       1.858170        50.5634 
  51   0.0000       2.033886        55.3448 
  52   0.0000       2.035242        55.3818 
  53   0.0000       2.035242        55.3818 
  54   0.0000       2.039324        55.4928 
  55   0.0000       2.039324        55.4928 
  56   0.0000       2.046020        55.6750 
  57   0.0000       2.046020        55.6750 
  58   0.0000       2.632736        71.6404 
  59   0.0000       4.258427       115.8777 
  60   0.0000       4.264865       116.0529 
  61   0.0000       4.264865       116.0529 
  62   0.0000       4.284376       116.5838 
  63   0.0000       4.284376       116.5838 
  64   0.0000       4.658875       126.7744 
  65   0.0000       4.661498       126.8458 
  66   0.0000       4.661498       126.8458 
  67   0.0000       4.669361       127.0598 
  68   0.0000       4.669361       127.0598 
  69   0.0000       4.671323       127.1132 
  70   0.0000       4.673308       127.1672 
  71   0.0000       4.673308       127.1672 
  72   0.0000       4.679282       127.3297 
  73   0.0000       4.679282       127.3297 
  74   0.0000       4.682412       127.4149 
  75   0.0000       4.682412       127.4149 
  76   0.0000       4.689312       127.6027 
  77   0.0000       4.689312       127.6027 
  78   0.0000       4.703515       127.9891 
  79   0.0000       4.703515       127.9891 
  80   0.0000       6.058702       164.8657 
  81   0.0000       6.065251       165.0439 
  82   0.0000       6.065251       165.0439 
  83   0.0000      22.587806       614.6454 

                    ********************************
                    * MULLIKEN POPULATION ANALYSIS *
                    ********************************

--------------------------------------------
MULLIKEN ATOMIC CHARGES AND SPIN POPULATIONS
--------------------------------------------
   0 Cl:    0.000000    1.000000
Sum of atomic charges         :    0.0000000
Sum of atomic spin populations:    1.0000000

-----------------------------------------------------
MULLIKEN REDUCED ORBITAL CHARGES AND SPIN POPULATIONS
-----------------------------------------------------
CHARGE
  0 Cls       :     5.995480  s :     5.995480
      pz      :     3.000024  p :    10.998655
      px      :     3.999301
      py      :     3.999330
      dz2     :     0.004512  d :     0.004520
      dxz     :     0.000004
      dyz     :     0.000004
      dx2y2   :     0.000000
      dxy     :     0.000000
      f0      :     0.000524  f :     0.001345
      f+1     :     0.000410
      f-1     :     0.000410
      f+2     :     0.000001
      f-2     :     0.000001
      f+3     :     0.000000
      f-3     :     0.000000
      g0      :     0.000000  g :     0.000000
      g+1     :     0.000000
      g-1     :     0.000000
      g+2     :     0.000000
      g-2     :     0.000000
      g+3     :     0.000000
      g-3     :     0.000000
      g+4     :     0.000000
      g-4     :     0.000000

SPIN
  0 Cls       :     0.000972  s :     0.000972
      pz      :     0.998927  p :     0.998742
      px      :    -0.000078
      py      :    -0.000107
      dz2     :    -0.000970  d :    -0.000972
      dxz     :    -0.000001
      dyz     :    -0.000001
      dx2y2   :    -0.000000
      dxy     :    -0.000000
      f0      :     0.000524  f :     0.001258
      f+1     :     0.000367
      f-1     :     0.000366
      f+2     :     0.000001
      f-2     :     0.000001
      f+3     :     0.000000
      f-3     :     0.000000
      g0      :     0.000000  g :     0.000000
      g+1     :     0.000000
      g-1     :     0.000000
      g+2     :     0.000000
      g-2     :     0.000000
      g+3     :     0.000000
      g-3     :     0.000000
      g+4     :     0.000000
      g-4     :     0.000000


                     *******************************
                     * LOEWDIN POPULATION ANALYSIS *
                     *******************************

-------------------------------------------
LOEWDIN ATOMIC CHARGES AND SPIN POPULATIONS
-------------------------------------------
   0 Cl:    0.000000    1.000000

----------------------------------------------------
LOEWDIN REDUCED ORBITAL CHARGES AND SPIN POPULATIONS
----------------------------------------------------
CHARGE
  0 Cls       :     5.995480  s :     5.995480
      pz      :     3.000024  p :    10.998655
      px      :     3.999301
      py      :     3.999330
      dz2     :     0.004512  d :     0.004520
      dxz     :     0.000004
      dyz     :     0.000004
      dx2y2   :     0.000000
      dxy     :     0.000000
      f0      :     0.000524  f :     0.001345
      f+1     :     0.000410
      f-1     :     0.000410
      f+2     :     0.000001
      f-2     :     0.000001
      f+3     :     0.000000
      f-3     :     0.000000
      g0      :     0.000000  g :     0.000000
      g+1     :     0.000000
      g-1     :     0.000000
      g+2     :     0.000000
      g-2     :     0.000000
      g+3     :     0.000000
      g-3     :     0.000000
      g+4     :     0.000000
      g-4     :     0.000000

SPIN
  0 Cls       :     0.000972  s :     0.000972
      pz      :     0.998927  p :     0.998742
      px      :    -0.000078
      py      :    -0.000107
      dz2     :    -0.000970  d :    -0.000972
      dxz     :    -0.000001
      dyz     :    -0.000001
      dx2y2   :    -0.000000
      dxy     :    -0.000000
      f0      :     0.000524  f :     0.001258
      f+1     :     0.000367
      f-1     :     0.000366
      f+2     :     0.000001
      f-2     :     0.000001
      f+3     :     0.000000
      f-3     :     0.000000
      g0      :     0.000000  g :     0.000000
      g+1     :     0.000000
      g-1     :     0.000000
      g+2     :     0.000000
      g-2     :     0.000000
      g+3     :     0.000000
      g-3     :     0.000000
      g+4     :     0.000000
      g-4     :     0.000000


                      *****************************
                      * MAYER POPULATION ANALYSIS *
                      *****************************

  NA   - Mulliken gross atomic population
  ZA   - Total nuclear charge
  QA   - Mulliken gross atomic charge
  VA   - Mayer's total valence
  BVA  - Mayer's bonded valence
  FA   - Mayer's free valence

  ATOM       NA         ZA         QA         VA         BVA        FA
  0 Cl    17.0000    17.0000     0.0000     1.0210     0.0000     1.0210

  Mayer bond orders larger than 0.100000


-------
TIMINGS
-------

Total SCF time: 0 days 0 hours 0 min 19 sec 

Total time                  ....      19.817 sec
Sum of individual times     ....      18.405 sec  ( 92.9%)

Fock matrix formation       ....      12.937 sec  ( 65.3%)
Diagonalization             ....       0.069 sec  (  0.3%)
Density matrix formation    ....       0.006 sec  (  0.0%)
Population analysis         ....       0.043 sec  (  0.2%)
Initial guess               ....       0.175 sec  (  0.9%)
Orbital Transformation      ....       0.000 sec  (  0.0%)
Orbital Orthonormalization  ....       0.000 sec  (  0.0%)
DIIS solution               ....       5.108 sec  ( 25.8%)


           ************************************************************
           *        Program running with 21 parallel MPI-processes    *
           *              working on a common directory               *
           ************************************************************


------------------------------------------------------------------------------- 
                              ORCA-MATRIX DRIVEN CI                            
------------------------------------------------------------------------------- 

--------------------------------
AUTOMATIC CHOICE OF INCORE LEVEL
--------------------------------

Memory available                           ...   2500.00 MB
Memory needed for S+T                      ...      1.29 MB
Memory needed for J+K                      ...      2.59 MB
Memory needed for DIIS                     ...     18.02 MB
Memory needed for 3-ext                    ...     12.87 MB
Memory needed for 4-ext                    ...    122.31 MB
Memory needed for triples                  ...     16.09 MB
 -> Final InCoreLevel    ... 5
 -> check shows that triples correction can be computed


Wavefunction type
-----------------
Correlation treatment                      ...      CCSD     
Single excitations                         ... ON
Orbital optimization                       ... OFF
Calculation of Z vector                    ... OFF
Calculation of Brueckner orbitals          ... OFF
Perturbative triple excitations            ... ON
Calculation of F12 correction              ... OFF
Frozen core treatment                      ... chemical core (10 el)
Reference Wavefunction                     ... UHF
  Alpha-MOs occ    :     5 ...    8 (  4 MO's/  4 electrons)
  Beta-MOs occ     :     5 ...    7 (  3 MO's/  3 electrons)
  Alpha-MOs virt   :     9 ...   83 ( 75 MO's              )
  Beta-MOs virt    :     8 ...   83 ( 76 MO's              )
Number of AO's                             ...     84
Number of electrons                        ...     17
Number of correlated electrons             ...      7

Algorithmic settings
--------------------
Integral transformation                    ... AO direct full transformation
K(C) Formation                             ... FULL-MO TRAFO
Maximum number of iterations               ...        50
Convergence tolerance (max. residuum)      ... 1.000e-05
Level shift for amplitude update           ... 2.000e-01
Maximum number of DIIS vectors             ...         7
DIIS turned on at iteration                ...         0
Damping before turning on DIIS             ...     0.500
Damping after turning on DIIS              ...     0.000
Pair specific amplitude update             ... OFF
Natural orbital iterations                 ... OFF
Perturbative natural orbital generation    ... OFF
Printlevel                                 ... 2

Memory handling:
----------------
Maximum memory for working arrays          ...   2500 MB
Data storage in matrix containers          ... UNCOMPRESSED
Data type for integral storage             ... DOUBLE
In-Core Storage of quantities:
   Amplitudes+Sigma Vector      ... YES
   J+K operators                ... YES
   DIIS vectors                 ... YES
   3-external integrals         ... YES
   4-external integrals         ... YES


Initializing the integral package          ... done
Warning: reference  - re-canonicalizations have been set to INT 1 VIRT 1

--------------------------
UNRESTRICTED FOCK OPERATOR
--------------------------

<ss|ss>:          406 b            0 skpd (  0.0%)    0.005 s ( 0.013 ms/b)
<ss|sp>:         1176 b            0 skpd (  0.0%)    0.024 s ( 0.020 ms/b)
<ss|sd>:          784 b            0 skpd (  0.0%)    0.003 s ( 0.003 ms/b)
<ss|sf>:          588 b            0 skpd (  0.0%)    0.002 s ( 0.004 ms/b)
<ss|sg>:          392 b            0 skpd (  0.0%)    0.003 s ( 0.007 ms/b)
<ss|pp>:          588 b            0 skpd (  0.0%)    0.011 s ( 0.018 ms/b)
<ss|pd>:          672 b            0 skpd (  0.0%)    0.001 s ( 0.002 ms/b)
<ss|pf>:          504 b            0 skpd (  0.0%)    0.002 s ( 0.004 ms/b)
<ss|pg>:          336 b            0 skpd (  0.0%)    0.003 s ( 0.010 ms/b)
<ss|dd>:          280 b            0 skpd (  0.0%)    0.000 s ( 0.002 ms/b)
<ss|df>:          336 b            0 skpd (  0.0%)    0.001 s ( 0.002 ms/b)
<ss|dg>:          224 b            0 skpd (  0.0%)    0.001 s ( 0.005 ms/b)
<ss|ff>:          168 b            0 skpd (  0.0%)    0.001 s ( 0.007 ms/b)
<ss|fg>:          168 b            0 skpd (  0.0%)    0.002 s ( 0.010 ms/b)
<ss|gg>:           84 b            0 skpd (  0.0%)    0.001 s ( 0.017 ms/b)
<sp|sp>:          903 b            0 skpd (  0.0%)    0.011 s ( 0.012 ms/b)
<sp|sd>:         1176 b            0 skpd (  0.0%)    0.003 s ( 0.002 ms/b)
<sp|sf>:          882 b            0 skpd (  0.0%)    0.003 s ( 0.003 ms/b)
<sp|sg>:          588 b            0 skpd (  0.0%)    0.004 s ( 0.007 ms/b)
<sp|pp>:          882 b            0 skpd (  0.0%)    0.009 s ( 0.011 ms/b)
<sp|pd>:         1008 b            0 skpd (  0.0%)    0.002 s ( 0.002 ms/b)
<sp|pf>:          756 b            0 skpd (  0.0%)    0.003 s ( 0.004 ms/b)
<sp|pg>:          504 b            0 skpd (  0.0%)    0.005 s ( 0.009 ms/b)
<sp|dd>:          420 b            0 skpd (  0.0%)    0.001 s ( 0.002 ms/b)
<sp|df>:          504 b            0 skpd (  0.0%)    0.001 s ( 0.002 ms/b)
<sp|dg>:          336 b            0 skpd (  0.0%)    0.002 s ( 0.005 ms/b)
<sp|ff>:          252 b            0 skpd (  0.0%)    0.002 s ( 0.007 ms/b)
<sp|fg>:          252 b            0 skpd (  0.0%)    0.002 s ( 0.009 ms/b)
<sp|gg>:          126 b            1 skpd (  0.8%)    0.003 s ( 0.020 ms/b)
<sd|sd>:          406 b            0 skpd (  0.0%)    0.001 s ( 0.001 ms/b)
<sd|sf>:          588 b            0 skpd (  0.0%)    0.001 s ( 0.002 ms/b)
<sd|sg>:          392 b            0 skpd (  0.0%)    0.002 s ( 0.004 ms/b)
<sd|pp>:          588 b            0 skpd (  0.0%)    0.004 s ( 0.006 ms/b)
<sd|pd>:          672 b            2 skpd (  0.3%)    0.001 s ( 0.002 ms/b)
<sd|pf>:          504 b            0 skpd (  0.0%)    0.001 s ( 0.003 ms/b)
<sd|pg>:          336 b           10 skpd (  3.0%)    0.002 s ( 0.007 ms/b)
<sd|dd>:          280 b            0 skpd (  0.0%)    0.001 s ( 0.002 ms/b)
<sd|df>:          336 b            0 skpd (  0.0%)    0.001 s ( 0.002 ms/b)
<sd|dg>:          224 b            0 skpd (  0.0%)    0.001 s ( 0.005 ms/b)
<sd|ff>:          168 b            0 skpd (  0.0%)    0.001 s ( 0.007 ms/b)
<sd|fg>:          168 b            0 skpd (  0.0%)    0.002 s ( 0.010 ms/b)
<sd|gg>:           84 b            0 skpd (  0.0%)    0.002 s ( 0.024 ms/b)
<sf|sf>:          231 b            0 skpd (  0.0%)    0.001 s ( 0.006 ms/b)
<sf|sg>:          294 b            0 skpd (  0.0%)    0.003 s ( 0.009 ms/b)
<sf|pp>:          441 b            0 skpd (  0.0%)    0.006 s ( 0.013 ms/b)
<sf|pd>:          504 b            1 skpd (  0.2%)    0.002 s ( 0.003 ms/b)
<sf|pf>:          378 b            0 skpd (  0.0%)    0.002 s ( 0.006 ms/b)
<sf|pg>:          252 b            2 skpd (  0.8%)    0.004 s ( 0.018 ms/b)
<sf|dd>:          210 b            0 skpd (  0.0%)    0.001 s ( 0.003 ms/b)
<sf|df>:          252 b            0 skpd (  0.0%)    0.001 s ( 0.004 ms/b)
<sf|dg>:          168 b            4 skpd (  2.4%)    0.001 s ( 0.009 ms/b)
<sf|ff>:          126 b            0 skpd (  0.0%)    0.002 s ( 0.014 ms/b)
<sf|fg>:          126 b            0 skpd (  0.0%)    0.003 s ( 0.020 ms/b)
<sf|gg>:           63 b            6 skpd (  9.5%)    0.003 s ( 0.046 ms/b)
<sg|sg>:          105 b            0 skpd (  0.0%)    0.003 s ( 0.024 ms/b)
<sg|pp>:          294 b            0 skpd (  0.0%)    0.008 s ( 0.026 ms/b)
<sg|pd>:          336 b           17 skpd (  5.1%)    0.002 s ( 0.006 ms/b)
<sg|pf>:          252 b            2 skpd (  0.8%)    0.003 s ( 0.012 ms/b)
<sg|pg>:          168 b           26 skpd ( 15.5%)    0.003 s ( 0.024 ms/b)
<sg|dd>:          140 b            0 skpd (  0.0%)    0.001 s ( 0.004 ms/b)
<sg|df>:          168 b            5 skpd (  3.0%)    0.001 s ( 0.007 ms/b)
<sg|dg>:          112 b            4 skpd (  3.6%)    0.002 s ( 0.016 ms/b)
<sg|ff>:           84 b            0 skpd (  0.0%)    0.002 s ( 0.022 ms/b)
<sg|fg>:           84 b           12 skpd ( 14.3%)    0.002 s ( 0.029 ms/b)
<sg|gg>:           42 b            6 skpd ( 14.3%)    0.003 s ( 0.091 ms/b)
<pp|pp>:          231 b            0 skpd (  0.0%)    0.005 s ( 0.023 ms/b)
<pp|pd>:          504 b            0 skpd (  0.0%)    0.002 s ( 0.003 ms/b)
<pp|pf>:          378 b            0 skpd (  0.0%)    0.002 s ( 0.006 ms/b)
<pp|pg>:          252 b            0 skpd (  0.0%)    0.004 s ( 0.016 ms/b)
<pp|dd>:          210 b            0 skpd (  0.0%)    0.001 s ( 0.003 ms/b)
<pp|df>:          252 b            0 skpd (  0.0%)    0.001 s ( 0.003 ms/b)
<pp|dg>:          168 b            0 skpd (  0.0%)    0.001 s ( 0.008 ms/b)
<pp|ff>:          126 b            0 skpd (  0.0%)    0.001 s ( 0.011 ms/b)
<pp|fg>:          126 b            0 skpd (  0.0%)    0.002 s ( 0.016 ms/b)
<pp|gg>:           63 b            0 skpd (  0.0%)    0.003 s ( 0.047 ms/b)
<pd|pd>:          300 b            0 skpd (  0.0%)    0.001 s ( 0.003 ms/b)
<pd|pf>:          432 b            0 skpd (  0.0%)    0.002 s ( 0.004 ms/b)
<pd|pg>:          288 b            0 skpd (  0.0%)    0.003 s ( 0.011 ms/b)
<pd|dd>:          240 b            0 skpd (  0.0%)    0.001 s ( 0.003 ms/b)
<pd|df>:          288 b            0 skpd (  0.0%)    0.001 s ( 0.004 ms/b)
<pd|dg>:          192 b            0 skpd (  0.0%)    0.002 s ( 0.009 ms/b)
<pd|ff>:          144 b            0 skpd (  0.0%)    0.002 s ( 0.012 ms/b)
<pd|fg>:          144 b            0 skpd (  0.0%)    0.002 s ( 0.017 ms/b)
<pd|gg>:           72 b            0 skpd (  0.0%)    0.003 s ( 0.048 ms/b)
<pf|pf>:          171 b            0 skpd (  0.0%)    0.002 s ( 0.012 ms/b)
<pf|pg>:          216 b            0 skpd (  0.0%)    0.005 s ( 0.022 ms/b)
<pf|dd>:          180 b            0 skpd (  0.0%)    0.001 s ( 0.004 ms/b)
<pf|df>:          216 b            0 skpd (  0.0%)    0.001 s ( 0.006 ms/b)
<pf|dg>:          144 b            0 skpd (  0.0%)    0.002 s ( 0.013 ms/b)
<pf|ff>:          108 b            0 skpd (  0.0%)    0.002 s ( 0.023 ms/b)
<pf|fg>:          108 b            0 skpd (  0.0%)    0.003 s ( 0.031 ms/b)
<pf|gg>:           54 b            0 skpd (  0.0%)    0.005 s ( 0.084 ms/b)
<pg|pg>:           78 b            0 skpd (  0.0%)    0.004 s ( 0.048 ms/b)
<pg|dd>:          120 b            0 skpd (  0.0%)    0.001 s ( 0.007 ms/b)
<pg|df>:          144 b            0 skpd (  0.0%)    0.001 s ( 0.010 ms/b)
<pg|dg>:           96 b            3 skpd (  3.1%)    0.002 s ( 0.024 ms/b)
<pg|ff>:           72 b            0 skpd (  0.0%)    0.002 s ( 0.031 ms/b)
<pg|fg>:           72 b            0 skpd (  0.0%)    0.004 s ( 0.052 ms/b)
<pg|gg>:           36 b            1 skpd (  2.8%)    0.006 s ( 0.166 ms/b)
<dd|dd>:           55 b            0 skpd (  0.0%)    0.000 s ( 0.006 ms/b)
<dd|df>:          120 b            0 skpd (  0.0%)    0.001 s ( 0.005 ms/b)
<dd|dg>:           80 b            0 skpd (  0.0%)    0.001 s ( 0.011 ms/b)
<dd|ff>:           60 b            0 skpd (  0.0%)    0.001 s ( 0.015 ms/b)
<dd|fg>:           60 b            0 skpd (  0.0%)    0.001 s ( 0.022 ms/b)
<dd|gg>:           30 b            0 skpd (  0.0%)    0.002 s ( 0.063 ms/b)
<df|df>:           78 b            0 skpd (  0.0%)    0.001 s ( 0.013 ms/b)
<df|dg>:           96 b            0 skpd (  0.0%)    0.002 s ( 0.018 ms/b)
<df|ff>:           72 b            0 skpd (  0.0%)    0.002 s ( 0.030 ms/b)
<df|fg>:           72 b            0 skpd (  0.0%)    0.003 s ( 0.039 ms/b)
<df|gg>:           36 b            0 skpd (  0.0%)    0.004 s ( 0.106 ms/b)
<dg|dg>:           36 b            0 skpd (  0.0%)    0.001 s ( 0.037 ms/b)
<dg|ff>:           48 b            0 skpd (  0.0%)    0.002 s ( 0.034 ms/b)
<dg|fg>:           48 b            0 skpd (  0.0%)    0.003 s ( 0.056 ms/b)
<dg|gg>:           24 b            0 skpd (  0.0%)    0.004 s ( 0.186 ms/b)
<ff|ff>:           21 b            0 skpd (  0.0%)    0.001 s ( 0.051 ms/b)
<ff|fg>:           36 b            0 skpd (  0.0%)    0.002 s ( 0.066 ms/b)
<ff|gg>:           18 b            0 skpd (  0.0%)    0.003 s ( 0.191 ms/b)
<fg|fg>:           21 b            0 skpd (  0.0%)    0.003 s ( 0.133 ms/b)
<fg|gg>:           18 b            0 skpd (  0.0%)    0.006 s ( 0.333 ms/b)
<gg|gg>:            6 b            0 skpd (  0.0%)    0.004 s ( 0.696 ms/b)
Recanonicalizing the internal orbitals
Recanonicalizing the virtual orbitals
Time needed for Fock operator              ...            0.564 sec
Reference energy                           ...   -459.489179557
Warning: for UHF the TrafoType has to be JK
Warning: for UHF the K(C)-option cannot be MO but must be AOX

-------------------------------
PARTIAL EXCHANGE TRANSFORMATION
-------------------------------

Transformation type                        ... two-operators
Generation of integrals (i,mue|j,nue)      ... ON
Generation of integrals (mue,kappa|nue,tau)... ON
Generation of integrals (i,mue|a,nue)      ... ON
Dimension of the basis                     ...   84
Number of internal alpha-MOs               ...    4 (   5-   8)
Number of internal beta-MOs                ...    3 (   5-   7)
Number of external alpha-MOs               ...   75 (   9-  83)
Number of external beta-MOs                ...   76 (   8-  83)
Pair cutoff                                ... 0.000e+00 Eh
Number of AO pairs in the trafo            ... 3570
Total Number of distinct AO pairs          ... 3570
Memory devoted for trafo                   ... 2500.0 MB 
Max. Number of MO pairs treated together   ... 46439      
Number Format for Storage                  ... Double (8 Byte)
Integral package used                      ... LIBINT

Starting integral evaluation:
    ... done with AO integral generation
Closing buffer AOK[aa] ( 0.00 GB; CompressionRatio= 0.91)
Closing buffer AOK[bb] ( 0.00 GB; CompressionRatio= 0.86)
Closing buffer AOK[ab] ( 0.00 GB; CompressionRatio= 0.89)
Closing buffer AOK[ba] ( 0.00 GB; CompressionRatio= 0.89)
Collecting buffer AOK 
Closing buffer IAAO1[aa] ( 0.00 GB; CompressionRatio= 1.00)
Closing buffer IAAO1[bb] ( 0.00 GB; CompressionRatio= 0.99)
Closing buffer IAAO1[ab] ( 0.00 GB; CompressionRatio= 1.00)
Closing buffer IAAO1[ba] ( 0.00 GB; CompressionRatio= 0.99)
Closing buffer IAAO2[aa] ( 0.00 GB; CompressionRatio= 1.00)
Closing buffer IAAO2[bb] ( 0.00 GB; CompressionRatio= 0.99)
Closing buffer IAAO2[ab] ( 0.00 GB; CompressionRatio= 1.00)
Closing buffer IAAO2[ba] ( 0.00 GB; CompressionRatio= 0.99)
Collecting buffer IAAO 
Closing buffer PRQS    ( 0.00 GB; CompressionRatio= 1.00)
Collecting buffer PRQS 
Number of alpha/alpha MO pairs in trafo    ...   10
Number of beta /beta  MO pairs in trafo    ...    6
Number of alpha/ beta MO pairs in trafo    ...   12
------------------------
SORTING OF (i,mue|j,nue)
------------------------

SORTING OF ALPHA/ALPHA PAIRS
IBATCH = 1 of  1
Closing buffer KAO[aa] ( 0.00 GB; CompressionRatio= 1.00)
Collecting buffer KAO 
SORTING OF BETA /BETA  PAIRS
IBATCH = 1 of  1
Closing buffer KAO[bb] ( 0.00 GB; CompressionRatio= 1.00)
Collecting buffer KAO 
SORTING OF ALPHA/BETA  PAIRS
IBATCH = 1 of  1
Closing buffer KAO[ab] ( 0.00 GB; CompressionRatio= 0.999787460149)
Collecting buffer KAO[ab] 
------------------------
SORTING OF (i,mue|a,nue)
------------------------

Number of alpha/alpha (i,a) pairs in trafo  ...  300
Number of beta /beta  (i,a) pairs in trafo  ...  228
Number of alpha/ beta (i,a) pairs in trafo  ...  304
Number of beta /alpha (i,a) pairs in trafo  ...  225
Setting up the alpha/alpha list             ... done
Setting up the beta /beta  list             ... done
Setting up the alpha/beta  list             ... done
Setting up the beta /alpha list             ... done
    ... Now sorting (i,mue|a,nue)integrals
    ... Integrals (i,b|a,c) will be made on the fly
SORTING OF ALPHA/ALPHA PAIRS
IBATCH = 1 of  1
Closing buffer IPAQ[aa]  0.00 GB; CompressionRatio= 1.00)
SORTING OF BETA /BETA  PAIRS
IBATCH = 1 of  1
Closing buffer IPAQ[bb]( 0.00 GB; CompressionRatio= 1.00)
SORTING OF ALPHA/BETA  PAIRS (NMatSort_ab=15)
IBATCH = 1 of  1
Closing buffer IPAQ[ab]( 0.00 GB; CompressionRatio= 1.00)
SORTING OF BETA/ALPHA  PAIRS
IBATCH = 1 of  1
Closing buffer IPAQ[ba]( 0.00 GB; CompressionRatio= 1.00)
N(AO-Batches) Done                         ...       968 
N(AO-Batches) Skipped                      ...         0 
N(IJ)-pairs Skipped                        ...         0 
TOTAL TIME for half transformation         ...    15.048 sec
AO-integral generation                     ...     0.116 sec
Half transformation                        ...     1.368 sec
K-integral sorting                         ...     1.962 sec
<ss|**>: 
------------------------------
PARTIAL COULOMB TRANSFORMATION
------------------------------

Transformation type                        ... two-operators
Dimension of the basis                     ...   84
Number of internal alpha-MOs               ...    4 (5-8)
Number of internal beta-MOs                ...    3 (5-7)
Pair cutoff                                ... 0.000e+00 Eh
Number of AO pairs included in the trafo   ... 3570
Total Number of distinct AO pairs          ... 3570
Memory devoted for trafo                   ... 2500.0 MB 
Max. Number of MO pairs treated together   ... 91787      
Max. Number of MOs treated per batch       ... 1092      
Number Format for Storage                  ... Double (8 Byte)
AO-integral source                         ... DIRECT
Integral package used                      ... LIBINT

Starting integral evaluation:
<sp|**>:         7084 b        0 skpd     0.048 s (  0.007 ms/b)
<sd|**>:        10626 b        0 skpd     0.452 s (  0.043 ms/b)
        7084 b        0 skpd     0.045 s (  0.006 ms/b)
<sf|**>:         5313 b        0 skpd     0.040 s (  0.007 ms/b)
<sg|**>:         3542 b        0 skpd     0.069 s (  0.019 ms/b)
<pp|**>:         5313 b        0 skpd     0.091 s (  0.017 ms/b)
<pd|**>:         6072 b        0 skpd     0.084 s (  0.014 ms/b)
<pf|**>:         4554 b        0 skpd     0.058 s (  0.013 ms/b)
<pg|**>:         3036 b        0 skpd     0.072 s (  0.024 ms/b)
<dd|**>:         2530 b        0 skpd     0.045 s (  0.018 ms/b)
<df|**>:         3036 b        0 skpd     0.078 s (  0.026 ms/b)
<dg|**>:         2024 b        0 skpd     0.067 s (  0.033 ms/b)
<ff|**>:         1518 b        0 skpd     0.059 s (  0.039 ms/b)
<fg|**>:         1518 b        0 skpd     0.109 s (  0.072 ms/b)
<gg|**>:          759 b        0 skpd     0.104 s (  0.137 ms/b)
Closing buffer AOJ[aa] ( 0.00 GB; CompressionRatio= 0.87)
Closing buffer AOJ[bb] ( 0.00 GB; CompressionRatio= 0.00)
Collecting buffer AOJ 
    ... done with AO integral generation
Number of Alpha-MO pairs included          ...   10
Number of Beta-MO pairs included           ...    6
    ... Now sorting integrals
SORTING ALPHA/ALPHA PAIRS
IBATCH = 1 of  1
Closing buffer JAO[aa] ( 0.00 GB; CompressionRatio= 1.00)
SORTING BETA/BETA PAIRS
IBATCH = 1 of  1
Closing buffer JAO[bb] ( 0.00 GB; CompressionRatio= 1.00)
Collecting buffer JAO 
TOTAL TIME for half transformation         ...     4.647 sec
AO-integral generation                     ...     0.831 sec
Half transformation                        ...     0.599 sec
J-integral sorting                         ...     1.737 sec

-------------------------- SECOND HALF TRANSFORMATION -------------------------
Formation of (ij|kl),(ij|ka), (ij|ab)      ... ok (     0.125 sec)
Formation of (ik|jl),(ik|ja), (ia|jb)      ... ok (     0.170 sec)


-----------------------
SPIN UNRESTRICTED GUESS
-----------------------

Entering MDCI_UHF_Guess, Tailored=0
Spin-components of the MP2 energy:
EMP2(aa)=     -0.026333925
EMP2(bb)=     -0.012118570
EMP2(ab)=     -0.138007705

Initial guess performed in     0.004 sec
E(0)                                       ...   -459.489179557
E(MP2)                                     ...     -0.176460201
Initial E(tot)                             ...   -459.665639758
<T|T>                                      ...      0.058630633
Number of pairs included                   ... 21

------------------------------------------------
                  UHF COUPLED CLUSTER ITERATIONS
------------------------------------------------

Number of amplitudes to be optimized       ...        94200

Iter       E(tot)           E(Corr)          Delta-E          Residual     Time      <S|S>**1/2
  0   -459.665639758     -0.176460201     -0.000000000      0.020006493    0.53      0.000002056
                           *** Turning on DIIS ***
  1   -459.681085168     -0.191905611     -0.015445410      0.008569816    0.49      0.009871953
  2   -459.686673363     -0.197493806     -0.005588195      0.002869926    0.46      0.015052242
  3   -459.687312570     -0.198133013     -0.000639207      0.000739266    0.46      0.016928226
  4   -459.687408217     -0.198228660     -0.000095647      0.000139955    0.45      0.017563484
  5   -459.687425976     -0.198246419     -0.000017759      0.000044792    0.46      0.017695865
  6   -459.687425842     -0.198246285      0.000000134      0.000017597    0.46      0.017718779
  7   -459.687425822     -0.198246265      0.000000020      0.000005673    0.47      0.017720132
               --- The Coupled-Cluster iterations have converged ---

----------------------
COUPLED CLUSTER ENERGY
----------------------

E(0)                                       ...   -459.489179557
E(CORR)                                    ...     -0.198246265
E(TOT)                                     ...   -459.687425822
Singles norm <S|S>**1/2                    ...      0.017720132 ( 0.006762228, 0.010957905)  
T1 diagnostic                              ...      0.006697580                              

------------------
LARGEST AMPLITUDES
------------------
   6a-> 21a   5b->  8b       0.037176
   8a-> 23a   5b->  8b       0.032331
   7a-> 24a   5b->  8b       0.032331
   8a-> 25a   7a-> 26a       0.028187
   8a-> 26a   7a-> 25a       0.028187
   7b-> 23b   6b-> 22b       0.027311
   7b-> 22b   6b-> 23b       0.027311
   6a-> 13a   5b->  8b       0.026406
   8a-> 23a   7b-> 24b       0.026215
   7a-> 24a   6b-> 25b       0.026215
   7a-> 26a   6b-> 23b       0.022784
   8a-> 26a   7b-> 23b       0.022784
   7a-> 25a   6b-> 22b       0.022784
   8a-> 25a   7b-> 22b       0.022784
   7a-> 15a   5b->  8b       0.020507
   8a-> 14a   5b->  8b       0.020507

----------------------
UHF TRIPLES CORRECTION (Algorithm 1)
----------------------

Multiplier for the singles contribution    ...      1.000000000

SPIN-CASE Alpha-Alpha-Alpha:
10% done
20% done
30% done
40% done
50% done
60% done
70% done
80% done
90% done


SPIN-CASE Beta-Beta-Beta:
10% done
20% done
30% done
40% done
50% done
60% done
70% done
80% done
90% done


SPIN-CASE Alpha-Alpha-Beta:
10% done
20% done
30% done
40% done
50% done
60% done
70% done
80% done
90% done


SPIN-CASE Beta-Beta-Alpha:
10% done
20% done
30% done
40% done
50% done
60% done
70% done
80% done
90% done


Triples Correction (T)                     ...     -0.007317211
    alpha-alpha-alpha ... -0.000255452 (  3.5%)
    alpha-alpha-beta  ... -0.004304353 ( 58.8%)
    alpha-beta -beta  ... -0.002711328 ( 37.1%)
    beta -beta -beta  ... -0.000046078 (  0.6%)
Scaling of triples based on CCSD energies (Peterson et al. Molecular Physics 113, 1551 (2015))
E(T*) = f*E(T) where f = E(F12-CCSD)/E(CCSD) 
f = CCSD (with F12)/ CCSD (without F12)    ...      1.000000000
Scaled triples correction (T)              ...     -0.007317211

Final correlation energy                   ...     -0.205563476
E(CCSD)                                    ...   -459.687425822
E(CCSD(T))                                 ...   -459.694743033



        !!!!!!!!!!!!!!!!!!!!!!!!!!!!!!!!!!!!!!!!!!!!!!!!!!!!!!!!!!!!!!!!!!!!!!!!!! 
        !  Warning: Densities are linearized densities                           !
        !!!!!!!!!!!!!!!!!!!!!!!!!!!!!!!!!!!!!!!!!!!!!!!!!!!!!!!!!!!!!!!!!!!!!!!!!! 

NORM  =      1.078032826 sqrt=     1.038283596
W(HF) =      0.927615538
------------------------------------------------------------------------------
                           ORCA POPULATION ANALYSIS
------------------------------------------------------------------------------
Input electron density              ... 17_Cl.mdcip
Input spin density                  ... 17_Cl.mdcir
BaseName (.gbw .S,...)              ... 17_Cl

                    ********************************
                    * MULLIKEN POPULATION ANALYSIS *
                    ********************************

------------------------------------------
MULLIKEN ATOMIC CHARGES AND SPIN DENSITIES
------------------------------------------
   0 Cl:    0.000000    1.000000
Sum of atomic charges       :    0.0000000
Sum of atomic spin densities:    1.0000000

---------------------------------------------------
MULLIKEN REDUCED ORBITAL CHARGES AND SPIN DENSITIES
---------------------------------------------------
CHARGE
  0 Cls       :     5.972992  s :     5.972992
      pz      :     2.997909  p :    10.913725
      px      :     3.957894
      py      :     3.957922
      dz2     :     0.017780  d :     0.098228
      dxz     :     0.018658
      dyz     :     0.018658
      dx2y2   :     0.021566
      dxy     :     0.021566
      f0      :     0.001875  f :     0.012833
      f+1     :     0.001838
      f-1     :     0.001838
      f+2     :     0.001808
      f-2     :     0.001808
      f+3     :     0.001833
      f-3     :     0.001833
      g0      :     0.000165  g :     0.002223
      g+1     :     0.000177
      g-1     :     0.000177
      g+2     :     0.000212
      g-2     :     0.000212
      g+3     :     0.000274
      g-3     :     0.000274
      g+4     :     0.000366
      g-4     :     0.000366

SPIN
  0 Cls       :     0.008988  s :     0.008988
      pz      :     0.968905  p :     0.968719
      px      :    -0.000079
      py      :    -0.000107
      dz2     :     0.008463  d :     0.018949
      dxz     :     0.005972
      dyz     :     0.005972
      dx2y2   :    -0.000729
      dxy     :    -0.000729
      f0      :     0.000912  f :     0.003413
      f+1     :     0.000793
      f-1     :     0.000793
      f+2     :     0.000473
      f-2     :     0.000473
      f+3     :    -0.000016
      f-3     :    -0.000016
      g0      :    -0.000009  g :    -0.000070
      g+1     :    -0.000009
      g-1     :    -0.000009
      g+2     :    -0.000010
      g-2     :    -0.000010
      g+3     :    -0.000009
      g-3     :    -0.000009
      g+4     :    -0.000002
      g-4     :    -0.000002


                     *******************************
                     * LOEWDIN POPULATION ANALYSIS *
                     *******************************

-----------------------------------------
LOEWDIN ATOMIC CHARGES AND SPIN DENSITIES
-----------------------------------------
   0 Cl:    0.000000    1.000000

--------------------------------------------------
LOEWDIN REDUCED ORBITAL CHARGES AND SPIN DENSITIES
--------------------------------------------------
CHARGE
  0 Cls       :     5.972992  s :     5.972992
      pz      :     2.997909  p :    10.913725
      px      :     3.957894
      py      :     3.957922
      dz2     :     0.017780  d :     0.098228
      dxz     :     0.018658
      dyz     :     0.018658
      dx2y2   :     0.021566
      dxy     :     0.021566
      f0      :     0.001875  f :     0.012833
      f+1     :     0.001838
      f-1     :     0.001838
      f+2     :     0.001808
      f-2     :     0.001808
      f+3     :     0.001833
      f-3     :     0.001833
      g0      :     0.000165  g :     0.002223
      g+1     :     0.000177
      g-1     :     0.000177
      g+2     :     0.000212
      g-2     :     0.000212
      g+3     :     0.000274
      g-3     :     0.000274
      g+4     :     0.000366
      g-4     :     0.000366

SPIN
  0 Cls       :     0.008988  s :     0.008988
      pz      :     0.968905  p :     0.968719
      px      :    -0.000079
      py      :    -0.000107
      dz2     :     0.008463  d :     0.018949
      dxz     :     0.005972
      dyz     :     0.005972
      dx2y2   :    -0.000729
      dxy     :    -0.000729
      f0      :     0.000912  f :     0.003413
      f+1     :     0.000793
      f-1     :     0.000793
      f+2     :     0.000473
      f-2     :     0.000473
      f+3     :    -0.000016
      f-3     :    -0.000016
      g0      :    -0.000009  g :    -0.000070
      g+1     :    -0.000009
      g-1     :    -0.000009
      g+2     :    -0.000010
      g-2     :    -0.000010
      g+3     :    -0.000009
      g-3     :    -0.000009
      g+4     :    -0.000002
      g-4     :    -0.000002


                      *****************************
                      * MAYER POPULATION ANALYSIS *
                      *****************************

  NA   - Mulliken gross atomic population
  ZA   - Total nuclear charge
  QA   - Mulliken gross atomic charge
  VA   - Mayer's total valence
  BVA  - Mayer's bonded valence
  FA   - Mayer's free valence

  ATOM       NA         ZA         QA         VA         BVA        FA
  0 Cl    17.0000    17.0000     0.0000     1.5526     0.0000     1.5526





------------------------------------------------------------------------------- 
                                     TIMINGS                                   
------------------------------------------------------------------------------- 


Total execution time                   ...       25.870 sec

Fock Matrix Formation                  ...        0.564 sec (  2.2%)
Initial Guess                          ...        0.004 sec (  0.0%)
DIIS Solver                            ...        0.055 sec (  0.2%)
State Vector Update                    ...        0.003 sec (  0.0%)
Sigma-vector construction              ...        3.733 sec ( 14.4%)
  <D|H|D>(2-ext)                       ...        0.006 sec (  0.2% of sigma)
  <D|H|D>(4-ext)                       ...        1.699 sec ( 45.5% of sigma)
  <S|H|0>                              ...        0.038 sec (  1.0% of sigma)
  <D|H|S>(1-ext)                       ...        0.010 sec (  0.3% of sigma)
  Fock-dressing                        ...        1.641 sec ( 43.9% of sigma)
  (ik|jl)-dressing                     ...        0.001 sec (  0.0% of sigma)
  (ij|ab),(ia|jb)-dressing             ...        0.228 sec (  6.1% of sigma)
Total Time for computing (T)           ...        0.255 sec (  1.0% of ALL)
  I/O of integral and amplitudes       ...        0.087 sec ( 34.2% of (T))
  External N**7 contributions          ...        0.055 sec ( 21.5% of (T))
  Internal N**7 contributions          ...        0.020 sec (  7.8% of (T))
  N**6 triples energy contributions    ...        0.071 sec ( 28.0% of (T))


-------------------------   --------------------
FINAL SINGLE POINT ENERGY      -459.694743032900
-------------------------   --------------------


                            ***************************************
                            *     ORCA property calculations      *
                            ***************************************

                                    ---------------------
                                    Active property flags
                                    ---------------------
   (+) Dipole Moment


------------------------------------------------------------------------------
                       ORCA ELECTRIC PROPERTIES CALCULATION
------------------------------------------------------------------------------

Dipole Moment Calculation                       ... on
Quadrupole Moment Calculation                   ... off
Polarizability Calculation                      ... off
GBWName                                         ... 17_Cl.gbw
Electron density file                           ... 17_Cl.scfp
The origin for moment calculation is the CENTER OF MASS  = ( 0.000000,  0.000000  0.000000)

-------------
DIPOLE MOMENT
-------------
                                X             Y             Z
Electronic contribution:     -0.00000      -0.00000      -0.00000
Nuclear contribution   :      0.00000       0.00000       0.00000
                        -----------------------------------------
Total Dipole Moment    :     -0.00000      -0.00000      -0.00000
                        -----------------------------------------
Magnitude (a.u.)       :      0.00000
Magnitude (Debye)      :      0.00000



--------------------
Rotational spectrum 
--------------------
 
Rotational constants in cm-1:     0.000000     0.000000     0.000000 
Rotational constants in MHz :     0.000000     0.000000     0.000000 

 Dipole components along the rotational axes: 
x,y,z [a.u.] :    -0.000000    -0.000000    -0.000000 
x,y,z [Debye]:    -0.000000    -0.000000    -0.000000 

 

                           *** MDCI DENSITY ***

------------------------------------------------------------------------------
                       ORCA ELECTRIC PROPERTIES CALCULATION
------------------------------------------------------------------------------

Dipole Moment Calculation                       ... on
Quadrupole Moment Calculation                   ... off
Polarizability Calculation                      ... off
GBWName                                         ... 17_Cl.gbw
Electron density file                           ... 17_Cl.mdcip
The origin for moment calculation is the CENTER OF MASS  = ( 0.000000,  0.000000  0.000000)

-------------
DIPOLE MOMENT
-------------
                                X             Y             Z
Electronic contribution:      0.00000      -0.00000       0.00000
Nuclear contribution   :      0.00000       0.00000       0.00000
                        -----------------------------------------
Total Dipole Moment    :      0.00000      -0.00000       0.00000
                        -----------------------------------------
Magnitude (a.u.)       :      0.00000
Magnitude (Debye)      :      0.00000



--------------------
Rotational spectrum 
--------------------
 
Rotational constants in cm-1:     0.000000     0.000000     0.000000 
Rotational constants in MHz :     0.000000     0.000000     0.000000 

 Dipole components along the rotational axes: 
x,y,z [a.u.] :     0.000000    -0.000000     0.000000 
x,y,z [Debye]:     0.000000    -0.000000     0.000000 

 

Timings for individual modules:

Sum of individual times         ...       47.891 sec (=   0.798 min)
GTO integral calculation        ...        1.149 sec (=   0.019 min)   2.4 %
SCF iterations                  ...       20.246 sec (=   0.337 min)  42.3 %
MDCI module                     ...       26.497 sec (=   0.442 min)  55.3 %
                             ****ORCA TERMINATED NORMALLY****
TOTAL RUN TIME: 0 days 0 hours 0 minutes 49 seconds 161 msec
