
                                 *****************
                                 * O   R   C   A *
                                 *****************

           --- An Ab Initio, DFT and Semiempirical electronic structure package ---

                  #######################################################
                  #                        -***-                        #
                  #          Department of theory and spectroscopy      #
                  #               Directorship: Frank Neese             #
                  #        Max Planck Institute fuer Kohlenforschung    #
                  #                Kaiser Wilhelm Platz 1               #
                  #                 D-45470 Muelheim/Ruhr               #
                  #                      Germany                        #
                  #                                                     #
                  #                  All rights reserved                #
                  #                        -***-                        #
                  #######################################################


                         Program Version 4.2.0 -  RELEASE  -


 With contributions from (in alphabetic order):
   Daniel Aravena         : Magnetic Suceptibility
   Michael Atanasov       : Ab Initio Ligand Field Theory (pilot matlab implementation)
   Alexander A. Auer      : GIAO ZORA, VPT2
   Ute Becker             : Parallelization
   Giovanni Bistoni       : ED, misc. LED, open-shell LED, HFLED
   Martin Brehm           : Molecular dynamics
   Dmytro Bykov           : SCF Hessian
   Vijay G. Chilkuri      : MRCI spin determinant printing, contributions to CSF-ICE
   Dipayan Datta          : RHF DLPNO-CCSD density
   Achintya Kumar Dutta   : EOM-CC, STEOM-CC
   Dmitry Ganyushin       : Spin-Orbit,Spin-Spin,Magnetic field MRCI
   Miquel Garcia          : C-PCM Hessian, Gaussian charge scheme
   Yang Guo               : DLPNO-NEVPT2, CIM, IAO-localization
   Andreas Hansen         : Spin unrestricted coupled pair/coupled cluster methods
   Benjamin Helmich-Paris : CASSCF linear response (MC-RPA)
   Lee Huntington         : MR-EOM, pCC
   Robert Izsak           : Overlap fitted RIJCOSX, COSX-SCS-MP3, EOM
   Christian Kollmar      : KDIIS, OOCD, Brueckner-CCSD(T), CCSD density
   Simone Kossmann        : Meta GGA functionals, TD-DFT gradient, OOMP2, MP2 Hessian
   Martin Krupicka        : AUTO-CI
   Lucas Lang             : DCDCAS
   Dagmar Lenk            : GEPOL surface, SMD
   Dimitrios Liakos       : Extrapolation schemes; Compound Job, initial MDCI parallelization
   Dimitrios Manganas     : Further ROCIS development; embedding schemes
   Dimitrios Pantazis     : SARC Basis sets
   Taras Petrenko         : DFT Hessian,TD-DFT gradient, ASA, ECA, R-Raman, ABS, FL, XAS/XES, NRVS
   Peter Pinski           : DLPNO-MP2, DLPNO-MP2 Gradient
   Christoph Reimann      : Effective Core Potentials
   Marius Retegan         : Local ZFS, SOC
   Christoph Riplinger    : Optimizer, TS searches, QM/MM, DLPNO-CCSD(T), (RO)-DLPNO pert. Triples
   Tobias Risthaus        : Range-separated hybrids, TD-DFT gradient, RPA, STAB
   Michael Roemelt        : Original ROCIS implementation
   Masaaki Saitow         : Open-shell DLPNO-CCSD energy and density
   Barbara Sandhoefer     : DKH picture change effects
   Avijit Sen             : IP-ROCIS
   Kantharuban Sivalingam : CASSCF convergence, NEVPT2, FIC-MRCI
   Bernardo de Souza      : ESD, SOC TD-DFT
   Georgi Stoychev        : AutoAux, RI-MP2 NMR
   Willem Van den Heuvel  : Paramagnetic NMR
   Boris Wezisla          : Elementary symmetry handling
   Frank Wennmohs         : Technical directorship


 We gratefully acknowledge several colleagues who have allowed us to
 interface, adapt or use parts of their codes:
   Stefan Grimme, W. Hujo, H. Kruse,             : VdW corrections, initial TS optimization,
                  C. Bannwarth                     DFT functionals, gCP, sTDA/sTD-DF
   Ed Valeev, F. Pavosevic, A. Kumar             : LibInt (2-el integral package), F12 methods
   Garnet Chan, S. Sharma, J. Yang, R. Olivares  : DMRG
   Ulf Ekstrom                                   : XCFun DFT Library
   Mihaly Kallay                                 : mrcc  (arbitrary order and MRCC methods)
   Andreas Klamt, Michael Diedenhofen            : otool_cosmo (COSMO solvation model)
   Jiri Pittner, Ondrej Demel                    : Mk-CCSD
   Frank Weinhold                                : gennbo (NPA and NBO analysis)
   Christopher J. Cramer and Donald G. Truhlar   : smd solvation model
   Lars Goerigk                                  : TD-DFT with DH, B97 family of functionals
   V. Asgeirsson, H. Jonsson                     : NEB implementation
   FAccTs GmbH                                   : IRC, NEB, NEB-TS, Multilevel, MM, QM/MM, CI optimization
   S Lehtola, MJT Oliveira, MAL Marques          : LibXC Library


 Your calculation uses the libint2 library for the computation of 2-el integrals
 For citations please refer to: http://libint.valeyev.net

 Your ORCA version has been built with support for libXC version: 4.2.3
 For citations please refer to: https://tddft.org/programs/libxc/

 This ORCA versions uses:
   CBLAS   interface :  Fast vector & matrix operations
   LAPACKE interface :  Fast linear algebra routines
   SCALAPACK package :  Parallel linear algebra routines


----- Orbital basis set information -----
Your calculation utilizes the basis: aug-cc-pVQZ 
    H, B-Ne : Obtained from the ccRepo (grant-hill.group.shef.ac.uk/ccrepo) Feb. 2017
              R. A. Kendall, T. H. Dunning, Jr., R. J. Harrison, J. Chem. Phys. 96, 6796 (1992)
         He : Obtained from the ccRepo (grant-hill.group.shef.ac.uk/ccrepo) Feb. 2017
              D. E. Woon, T. H. Dunning, Jr., J. Chem. Phys. 100, 2975 (1994)
  Li-Be, Na : Obtained from the ccRepo (grant-hill.group.shef.ac.uk/ccrepo) Feb. 2017
              B. P. Prascher, D. E. Woon, K. A. Peterson, T. H. Dunning, Jr., A. K. Wilson, Theor. Chem. Acc. 128, 69 (2011)
         Mg : Obtained from the Peterson Research Group Website (tyr0.chem.wsu.edu/~kipeters) Feb. 2017
              B. P. Prascher, D. E. Woon, K. A. Peterson, T. H. Dunning, Jr., A. K. Wilson, Theor. Chem. Acc. 128, 69 (2011)
      Al-Ar : Obtained from the ccRepo (grant-hill.group.shef.ac.uk/ccrepo) Feb. 2017
              D. E. Woon, T. H. Dunning, Jr., J. Chem. Phys. 98, 1358 (1993)
      Sc-Zn : Obtained from the ccRepo (grant-hill.group.shef.ac.uk/ccrepo) Feb. 2017
              N. B. Balabanov, K. A. Peterson, J. Chem. Phys. 123, 064107 (2005)
              N. B. Balabanov, K. A. Peterson, J. Chem. Phys. 125, 074110 (2006)
      Ga-Kr : Obtained from the ccRepo (grant-hill.group.shef.ac.uk/ccrepo) Feb. 2017
              A. K. Wilson, D. E. Woon, K. A. Peterson, T. H. Dunning, Jr., J. Chem. Phys. 110, 7667 (1999)

================================================================================
                                        WARNINGS
                       Please study these warnings very carefully!
================================================================================


WARNING: your system is open-shell and RHF/RKS was chosen
  ===> : WILL SWITCH to UHF/UKS


WARNING: MDCI localization with Augmented Hessian Foster-Boys
  ===> : Switching off randomization!

WARNING: Post HF methods need fully converged wavefunctions
  ===> : Setting SCFConvForced true
         You can overwrite this default with %scf ConvForced false 


INFO   : the flag for use of LIBINT has been found!

================================================================================
                                       INPUT FILE
================================================================================
NAME = 24_Cr.in
|  1> #
|  2> # 24_Cr CCSD(T)/aug-cc-pVQZ
|  3> #
|  4> ! CCSD(T) aug-cc-pVQZ tightscf
|  5> 
|  6> *xyz 0 7
|  7>  Cr 0.0 0.0 0.0
|  8> *
|  9> 
| 10> %maxcore 5000 
| 11> 
| 12> %pal
| 13> nprocs 24
| 14> end
| 15> 
| 16> 
| 17>                          ****END OF INPUT****
================================================================================

                       ****************************
                       * Single Point Calculation *
                       ****************************

---------------------------------
CARTESIAN COORDINATES (ANGSTROEM)
---------------------------------
  Cr     0.000000    0.000000    0.000000

----------------------------
CARTESIAN COORDINATES (A.U.)
----------------------------
  NO LB      ZA    FRAG     MASS         X           Y           Z
   0 Cr   24.0000    0    52.000    0.000000    0.000000    0.000000

--------------------------------
INTERNAL COORDINATES (ANGSTROEM)
--------------------------------
 Cr     0   0   0     0.000000000000     0.00000000     0.00000000

---------------------------
INTERNAL COORDINATES (A.U.)
---------------------------
 Cr     0   0   0     0.000000000000     0.00000000     0.00000000

---------------------
BASIS SET INFORMATION
---------------------
There are 1 groups of distinct atoms

 Group   1 Type Cr  : 149s104p42d4f3g2h contracted to 9s8p6d4f3g2h pattern {2121212121212111/17171717171711/1010101011/1111/111/11}

Atom   0Cr   basis set group =>   1


           ************************************************************
           *        Program running with 24 parallel MPI-processes    *
           *              working on a common directory               *
           ************************************************************
------------------------------------------------------------------------------
                           ORCA GTO INTEGRAL CALCULATION
------------------------------------------------------------------------------

                         BASIS SET STATISTICS AND STARTUP INFO

 # of primitive gaussian shells          ...  304
 # of primitive gaussian functions       ...  748
 # of contracted shells                  ...   32
 # of contracted basis functions         ...  140
 Highest angular momentum                ...    5
 Maximum contraction depth               ...   21
 Integral package used                   ... LIBINT
 Integral threshhold            Thresh   ...  2.500e-11
 Primitive cut-off              TCut     ...  2.500e-12


------------------------------ INTEGRAL EVALUATION ----------------------------


 * One electron integrals 
 Pre-screening matrix                    ... done
 Shell pair data                         ... done (   0.006 sec)



           ************************************************************
           *        Program running with 24 parallel MPI-processes    *
           *              working on a common directory               *
           ************************************************************
-------------------------------------------------------------------------------
                                 ORCA SCF
-------------------------------------------------------------------------------

------------
SCF SETTINGS
------------
Hamiltonian:
 Ab initio Hamiltonian  Method          .... Hartree-Fock(GTOs)


General Settings:
 Integral files         IntName         .... 24_Cr
 Hartree-Fock type      HFTyp           .... UHF
 Total Charge           Charge          ....    0
 Multiplicity           Mult            ....    7
 Number of Electrons    NEL             ....   24
 Basis Dimension        Dim             ....  140
 Nuclear Repulsion      ENuc            ....      0.0000000000 Eh

Convergence Acceleration:
 DIIS                   CNVDIIS         .... on
   Start iteration      DIISMaxIt       ....    12
   Startup error        DIISStart       ....  0.200000
   # of expansion vecs  DIISMaxEq       ....     5
   Bias factor          DIISBfac        ....   1.050
   Max. coefficient     DIISMaxC        ....  10.000
 Newton-Raphson         CNVNR           .... off
 SOSCF                  CNVSOSCF        .... off
 Level Shifting         CNVShift        .... on
   Level shift para.    LevelShift      ....    0.2500
   Turn off err/grad.   ShiftErr        ....    0.0010
 Zerner damping         CNVZerner       .... off
 Static damping         CNVDamp         .... on
   Fraction old density DampFac         ....    0.7000
   Max. Damping (<1)    DampMax         ....    0.9800
   Min. Damping (>=0)   DampMin         ....    0.0000
   Turn off err/grad.   DampErr         ....    0.1000
 Fernandez-Rico         CNVRico         .... off

SCF Procedure:
 Maximum # iterations   MaxIter         ....   125
 SCF integral mode      SCFMode         .... Direct
   Integral package                     .... LIBINT
 Reset frequency        DirectResetFreq ....    20
 Integral Threshold     Thresh          ....  2.500e-11 Eh
 Primitive CutOff       TCut            ....  2.500e-12 Eh

Convergence Tolerance:
 Convergence Check Mode ConvCheckMode   .... Total+1el-Energy
 Convergence forced     ConvForced      .... 1
 Energy Change          TolE            ....  1.000e-08 Eh
 1-El. energy change                    ....  1.000e-05 Eh
 DIIS Error             TolErr          ....  5.000e-07


Diagonalization of the overlap matrix:
Smallest eigenvalue                        ... 5.831e-05
Time for diagonalization                   ...    0.021 sec
Threshold for overlap eigenvalues          ... 1.000e-08
Number of eigenvalues below threshold      ... 0
Time for construction of square roots      ...    0.006 sec
Total time needed                          ...    0.027 sec

-------------------
DFT GRID GENERATION
-------------------

General Integration Accuracy     IntAcc      ...  4.340
Radial Grid Type                 RadialGrid  ... Gauss-Chebyshev
Angular Grid (max. acc.)         AngularGrid ... Lebedev-110
Angular grid pruning method      GridPruning ... 3 (G Style)
Weight generation scheme         WeightScheme... Becke
Basis function cutoff            BFCut       ...    1.0000e-11
Integration weight cutoff        WCut        ...    1.0000e-14
Grids for H and He will be reduced by one unit

# of grid points (after initial pruning)     ...   2972 (   0.0 sec)
# of grid points (after weights+screening)   ...   2972 (   0.0 sec)
Grid point division into batches done        ...    0.0 sec
Reduced shell lists constructed in    0.0 sec

Total number of grid points                  ...     2972
Total number of batches                      ...       47
Average number of points per batch           ...       63
Average number of grid points per atom       ...     2972
Average number of shells per batch           ...    17.33 (54.17%)
Average number of basis functions per batch  ...    57.33 (40.95%)
Average number of large shells per batch     ...    14.00 (80.77%)
Average number of large basis fcns per batch ...    48.67 (84.88%)
Maximum spatial batch extension              ...  18.71, 28.73, 28.73 au
Average spatial batch extension              ...   0.80,  1.22,  1.22 au

Time for grid setup =    0.019 sec

------------------------------
INITIAL GUESS: MODEL POTENTIAL
------------------------------
Loading Hartree-Fock densities                     ... done
Calculating cut-offs                               ... done
Setting up the integral package                    ... done
Initializing the effective Hamiltonian             ... done
Starting the Coulomb interaction                   ... done (   0.0 sec)
Reading the grid                                   ... done
Mapping shells                                     ... done
Starting the XC term evaluation                    ... done (   0.0 sec)
Transforming the Hamiltonian                       ... done (   0.0 sec)
Diagonalizing the Hamiltonian                      ... done (   0.0 sec)
Back transforming the eigenvectors                 ... done (   0.0 sec)
Now organizing SCF variables                       ... done
                      ------------------
                      INITIAL GUESS DONE (   0.1 sec)
                      ------------------
--------------
SCF ITERATIONS
--------------
ITER       Energy         Delta-E        Max-DP      RMS-DP      [F,P]     Damp
               ***  Starting incremental Fock matrix formation  ***
  0  -1043.3167797716   0.000000000000 0.11660202  0.00216529  0.2015048 0.7000
  1  -1043.3298951632  -0.013115391610 0.07546654  0.00142982  0.1490849 0.7000
                               ***Turning on DIIS***
  2  -1043.3376763028  -0.007781139551 0.04800884  0.00093924  0.1091138 0.7000
  3  -1043.6558941280  -0.318217825261 0.09743705  0.00202394  0.0790390 0.0000
  4  -1043.3734810139   0.282413114149 0.01441843  0.00020534  0.0097104 0.0000
  5  -1043.3656023976   0.007878616244 0.01094506  0.00011985  0.0061138 0.0000
  6  -1043.3663744858  -0.000772088157 0.01440675  0.00010832  0.0039292 0.0000
  7  -1043.3507938818   0.015580604000 0.01532380  0.00008922  0.0018005 0.0000
  8  -1043.3557312135  -0.004937331738 0.01248172  0.00006867  0.0010058 0.0000
  9  -1043.3578742243  -0.002143010765 0.01436128  0.00007693  0.0005844 0.0000
 10  -1043.3567977774   0.001076446862 0.00195354  0.00001147  0.0000848 0.0000
 11  -1043.3568049888  -0.000007211324 0.00011793  0.00000109  0.0000118 0.0000
 12  -1043.3566565356   0.000148453162 0.00005925  0.00000047  0.0000035 0.0000
                            ***DIIS convergence achieved***

               *****************************************************
               *                     SUCCESS                       *
               *           SCF CONVERGED AFTER  13 CYCLES          *
               *****************************************************


----------------
TOTAL SCF ENERGY
----------------

Total Energy       :        -1043.35666394 Eh          -28391.17821 eV

Components:
Nuclear Repulsion  :            0.00000000 Eh               0.00000 eV
Electronic Energy  :        -1043.35666394 Eh          -28391.17821 eV
One Electron Energy:        -1439.71194087 Eh          -39176.55361 eV
Two Electron Energy:          396.35527693 Eh           10785.37540 eV

Virial components:
Potential Energy   :        -2086.67334117 Eh          -56781.26832 eV
Kinetic Energy     :         1043.31667722 Eh           28390.09011 eV
Virial Ratio       :            2.00003833


---------------
SCF CONVERGENCE
---------------

  Last Energy change         ...   -7.4092e-06  Tolerance :   1.0000e-08
  Last MAX-Density change    ...    2.1186e-05  Tolerance :   1.0000e-07
  Last RMS-Density change    ...    1.3690e-07  Tolerance :   5.0000e-09
  Last DIIS Error            ...    7.5562e-07  Tolerance :   5.0000e-07

             **** THE GBW FILE WAS UPDATED (24_Cr.gbw) ****
             **** DENSITY FILE WAS UPDATED (24_Cr.scfp) ****
             **** ENERGY FILE WAS UPDATED (24_Cr.en.tmp) ****
----------------------
UHF SPIN CONTAMINATION
----------------------

Expectation value of <S**2>     :    12.000067
Ideal value S*(S+1) for S=3.0   :    12.000000
Deviation                       :     0.000067

             **** THE GBW FILE WAS UPDATED (24_Cr.gbw) ****
             **** DENSITY FILE WAS UPDATED (24_Cr.scfp) ****
----------------
ORBITAL ENERGIES
----------------
                 SPIN UP ORBITALS
  NO   OCC          E(Eh)            E(eV) 
   0   1.0000    -220.388210     -5997.0681 
   1   1.0000     -26.260276      -714.5784 
   2   1.0000     -22.189095      -603.7960 
   3   1.0000     -22.189095      -603.7960 
   4   1.0000     -22.189095      -603.7960 
   5   1.0000      -3.458752       -94.1174 
   6   1.0000      -2.261538       -61.5396 
   7   1.0000      -2.261538       -61.5396 
   8   1.0000      -2.261538       -61.5396 
   9   1.0000      -0.373671       -10.1681 
  10   1.0000      -0.373671       -10.1681 
  11   1.0000      -0.373671       -10.1681 
  12   1.0000      -0.373671       -10.1681 
  13   1.0000      -0.373671       -10.1681 
  14   1.0000      -0.222066        -6.0427 
  15   0.0000       0.016923         0.4605 
  16   0.0000       0.016923         0.4605 
  17   0.0000       0.016923         0.4605 
  18   0.0000       0.024674         0.6714 
  19   0.0000       0.055574         1.5123 
  20   0.0000       0.055574         1.5123 
  21   0.0000       0.055574         1.5123 
  22   0.0000       0.055574         1.5123 
  23   0.0000       0.055574         1.5123 
  24   0.0000       0.059346         1.6149 
  25   0.0000       0.059346         1.6149 
  26   0.0000       0.059346         1.6149 
  27   0.0000       0.132957         3.6179 
  28   0.0000       0.182983         4.9792 
  29   0.0000       0.182983         4.9792 
  30   0.0000       0.182983         4.9792 
  31   0.0000       0.182983         4.9792 
  32   0.0000       0.182983         4.9792 
  33   0.0000       0.201515         5.4835 
  34   0.0000       0.201515         5.4835 
  35   0.0000       0.201515         5.4835 
  36   0.0000       0.412339        11.2203 
  37   0.0000       0.412339        11.2203 
  38   0.0000       0.412339        11.2203 
  39   0.0000       0.412339        11.2203 
  40   0.0000       0.412339        11.2203 
  41   0.0000       0.412339        11.2203 
  42   0.0000       0.412339        11.2203 
  43   0.0000       0.465764        12.6741 
  44   0.0000       0.578314        15.7367 
  45   0.0000       0.578314        15.7367 
  46   0.0000       0.578314        15.7367 
  47   0.0000       0.578314        15.7367 
  48   0.0000       0.578314        15.7367 
  49   0.0000       0.614131        16.7113 
  50   0.0000       0.614131        16.7113 
  51   0.0000       0.614131        16.7113 
  52   0.0000       1.213993        33.0344 
  53   0.0000       1.213993        33.0344 
  54   0.0000       1.213993        33.0344 
  55   0.0000       1.213993        33.0344 
  56   0.0000       1.213993        33.0344 
  57   0.0000       1.213993        33.0344 
  58   0.0000       1.213993        33.0344 
  59   0.0000       1.213993        33.0344 
  60   0.0000       1.213993        33.0344 
  61   0.0000       1.297958        35.3192 
  62   0.0000       1.297958        35.3192 
  63   0.0000       1.297958        35.3192 
  64   0.0000       1.297958        35.3192 
  65   0.0000       1.297958        35.3192 
  66   0.0000       1.297958        35.3192 
  67   0.0000       1.297958        35.3192 
  68   0.0000       1.827195        49.7205 
  69   0.0000       1.827195        49.7205 
  70   0.0000       1.827195        49.7205 
  71   0.0000       1.878092        51.1055 
  72   0.0000       1.878092        51.1055 
  73   0.0000       1.878092        51.1055 
  74   0.0000       1.878092        51.1055 
  75   0.0000       1.878092        51.1055 
  76   0.0000       1.948596        53.0240 
  77   0.0000       3.642392        99.1145 
  78   0.0000       3.642392        99.1145 
  79   0.0000       3.642392        99.1145 
  80   0.0000       3.642392        99.1145 
  81   0.0000       3.642392        99.1145 
  82   0.0000       3.642392        99.1145 
  83   0.0000       3.642392        99.1145 
  84   0.0000       3.642392        99.1145 
  85   0.0000       3.642392        99.1145 
  86   0.0000       3.701835       100.7321 
  87   0.0000       3.701835       100.7321 
  88   0.0000       3.701835       100.7321 
  89   0.0000       3.701835       100.7321 
  90   0.0000       3.701835       100.7321 
  91   0.0000       3.701835       100.7321 
  92   0.0000       3.701835       100.7321 
  93   0.0000       3.701835       100.7321 
  94   0.0000       3.701835       100.7321 
  95   0.0000       3.701835       100.7321 
  96   0.0000       3.701835       100.7321 
  97   0.0000       3.764900       102.4481 
  98   0.0000       3.764900       102.4481 
  99   0.0000       3.764900       102.4481 
 100   0.0000       3.764900       102.4481 
 101   0.0000       3.764900       102.4481 
 102   0.0000       3.764900       102.4481 
 103   0.0000       3.764900       102.4481 
 104   0.0000       5.354889       145.7139 
 105   0.0000       5.354889       145.7139 
 106   0.0000       5.354889       145.7139 
 107   0.0000       6.184052       168.2766 
 108   0.0000       6.184052       168.2766 
 109   0.0000       6.184052       168.2766 
 110   0.0000       6.184052       168.2766 
 111   0.0000       6.184052       168.2766 
 112   0.0000       7.691972       209.3092 
 113   0.0000      10.449334       284.3408 
 114   0.0000      10.449334       284.3408 
 115   0.0000      10.449334       284.3408 
 116   0.0000      10.449334       284.3408 
 117   0.0000      10.449334       284.3408 
 118   0.0000      10.449334       284.3408 
 119   0.0000      10.449334       284.3408 
 120   0.0000      10.449334       284.3408 
 121   0.0000      10.449334       284.3408 
 122   0.0000      10.449334       284.3408 
 123   0.0000      10.449334       284.3408 
 124   0.0000      11.611290       315.9593 
 125   0.0000      11.611290       315.9593 
 126   0.0000      11.611290       315.9593 
 127   0.0000      11.611290       315.9593 
 128   0.0000      11.611290       315.9593 
 129   0.0000      11.611290       315.9593 
 130   0.0000      11.611290       315.9593 
 131   0.0000      11.749372       319.7167 
 132   0.0000      11.749372       319.7167 
 133   0.0000      11.749372       319.7167 
 134   0.0000      11.749372       319.7167 
 135   0.0000      11.749372       319.7167 
 136   0.0000      11.749372       319.7167 
 137   0.0000      11.749372       319.7167 
 138   0.0000      11.749372       319.7167 
 139   0.0000      11.749372       319.7167 

                 SPIN DOWN ORBITALS
  NO   OCC          E(Eh)            E(eV) 
   0   1.0000    -220.387140     -5997.0390 
   1   1.0000     -26.159562      -711.8379 
   2   1.0000     -22.091444      -601.1388 
   3   1.0000     -22.091444      -601.1388 
   4   1.0000     -22.091444      -601.1388 
   5   1.0000      -3.111220       -84.6606 
   6   1.0000      -1.839852       -50.0649 
   7   1.0000      -1.839852       -50.0649 
   8   1.0000      -1.839852       -50.0649 
   9   0.0000       0.009570         0.2604 
  10   0.0000       0.025347         0.6897 
  11   0.0000       0.025347         0.6897 
  12   0.0000       0.025347         0.6897 
  13   0.0000       0.052842         1.4379 
  14   0.0000       0.056183         1.5288 
  15   0.0000       0.056183         1.5288 
  16   0.0000       0.056183         1.5288 
  17   0.0000       0.056183         1.5288 
  18   0.0000       0.056183         1.5288 
  19   0.0000       0.090073         2.4510 
  20   0.0000       0.090073         2.4510 
  21   0.0000       0.090073         2.4510 
  22   0.0000       0.176187         4.7943 
  23   0.0000       0.181157         4.9295 
  24   0.0000       0.181157         4.9295 
  25   0.0000       0.181157         4.9295 
  26   0.0000       0.181157         4.9295 
  27   0.0000       0.181157         4.9295 
  28   0.0000       0.247727         6.7410 
  29   0.0000       0.247727         6.7410 
  30   0.0000       0.247727         6.7410 
  31   0.0000       0.390540        10.6271 
  32   0.0000       0.390540        10.6271 
  33   0.0000       0.390540        10.6271 
  34   0.0000       0.390540        10.6271 
  35   0.0000       0.390540        10.6271 
  36   0.0000       0.430155        11.7051 
  37   0.0000       0.430155        11.7051 
  38   0.0000       0.430155        11.7051 
  39   0.0000       0.430155        11.7051 
  40   0.0000       0.430155        11.7051 
  41   0.0000       0.430155        11.7051 
  42   0.0000       0.430155        11.7051 
  43   0.0000       0.528563        14.3829 
  44   0.0000       0.673872        18.3370 
  45   0.0000       0.673872        18.3370 
  46   0.0000       0.673872        18.3370 
  47   0.0000       0.741380        20.1740 
  48   0.0000       0.741380        20.1740 
  49   0.0000       0.741380        20.1740 
  50   0.0000       0.741380        20.1740 
  51   0.0000       0.741380        20.1740 
  52   0.0000       1.237881        33.6845 
  53   0.0000       1.237881        33.6845 
  54   0.0000       1.237881        33.6845 
  55   0.0000       1.237881        33.6845 
  56   0.0000       1.237881        33.6845 
  57   0.0000       1.237881        33.6845 
  58   0.0000       1.237881        33.6845 
  59   0.0000       1.237881        33.6845 
  60   0.0000       1.237881        33.6845 
  61   0.0000       1.378976        37.5238 
  62   0.0000       1.378976        37.5238 
  63   0.0000       1.378976        37.5238 
  64   0.0000       1.378976        37.5238 
  65   0.0000       1.378976        37.5238 
  66   0.0000       1.378976        37.5238 
  67   0.0000       1.378976        37.5238 
  68   0.0000       1.906195        51.8702 
  69   0.0000       1.906195        51.8702 
  70   0.0000       1.906195        51.8702 
  71   0.0000       2.042507        55.5794 
  72   0.0000       2.046280        55.6821 
  73   0.0000       2.046280        55.6821 
  74   0.0000       2.046280        55.6821 
  75   0.0000       2.046280        55.6821 
  76   0.0000       2.046280        55.6821 
  77   0.0000       3.714938       101.0886 
  78   0.0000       3.714938       101.0886 
  79   0.0000       3.714938       101.0886 
  80   0.0000       3.714938       101.0886 
  81   0.0000       3.714938       101.0886 
  82   0.0000       3.714938       101.0886 
  83   0.0000       3.714938       101.0886 
  84   0.0000       3.714938       101.0886 
  85   0.0000       3.714938       101.0886 
  86   0.0000       3.737243       101.6955 
  87   0.0000       3.737243       101.6955 
  88   0.0000       3.737243       101.6955 
  89   0.0000       3.737243       101.6955 
  90   0.0000       3.737243       101.6955 
  91   0.0000       3.737243       101.6955 
  92   0.0000       3.737243       101.6955 
  93   0.0000       3.737243       101.6955 
  94   0.0000       3.737243       101.6955 
  95   0.0000       3.737243       101.6955 
  96   0.0000       3.737243       101.6955 
  97   0.0000       3.963606       107.8552 
  98   0.0000       3.963606       107.8552 
  99   0.0000       3.963606       107.8552 
 100   0.0000       3.963606       107.8552 
 101   0.0000       3.963606       107.8552 
 102   0.0000       3.963606       107.8552 
 103   0.0000       3.963606       107.8552 
 104   0.0000       5.453861       148.4071 
 105   0.0000       5.453861       148.4071 
 106   0.0000       5.453861       148.4071 
 107   0.0000       6.331999       172.3025 
 108   0.0000       6.331999       172.3025 
 109   0.0000       6.331999       172.3025 
 110   0.0000       6.331999       172.3025 
 111   0.0000       6.331999       172.3025 
 112   0.0000       7.790309       211.9851 
 113   0.0000      10.526777       286.4482 
 114   0.0000      10.526777       286.4482 
 115   0.0000      10.526777       286.4482 
 116   0.0000      10.526777       286.4482 
 117   0.0000      10.526777       286.4482 
 118   0.0000      10.526777       286.4482 
 119   0.0000      10.526777       286.4482 
 120   0.0000      10.526777       286.4482 
 121   0.0000      10.526777       286.4482 
 122   0.0000      10.526777       286.4482 
 123   0.0000      10.526777       286.4482 
 124   0.0000      11.802928       321.1740 
 125   0.0000      11.802928       321.1740 
 126   0.0000      11.802928       321.1740 
 127   0.0000      11.802928       321.1740 
 128   0.0000      11.802928       321.1740 
 129   0.0000      11.802928       321.1740 
 130   0.0000      11.802928       321.1740 
 131   0.0000      11.891905       323.5952 
 132   0.0000      11.891905       323.5952 
 133   0.0000      11.891905       323.5952 
 134   0.0000      11.891905       323.5952 
 135   0.0000      11.891905       323.5952 
 136   0.0000      11.891905       323.5952 
 137   0.0000      11.891905       323.5952 
 138   0.0000      11.891905       323.5952 
 139   0.0000      11.891905       323.5952 

                    ********************************
                    * MULLIKEN POPULATION ANALYSIS *
                    ********************************

--------------------------------------------
MULLIKEN ATOMIC CHARGES AND SPIN POPULATIONS
--------------------------------------------
   0 Cr:   -0.000000    6.000000
Sum of atomic charges         :   -0.0000000
Sum of atomic spin populations:    6.0000000

-----------------------------------------------------
MULLIKEN REDUCED ORBITAL CHARGES AND SPIN POPULATIONS
-----------------------------------------------------
CHARGE
  0 Crs       :     7.000000  s :     7.000000
      pz      :     4.000000  p :    12.000000
      px      :     4.000000
      py      :     4.000000
      dz2     :     1.000000  d :     5.000000
      dxz     :     1.000000
      dyz     :     1.000000
      dx2y2   :     1.000000
      dxy     :     1.000000
      f0      :     0.000000  f :     0.000000
      f+1     :     0.000000
      f-1     :     0.000000
      f+2     :     0.000000
      f-2     :     0.000000
      f+3     :     0.000000
      f-3     :     0.000000
      g0      :     0.000000  g :     0.000000
      g+1     :     0.000000
      g-1     :     0.000000
      g+2     :     0.000000
      g-2     :     0.000000
      g+3     :     0.000000
      g-3     :     0.000000
      g+4     :     0.000000
      g-4     :     0.000000
      h0      :     0.000000  h :     0.000000
      h+1     :     0.000000
      h-1     :     0.000000
      h+2     :     0.000000
      h-2     :     0.000000
      h+3     :     0.000000
      h-3     :     0.000000
      h+4     :     0.000000
      h-4     :     0.000000
      h+5     :     0.000000
      h-5     :     0.000000

SPIN
  0 Crs       :     1.000000  s :     1.000000
      pz      :     0.000000  p :     0.000000
      px      :     0.000000
      py      :    -0.000000
      dz2     :     1.000000  d :     5.000000
      dxz     :     1.000000
      dyz     :     1.000000
      dx2y2   :     1.000000
      dxy     :     1.000000
      f0      :     0.000000  f :     0.000000
      f+1     :     0.000000
      f-1     :     0.000000
      f+2     :     0.000000
      f-2     :     0.000000
      f+3     :     0.000000
      f-3     :     0.000000
      g0      :     0.000000  g :     0.000000
      g+1     :     0.000000
      g-1     :     0.000000
      g+2     :     0.000000
      g-2     :     0.000000
      g+3     :     0.000000
      g-3     :     0.000000
      g+4     :     0.000000
      g-4     :     0.000000
      h0      :     0.000000  h :     0.000000
      h+1     :     0.000000
      h-1     :     0.000000
      h+2     :    -0.000000
      h-2     :    -0.000000
      h+3     :    -0.000000
      h-3     :    -0.000000
      h+4     :     0.000000
      h-4     :     0.000000
      h+5     :     0.000000
      h-5     :     0.000000


                     *******************************
                     * LOEWDIN POPULATION ANALYSIS *
                     *******************************

-------------------------------------------
LOEWDIN ATOMIC CHARGES AND SPIN POPULATIONS
-------------------------------------------
   0 Cr:   -0.000000    6.000000

----------------------------------------------------
LOEWDIN REDUCED ORBITAL CHARGES AND SPIN POPULATIONS
----------------------------------------------------
CHARGE
  0 Crs       :     7.000000  s :     7.000000
      pz      :     4.000000  p :    12.000000
      px      :     4.000000
      py      :     4.000000
      dz2     :     1.000000  d :     5.000000
      dxz     :     1.000000
      dyz     :     1.000000
      dx2y2   :     1.000000
      dxy     :     1.000000
      f0      :     0.000000  f :     0.000000
      f+1     :     0.000000
      f-1     :     0.000000
      f+2     :     0.000000
      f-2     :     0.000000
      f+3     :     0.000000
      f-3     :     0.000000
      g0      :     0.000000  g :     0.000000
      g+1     :     0.000000
      g-1     :     0.000000
      g+2     :     0.000000
      g-2     :     0.000000
      g+3     :     0.000000
      g-3     :     0.000000
      g+4     :     0.000000
      g-4     :     0.000000
      h0      :     0.000000  h :     0.000000
      h+1     :     0.000000
      h-1     :     0.000000
      h+2     :     0.000000
      h-2     :     0.000000
      h+3     :     0.000000
      h-3     :     0.000000
      h+4     :     0.000000
      h-4     :     0.000000
      h+5     :     0.000000
      h-5     :     0.000000

SPIN
  0 Crs       :     1.000000  s :     1.000000
      pz      :     0.000000  p :     0.000000
      px      :     0.000000
      py      :    -0.000000
      dz2     :     1.000000  d :     5.000000
      dxz     :     1.000000
      dyz     :     1.000000
      dx2y2   :     1.000000
      dxy     :     1.000000
      f0      :     0.000000  f :     0.000000
      f+1     :     0.000000
      f-1     :     0.000000
      f+2     :     0.000000
      f-2     :     0.000000
      f+3     :     0.000000
      f-3     :     0.000000
      g0      :     0.000000  g :     0.000000
      g+1     :     0.000000
      g-1     :     0.000000
      g+2     :     0.000000
      g-2     :     0.000000
      g+3     :     0.000000
      g-3     :     0.000000
      g+4     :     0.000000
      g-4     :     0.000000
      h0      :     0.000000  h :     0.000000
      h+1     :     0.000000
      h-1     :     0.000000
      h+2     :     0.000000
      h-2     :    -0.000000
      h+3     :    -0.000000
      h-3     :    -0.000000
      h+4     :     0.000000
      h-4     :     0.000000
      h+5     :     0.000000
      h-5     :     0.000000


                      *****************************
                      * MAYER POPULATION ANALYSIS *
                      *****************************

  NA   - Mulliken gross atomic population
  ZA   - Total nuclear charge
  QA   - Mulliken gross atomic charge
  VA   - Mayer's total valence
  BVA  - Mayer's bonded valence
  FA   - Mayer's free valence

  ATOM       NA         ZA         QA         VA         BVA        FA
  0 Cr    24.0000    24.0000    -0.0000     6.0001     0.0000     6.0001

  Mayer bond orders larger than 0.100000


-------
TIMINGS
-------

Total SCF time: 0 days 0 hours 5 min 48 sec 

Total time                  ....     348.692 sec
Sum of individual times     ....     348.200 sec  ( 99.9%)

Fock matrix formation       ....     347.946 sec  ( 99.8%)
Diagonalization             ....       0.064 sec  (  0.0%)
Density matrix formation    ....       0.008 sec  (  0.0%)
Population analysis         ....       0.006 sec  (  0.0%)
Initial guess               ....       0.127 sec  (  0.0%)
Orbital Transformation      ....       0.000 sec  (  0.0%)
Orbital Orthonormalization  ....       0.000 sec  (  0.0%)
DIIS solution               ....       0.029 sec  (  0.0%)


           ************************************************************
           *        Program running with 24 parallel MPI-processes    *
           *              working on a common directory               *
           ************************************************************


------------------------------------------------------------------------------- 
                              ORCA-MATRIX DRIVEN CI                            
------------------------------------------------------------------------------- 

--------------------------------
AUTOMATIC CHOICE OF INCORE LEVEL
--------------------------------

Memory available                           ...   2500.00 MB
Memory needed for S+T                      ...     19.67 MB
Memory needed for J+K                      ...     39.44 MB
Memory needed for DIIS                     ...    275.37 MB
Memory needed for 3-ext                    ...    149.01 MB
Memory needed for 4-ext                    ...    938.77 MB
Memory needed for triples                  ...     74.51 MB
 -> Final InCoreLevel    ... 5
 -> check shows that triples correction can be computed


Wavefunction type
-----------------
Correlation treatment                      ...      CCSD     
Single excitations                         ... ON
Orbital optimization                       ... OFF
Calculation of Z vector                    ... OFF
Calculation of Brueckner orbitals          ... OFF
Perturbative triple excitations            ... ON
Calculation of F12 correction              ... OFF
Frozen core treatment                      ... chemical core (10 el)
Reference Wavefunction                     ... UHF
  Alpha-MOs occ    :     5 ...   14 ( 10 MO's/ 10 electrons)
  Beta-MOs occ     :     5 ...    8 (  4 MO's/  4 electrons)
  Alpha-MOs virt   :    15 ...  139 (125 MO's              )
  Beta-MOs virt    :     9 ...  139 (131 MO's              )
Number of AO's                             ...    140
Number of electrons                        ...     24
Number of correlated electrons             ...     14

Algorithmic settings
--------------------
Integral transformation                    ... AO direct full transformation
K(C) Formation                             ... FULL-MO TRAFO
Maximum number of iterations               ...        50
Convergence tolerance (max. residuum)      ... 1.000e-05
Level shift for amplitude update           ... 2.000e-01
Maximum number of DIIS vectors             ...         7
DIIS turned on at iteration                ...         0
Damping before turning on DIIS             ...     0.500
Damping after turning on DIIS              ...     0.000
Pair specific amplitude update             ... OFF
Natural orbital iterations                 ... OFF
Perturbative natural orbital generation    ... OFF
Printlevel                                 ... 2

Memory handling:
----------------
Maximum memory for working arrays          ...   2500 MB
Data storage in matrix containers          ... UNCOMPRESSED
Data type for integral storage             ... DOUBLE
In-Core Storage of quantities:
   Amplitudes+Sigma Vector      ... YES
   J+K operators                ... YES
   DIIS vectors                 ... YES
   3-external integrals         ... YES
   4-external integrals         ... YES


Initializing the integral package          ... done
Warning: reference  - re-canonicalizations have been set to INT 1 VIRT 1

--------------------------
UNRESTRICTED FOCK OPERATOR
--------------------------

<ss|ss>:         1035 b            0 skpd (  0.0%)    0.228 s ( 0.221 ms/b)
<ss|sp>:         3240 b            0 skpd (  0.0%)    2.017 s ( 0.622 ms/b)
<ss|sd>:         2430 b            0 skpd (  0.0%)    0.992 s ( 0.408 ms/b)
<ss|sf>:         1620 b            0 skpd (  0.0%)    0.092 s ( 0.057 ms/b)
<ss|sg>:         1215 b            0 skpd (  0.0%)    0.104 s ( 0.085 ms/b)
<ss|sh>:          810 b            0 skpd (  0.0%)    0.084 s ( 0.104 ms/b)
<ss|pp>:         1620 b            0 skpd (  0.0%)    1.478 s ( 0.912 ms/b)
<ss|pd>:         2160 b            1 skpd (  0.0%)    1.045 s ( 0.484 ms/b)
<ss|pf>:         1440 b            0 skpd (  0.0%)    0.097 s ( 0.067 ms/b)
<ss|pg>:         1080 b            0 skpd (  0.0%)    0.091 s ( 0.084 ms/b)
<ss|ph>:          720 b            0 skpd (  0.0%)    0.109 s ( 0.151 ms/b)
<ss|dd>:          945 b            0 skpd (  0.0%)    0.382 s ( 0.404 ms/b)
<ss|df>:         1080 b            0 skpd (  0.0%)    0.051 s ( 0.047 ms/b)
<ss|dg>:          810 b            0 skpd (  0.0%)    0.065 s ( 0.080 ms/b)
<ss|dh>:          540 b            0 skpd (  0.0%)    0.081 s ( 0.150 ms/b)
<ss|ff>:          450 b            0 skpd (  0.0%)    0.005 s ( 0.012 ms/b)
<ss|fg>:          540 b            0 skpd (  0.0%)    0.008 s ( 0.015 ms/b)
<ss|fh>:          360 b            0 skpd (  0.0%)    0.011 s ( 0.032 ms/b)
<ss|gg>:          270 b            0 skpd (  0.0%)    0.012 s ( 0.043 ms/b)
<ss|gh>:          270 b            0 skpd (  0.0%)    0.016 s ( 0.061 ms/b)
<ss|hh>:          135 b            0 skpd (  0.0%)    0.023 s ( 0.167 ms/b)
<sp|sp>:         2628 b            0 skpd (  0.0%)    1.889 s ( 0.719 ms/b)
<sp|sd>:         3888 b           12 skpd (  0.3%)    1.642 s ( 0.424 ms/b)
<sp|sf>:         2592 b            6 skpd (  0.2%)    0.165 s ( 0.064 ms/b)
<sp|sg>:         1944 b            3 skpd (  0.2%)    0.220 s ( 0.113 ms/b)
<sp|sh>:         1296 b            0 skpd (  0.0%)    0.161 s ( 0.124 ms/b)
<sp|pp>:         2592 b            5 skpd (  0.2%)    2.265 s ( 0.875 ms/b)
<sp|pd>:         3456 b           40 skpd (  1.2%)    1.713 s ( 0.502 ms/b)
<sp|pf>:         2304 b           41 skpd (  1.8%)    0.214 s ( 0.095 ms/b)
<sp|pg>:         1728 b           35 skpd (  2.0%)    0.178 s ( 0.105 ms/b)
<sp|ph>:         1152 b           21 skpd (  1.8%)    0.225 s ( 0.199 ms/b)
<sp|dd>:         1512 b            9 skpd (  0.6%)    0.791 s ( 0.526 ms/b)
<sp|df>:         1728 b         1718 skpd ( 99.4%)    0.005 s ( 0.453 ms/b)
<sp|dg>: done
<sp|dh>: done
<sp|ff>:          720 b          690 skpd ( 95.8%)    0.003 s ( 0.100 ms/b)
<sp|fg>:          864 b          854 skpd ( 98.8%)    0.001 s ( 0.138 ms/b)
<sp|fh>:          576 b          573 skpd ( 99.5%)    0.001 s ( 0.457 ms/b)
<sp|gg>:          432 b          420 skpd ( 97.2%)    0.003 s ( 0.270 ms/b)
<sp|gh>:          432 b          431 skpd ( 99.8%)    0.001 s ( 0.992 ms/b)
<sp|hh>: done
<sd|sd>:         1485 b           10 skpd (  0.7%)    0.556 s ( 0.377 ms/b)
<sd|sf>:         1944 b           15 skpd (  0.8%)    0.116 s ( 0.060 ms/b)
<sd|sg>:         1458 b           11 skpd (  0.8%)    0.164 s ( 0.113 ms/b)
<sd|sh>:          972 b            9 skpd (  0.9%)    0.146 s ( 0.152 ms/b)
<sd|pp>:         1944 b           26 skpd (  1.3%)    1.313 s ( 0.685 ms/b)
<sd|pd>:         2592 b          112 skpd (  4.3%)    1.266 s ( 0.510 ms/b)
<sd|pf>:         1728 b         1723 skpd ( 99.7%)    0.009 s ( 1.740 ms/b)
<sd|pg>: done
<sd|ph>: done
<sd|dd>:         1134 b           15 skpd (  1.3%)    0.624 s ( 0.558 ms/b)
<sd|df>:         1296 b           66 skpd (  5.1%)    0.106 s ( 0.086 ms/b)
<sd|dg>:          972 b           53 skpd (  5.5%)    0.159 s ( 0.173 ms/b)
<sd|dh>:          648 b           39 skpd (  6.0%)    0.234 s ( 0.384 ms/b)
<sd|ff>: done
<sd|fg>: done
<sd|fh>: done
<sd|gg>:          324 b          312 skpd ( 96.3%)    0.009 s ( 0.726 ms/b)
<sd|gh>: done
<sd|hh>: done
<sf|sf>:          666 b            6 skpd (  0.9%)    0.013 s ( 0.020 ms/b)
<sf|sg>:          972 b           11 skpd (  1.1%)    0.030 s ( 0.031 ms/b)
<sf|sh>:          648 b            4 skpd (  0.6%)    0.033 s ( 0.052 ms/b)
<sf|pp>:         1296 b           15 skpd (  1.2%)    0.225 s ( 0.176 ms/b)
<sf|pd>:         1728 b         1725 skpd ( 99.8%)    0.012 s ( 3.849 ms/b)
<sf|pf>:         1152 b         1149 skpd ( 99.7%)    0.001 s ( 0.431 ms/b)
<sf|pg>: done
<sf|ph>: done
<sf|dd>:          756 b           17 skpd (  2.2%)    0.124 s ( 0.168 ms/b)
<sf|df>: done
<sf|dg>: done
<sf|dh>: done
<sf|ff>: done
<sf|fg>: done
<sf|fh>: done
<sf|gg>:          216 b          212 skpd ( 98.1%)    0.001 s ( 0.284 ms/b)
<sf|gh>: done
<sf|hh>: done
<sg|sg>:          378 b            5 skpd (  1.3%)    0.027 s ( 0.072 ms/b)
<sg|sh>:          486 b            4 skpd (  0.8%)    0.050 s ( 0.103 ms/b)
<sg|pp>:          972 b           12 skpd (  1.2%)    0.312 s ( 0.325 ms/b)
<sg|pd>: done
<sg|pf>:          864 b          863 skpd ( 99.9%)    0.001 s ( 1.349 ms/b)
<sg|pg>: done
<sg|ph>: done
<sg|dd>:          567 b           15 skpd (  2.6%)    0.183 s ( 0.332 ms/b)
<sg|df>: done
<sg|dg>: done
<sg|dh>: done
<sg|ff>:          270 b          263 skpd ( 97.4%)    0.001 s ( 0.101 ms/b)
<sg|fg>: done
<sg|fh>: done
<sg|gg>:          162 b          158 skpd ( 97.5%)    0.002 s ( 0.381 ms/b)
<sg|gh>: done
<sg|hh>:           81 b           78 skpd ( 96.3%)    0.003 s ( 1.082 ms/b)
<sh|sh>:          171 b            1 skpd (  0.6%)    0.061 s ( 0.356 ms/b)
<sh|pp>:          648 b            5 skpd (  0.8%)    0.400 s ( 0.621 ms/b)
<sh|pd>: done
<sh|pf>: done
<sh|pg>: done
<sh|ph>: done
<sh|dd>:          378 b            9 skpd (  2.4%)    0.259 s ( 0.701 ms/b)
<sh|df>: done
<sh|dg>: done
<sh|dh>: done
<sh|ff>: done
<sh|fg>: done
<sh|fh>: done
<sh|gg>: done
<sh|gh>: done
<sh|hh>: done
<pp|pp>:          666 b            0 skpd (  0.0%)    0.927 s ( 1.392 ms/b)
<pp|pd>:         1728 b            0 skpd (  0.0%)    1.433 s ( 0.829 ms/b)
<pp|pf>:         1152 b            0 skpd (  0.0%)    0.197 s ( 0.171 ms/b)
<pp|pg>:          864 b            0 skpd (  0.0%)    0.173 s ( 0.201 ms/b)
<pp|ph>:          576 b            0 skpd (  0.0%)    0.259 s ( 0.450 ms/b)
<pp|dd>:          756 b            0 skpd (  0.0%)    0.679 s ( 0.899 ms/b)
<pp|df>:          864 b            1 skpd (  0.1%)    0.115 s ( 0.134 ms/b)
<pp|dg>:          648 b            1 skpd (  0.2%)    0.173 s ( 0.267 ms/b)
<pp|dh>:          432 b            0 skpd (  0.0%)    0.268 s ( 0.621 ms/b)
<pp|ff>:          360 b            0 skpd (  0.0%)    0.020 s ( 0.056 ms/b)
<pp|fg>:          432 b            0 skpd (  0.0%)    0.028 s ( 0.064 ms/b)
<pp|fh>:          288 b            0 skpd (  0.0%)    0.038 s ( 0.133 ms/b)
<pp|gg>:          216 b            0 skpd (  0.0%)    0.043 s ( 0.197 ms/b)
<pp|gh>:          216 b            0 skpd (  0.0%)    0.054 s ( 0.249 ms/b)
<pp|hh>:          108 b            0 skpd (  0.0%)    0.079 s ( 0.732 ms/b)
<pd|pd>:         1176 b            0 skpd (  0.0%)    1.230 s ( 1.046 ms/b)
<pd|pf>:         1536 b            7 skpd (  0.5%)    0.293 s ( 0.191 ms/b)
<pd|pg>:         1152 b            7 skpd (  0.6%)    0.289 s ( 0.252 ms/b)
<pd|ph>:          768 b            7 skpd (  0.9%)    0.445 s ( 0.585 ms/b)
<pd|dd>:         1008 b            5 skpd (  0.5%)    1.021 s ( 1.018 ms/b)
<pd|df>:         1152 b           33 skpd (  2.9%)    0.198 s ( 0.177 ms/b)
<pd|dg>:          864 b           30 skpd (  3.5%)    0.289 s ( 0.347 ms/b)
<pd|dh>:          576 b           25 skpd (  4.3%)    0.451 s ( 0.819 ms/b)
<pd|ff>:          480 b          457 skpd ( 95.2%)    0.006 s ( 0.271 ms/b)
<pd|fg>:          576 b          561 skpd ( 97.4%)    0.007 s ( 0.496 ms/b)
<pd|fh>:          384 b          379 skpd ( 98.7%)    0.011 s ( 2.108 ms/b)
<pd|gg>:          288 b          280 skpd ( 97.2%)    0.017 s ( 2.068 ms/b)
<pd|gh>:          288 b          287 skpd ( 99.7%)    0.004 s ( 3.759 ms/b)
<pd|hh>: done
<pf|pf>:          528 b           10 skpd (  1.9%)    0.031 s ( 0.060 ms/b)
<pf|pg>:          768 b           13 skpd (  1.7%)    0.055 s ( 0.073 ms/b)
<pf|ph>:          512 b            7 skpd (  1.4%)    0.090 s ( 0.178 ms/b)
<pf|dd>:          672 b            9 skpd (  1.3%)    0.183 s ( 0.275 ms/b)
<pf|df>:          768 b          755 skpd ( 98.3%)    0.003 s ( 0.227 ms/b)
<pf|dg>:          576 b          574 skpd ( 99.7%)    0.005 s ( 2.379 ms/b)
<pf|dh>: done
<pf|ff>:          320 b          304 skpd ( 95.0%)    0.001 s ( 0.056 ms/b)
<pf|fg>:          384 b          374 skpd ( 97.4%)    0.001 s ( 0.098 ms/b)
<pf|fh>:          256 b          251 skpd ( 98.0%)    0.001 s ( 0.266 ms/b)
<pf|gg>:          192 b          182 skpd ( 94.8%)    0.001 s ( 0.142 ms/b)
<pf|gh>:          192 b          186 skpd ( 96.9%)    0.002 s ( 0.312 ms/b)
<pf|hh>:           96 b           90 skpd ( 93.8%)    0.003 s ( 0.427 ms/b)
<pg|pg>:          300 b            5 skpd (  1.7%)    0.079 s ( 0.268 ms/b)
<pg|ph>:          384 b            7 skpd (  1.8%)    0.128 s ( 0.339 ms/b)
<pg|dd>:          504 b            7 skpd (  1.4%)    0.283 s ( 0.570 ms/b)
<pg|df>:          576 b          572 skpd ( 99.3%)    0.003 s ( 0.733 ms/b)
<pg|dg>: done
<pg|dh>: done
<pg|ff>:          240 b          232 skpd ( 96.7%)    0.001 s ( 0.140 ms/b)
<pg|fg>:          288 b          285 skpd ( 99.0%)    0.001 s ( 0.299 ms/b)
<pg|fh>:          192 b          191 skpd ( 99.5%)    0.001 s ( 1.166 ms/b)
<pg|gg>: done
<pg|gh>: done
<pg|hh>: done
<ph|ph>:          136 b            4 skpd (  2.9%)    0.147 s ( 1.115 ms/b)
<ph|dd>:          336 b            5 skpd (  1.5%)    0.366 s ( 1.106 ms/b)
<ph|df>:          384 b          383 skpd ( 99.7%)    0.005 s ( 5.138 ms/b)
<ph|dg>: done
<ph|dh>: done
<ph|ff>:          160 b          154 skpd ( 96.2%)    0.002 s ( 0.321 ms/b)
<ph|fg>:          192 b          191 skpd ( 99.5%)    0.001 s ( 1.441 ms/b)
<ph|fh>: done
<ph|gg>: done
<ph|gh>: done
<ph|hh>: done
<dd|dd>:          231 b            0 skpd (  0.0%)    0.477 s ( 2.066 ms/b)
<dd|df>:          504 b            2 skpd (  0.4%)    0.099 s ( 0.196 ms/b)
<dd|dg>:          378 b            1 skpd (  0.3%)    0.159 s ( 0.421 ms/b)
<dd|dh>:          252 b            1 skpd (  0.4%)    0.238 s ( 0.946 ms/b)
<dd|ff>:          210 b            1 skpd (  0.5%)    0.018 s ( 0.085 ms/b)
<dd|fg>:          252 b            2 skpd (  0.8%)    0.027 s ( 0.109 ms/b)
<dd|fh>:          168 b            0 skpd (  0.0%)    0.038 s ( 0.228 ms/b)
<dd|gg>:          126 b            0 skpd (  0.0%)    0.040 s ( 0.316 ms/b)
<dd|gh>:          126 b            0 skpd (  0.0%)    0.054 s ( 0.427 ms/b)
<dd|hh>:           63 b            0 skpd (  0.0%)    0.073 s ( 1.154 ms/b)
<df|df>:          300 b           12 skpd (  4.0%)    0.030 s ( 0.102 ms/b)
<df|dg>:          432 b           19 skpd (  4.4%)    0.048 s ( 0.116 ms/b)
<df|dh>:          288 b           12 skpd (  4.2%)    0.072 s ( 0.261 ms/b)
<df|ff>: done
<df|fg>:          288 b          285 skpd ( 99.0%)    0.001 s ( 0.386 ms/b)
<df|fh>: done
<df|gg>:          144 b          137 skpd ( 95.1%)    0.003 s ( 0.360 ms/b)
<df|gh>:          144 b          142 skpd ( 98.6%)    0.002 s ( 1.180 ms/b)
<df|hh>: done
<dg|dg>:          171 b            7 skpd (  4.1%)    0.063 s ( 0.383 ms/b)
<dg|dh>:          216 b           10 skpd (  4.6%)    0.092 s ( 0.446 ms/b)
<dg|ff>:          180 b          176 skpd ( 97.8%)    0.001 s ( 0.325 ms/b)
<dg|fg>: done
<dg|fh>: done
<dg|gg>:          108 b          103 skpd ( 95.4%)    0.003 s ( 0.570 ms/b)
<dg|gh>: done
<dg|hh>:           54 b           52 skpd ( 96.3%)    0.005 s ( 2.643 ms/b)
<dh|dh>:           78 b            5 skpd (  6.4%)    0.100 s ( 1.368 ms/b)
<dh|ff>: done
<dh|fg>: done
<dh|fh>: done
<dh|gg>:           72 b           71 skpd ( 98.6%)    0.002 s ( 2.305 ms/b)
<dh|gh>: done
<dh|hh>: done
<ff|ff>: done
<ff|fg>: done
<ff|fh>: done
<ff|gg>: done
<ff|gh>: done
<ff|hh>: done
<fg|fg>: done
<fg|fh>: done
<fg|gg>: done
<fg|gh>: done
<fg|hh>: done
<fh|fh>: done
<fh|gg>: done
<fh|gh>: done
<fh|hh>: done
<gg|gg>: done
<gg|gh>: done
<gg|hh>: done
<gh|gh>: done
<gh|hh>: done
<hh|hh>: done
Recanonicalizing the internal orbitals
Recanonicalizing the virtual orbitals
Time needed for Fock operator              ...           34.779 sec
Reference energy                           ...  -1043.356655775
Warning: for UHF the TrafoType has to be JK
Warning: for UHF the K(C)-option cannot be MO but must be AOX

-------------------------------
PARTIAL EXCHANGE TRANSFORMATION
-------------------------------

Transformation type                        ... two-operators
Generation of integrals (i,mue|j,nue)      ... ON
Generation of integrals (mue,kappa|nue,tau)... ON
Generation of integrals (i,mue|a,nue)      ... ON
Dimension of the basis                     ...  140
Number of internal alpha-MOs               ...   10 (   5-  14)
Number of internal beta-MOs                ...    4 (   5-   8)
Number of external alpha-MOs               ...  125 (  15- 139)
Number of external beta-MOs                ...  131 (   9- 139)
Pair cutoff                                ... 0.000e+00 Eh
Number of AO pairs in the trafo            ... 9870
Total Number of distinct AO pairs          ... 9870
Memory devoted for trafo                   ... 2500.0 MB 
Max. Number of MO pairs treated together   ... 16718      
Number Format for Storage                  ... Double (8 Byte)
Integral package used                      ... LIBINT

Starting integral evaluation:
    ... done with AO integral generation
Closing buffer AOK[aa] ( 0.00 GB; CompressionRatio= 0.99)
Closing buffer AOK[bb] ( 0.00 GB; CompressionRatio= 0.91)
Closing buffer AOK[ab] ( 0.00 GB; CompressionRatio= 0.96)
Closing buffer AOK[ba] ( 0.00 GB; CompressionRatio= 0.96)
Collecting buffer AOK 
Closing buffer IAAO1[aa] ( 0.00 GB; CompressionRatio= 1.00)
Closing buffer IAAO1[bb] ( 0.00 GB; CompressionRatio= 1.00)
Closing buffer IAAO1[ab] ( 0.00 GB; CompressionRatio= 1.00)
Closing buffer IAAO1[ba] ( 0.00 GB; CompressionRatio= 1.00)
Closing buffer IAAO2[aa] ( 0.00 GB; CompressionRatio= 1.00)
Closing buffer IAAO2[bb] ( 0.00 GB; CompressionRatio= 1.00)
Closing buffer IAAO2[ab] ( 0.00 GB; CompressionRatio= 1.00)
Closing buffer IAAO2[ba] ( 0.00 GB; CompressionRatio= 1.00)
Collecting buffer IAAO 
Closing buffer PRQS    ( 0.01 GB; CompressionRatio= 1.00)
Collecting buffer PRQS 
Number of alpha/alpha MO pairs in trafo    ...   55
Number of beta /beta  MO pairs in trafo    ...   10
Number of alpha/ beta MO pairs in trafo    ...   40
------------------------
SORTING OF (i,mue|j,nue)
------------------------

SORTING OF ALPHA/ALPHA PAIRS
IBATCH = 1 of  1
Closing buffer KAO[aa] ( 0.00 GB; CompressionRatio= 1.00)
Collecting buffer KAO 
SORTING OF BETA /BETA  PAIRS
IBATCH = 1 of  1
Closing buffer KAO[bb] ( 0.00 GB; CompressionRatio= 1.00)
Collecting buffer KAO 
SORTING OF ALPHA/BETA  PAIRS
IBATCH = 1 of  1
Closing buffer KAO[ab] ( 0.00 GB; CompressionRatio= 0.999923475244)
Collecting buffer KAO[ab] 
------------------------
SORTING OF (i,mue|a,nue)
------------------------

Number of alpha/alpha (i,a) pairs in trafo  ... 1250
Number of beta /beta  (i,a) pairs in trafo  ...  524
Number of alpha/ beta (i,a) pairs in trafo  ... 1310
Number of beta /alpha (i,a) pairs in trafo  ...  500
Setting up the alpha/alpha list             ... done
Setting up the beta /beta  list             ... done
Setting up the alpha/beta  list             ... done
Setting up the beta /alpha list             ... done
    ... Now sorting (i,mue|a,nue)integrals
    ... Integrals (i,b|a,c) will be made on the fly
SORTING OF ALPHA/ALPHA PAIRS
IBATCH = 1 of  1
Closing buffer IPAQ[aa]  0.01 GB; CompressionRatio= 1.00)
SORTING OF BETA /BETA  PAIRS
IBATCH = 1 of  1
Closing buffer IPAQ[bb]( 0.00 GB; CompressionRatio= 1.00)
SORTING OF ALPHA/BETA  PAIRS (NMatSort_ab=55)
IBATCH = 1 of  1
Closing buffer IPAQ[ab]( 0.01 GB; CompressionRatio= 1.00)
SORTING OF BETA/ALPHA  PAIRS
IBATCH = 1 of  1
Closing buffer IPAQ[ba]( 0.00 GB; CompressionRatio= 1.00)
N(AO-Batches) Done                         ...      9216 
N(AO-Batches) Skipped                      ...         0 
N(IJ)-pairs Skipped                        ...         0 
TOTAL TIME for half transformation         ...   169.831 sec
AO-integral generation                     ...     9.151 sec
Half transformation                        ...     0.025 sec
K-integral sorting                         ...     2.086 sec
<ss|**>: 
------------------------------
PARTIAL COULOMB TRANSFORMATION
------------------------------

Transformation type                        ... two-operators
Dimension of the basis                     ...  140
Number of internal alpha-MOs               ...   10 (5-14)
Number of internal beta-MOs                ...    4 (5-8)
Pair cutoff                                ... 0.000e+00 Eh
Number of AO pairs included in the trafo   ... 9870
Total Number of distinct AO pairs          ... 9870
Memory devoted for trafo                   ... 2500.0 MB 
Max. Number of MO pairs treated together   ... 33199      
Max. Number of MOs treated per batch       ...  237      
Number Format for Storage                  ... Double (8 Byte)
AO-integral source                         ... DIRECT
Integral package used                      ... LIBINT

Starting integral evaluation:
       23760 b        0 skpd     6.200 s (  0.261 ms/b)
<sp|**>:        38016 b        0 skpd    11.980 s (  0.315 ms/b)
<sd|**>:        28512 b        0 skpd     7.568 s (  0.265 ms/b)
<sf|**>:        19008 b        0 skpd     1.193 s (  0.063 ms/b)
<sg|**>:        14256 b        0 skpd     2.087 s (  0.146 ms/b)
<sh|**>:         9504 b        0 skpd     2.013 s (  0.212 ms/b)
<pp|**>:        19008 b        0 skpd    11.463 s (  0.603 ms/b)
<pd|**>:        25344 b        0 skpd    11.403 s (  0.450 ms/b)
<pf|**>:        16896 b        0 skpd     1.784 s (  0.106 ms/b)
<pg|**>:        12672 b        0 skpd     1.713 s (  0.135 ms/b)
<ph|**>:         8448 b        0 skpd     2.662 s (  0.315 ms/b)
<dd|**>:        11088 b        0 skpd     6.042 s (  0.545 ms/b)
<df|**>:        12672 b        0 skpd     1.075 s (  0.085 ms/b)
<dg|**>:         9504 b        0 skpd     1.640 s (  0.173 ms/b)
<dh|**>:         6336 b        0 skpd     2.419 s (  0.382 ms/b)
<ff|**>:         5280 b        0 skpd     0.197 s (  0.037 ms/b)
<fg|**>:         6336 b        0 skpd     0.296 s (  0.047 ms/b)
<fh|**>:         4224 b        0 skpd     0.409 s (  0.097 ms/b)
<gg|**>:         3168 b        0 skpd     0.439 s (  0.139 ms/b)
<gh|**>:         3168 b        0 skpd     0.602 s (  0.190 ms/b)
<hh|**>:         1584 b        0 skpd     0.821 s (  0.518 ms/b)
Closing buffer AOJ[aa] ( 0.00 GB; CompressionRatio= 0.97)
Closing buffer AOJ[bb] ( 0.00 GB; CompressionRatio= 0.00)
Collecting buffer AOJ 
    ... done with AO integral generation
Number of Alpha-MO pairs included          ...   55
Number of Beta-MO pairs included           ...   10
    ... Now sorting integrals
SORTING ALPHA/ALPHA PAIRS
IBATCH = 1 of  1
Closing buffer JAO[aa] ( 0.00 GB; CompressionRatio= 1.00)
SORTING BETA/BETA PAIRS
IBATCH = 1 of  1
Closing buffer JAO[bb] ( 0.00 GB; CompressionRatio= 1.00)
Collecting buffer JAO 
TOTAL TIME for half transformation         ...    74.061 sec
AO-integral generation                     ...    73.994 sec
Half transformation                        ...     0.028 sec
J-integral sorting                         ...     0.026 sec

-------------------------- SECOND HALF TRANSFORMATION -------------------------
Formation of (ij|kl),(ij|ka), (ij|ab)      ... ok (     0.116 sec)
Formation of (ik|jl),(ik|ja), (ia|jb)      ... ok (     0.121 sec)


-----------------------
SPIN UNRESTRICTED GUESS
-----------------------

Entering MDCI_UHF_Guess, Tailored=0
Spin-components of the MP2 energy:
EMP2(aa)=     -0.163993389
EMP2(bb)=     -0.031069299
EMP2(ab)=     -0.293041050

Initial guess performed in     0.035 sec
E(0)                                       ...  -1043.356655775
E(MP2)                                     ...     -0.488103738
Initial E(tot)                             ...  -1043.844759513
<T|T>                                      ...      0.079765514
Number of pairs included                   ... 91

------------------------------------------------
                  UHF COUPLED CLUSTER ITERATIONS
------------------------------------------------

Number of amplitudes to be optimized       ...      1058907

Iter       E(tot)           E(Corr)          Delta-E          Residual     Time      <S|S>**1/2
  0  -1043.844759513     -0.488103738     -0.000000000      0.025150096   20.75      0.000000274
                           *** Turning on DIIS ***
  1  -1043.828324045     -0.471668270      0.016435468      0.006518718   36.31      0.036395816
  2  -1043.836048321     -0.479392546     -0.007724276      0.003864709   36.36      0.042224963
  3  -1043.836792511     -0.480136736     -0.000744189      0.002402323   36.36      0.052470312
  4  -1043.837253732     -0.480597957     -0.000461221      0.001311537   36.28      0.058666506
  5  -1043.837478644     -0.480822869     -0.000224912      0.000382057   36.00      0.064024100
  6  -1043.837520058     -0.480864283     -0.000041414      0.000121863   36.05      0.065600998
  7  -1043.837527321     -0.480871546     -0.000007263      0.000046645   36.04      0.065928688
  8  -1043.837529085     -0.480873310     -0.000001764      0.000015964   36.05      0.066023777
  9  -1043.837529248     -0.480873473     -0.000000163      0.000004421   35.98      0.066047842
               --- The Coupled-Cluster iterations have converged ---

----------------------
COUPLED CLUSTER ENERGY
----------------------

E(0)                                       ...  -1043.356655775
E(CORR)                                    ...     -0.480873473
E(TOT)                                     ...  -1043.837529248
Singles norm <S|S>**1/2                    ...      0.066047842 ( 0.063231426, 0.002816416)  
T1 diagnostic                              ...      0.017652028                              

------------------
LARGEST AMPLITUDES
------------------
  14a-> 27a  -1a-> -1a       0.043959
  14a-> 43a  -1a-> -1a       0.033150
  14a-> 18a  -1a-> -1a       0.029069
  13a-> 32a  -1a-> -1a       0.020395
  11a-> 30a  -1a-> -1a       0.020285
  10a-> 29a  -1a-> -1a       0.020121
   9a-> 28a  -1a-> -1a       0.020121
  12a-> 31a  -1a-> -1a       0.019984
  13a-> 46a  12a-> 47a       0.017668
  13a-> 47a  12a-> 46a       0.017668
  13a-> 47a  11a-> 48a       0.017558
  13a-> 48a  11a-> 47a       0.017558
  12a-> 46a  11a-> 48a       0.017514
  12a-> 48a  11a-> 46a       0.017514
  10a-> 45a   9a-> 44a       0.016596
  10a-> 44a   9a-> 45a       0.016596

----------------------
UHF TRIPLES CORRECTION (Algorithm 1)
----------------------

Multiplier for the singles contribution    ...      1.000000000

SPIN-CASE Alpha-Alpha-Alpha:
10% done
20% done
30% done
40% done
50% done
60% done
70% done
80% done
90% done


SPIN-CASE Beta-Beta-Beta:
10% done
20% done
30% done
40% done
50% done
60% done
70% done
80% done
90% done


SPIN-CASE Alpha-Alpha-Beta:
10% done
20% done
30% done
40% done
50% done
60% done
70% done
80% done
90% done


SPIN-CASE Beta-Beta-Alpha:
10% done
20% done
30% done
40% done
50% done
60% done
70% done
80% done
90% done


Triples Correction (T)                     ...     -0.014153377
    alpha-alpha-alpha ... -0.003875456 ( 27.4%)
    alpha-alpha-beta  ... -0.007561438 ( 53.4%)
    alpha-beta -beta  ... -0.002570703 ( 18.2%)
    beta -beta -beta  ... -0.000145779 (  1.0%)
Scaling of triples based on CCSD energies (Peterson et al. Molecular Physics 113, 1551 (2015))
E(T*) = f*E(T) where f = E(F12-CCSD)/E(CCSD) 
f = CCSD (with F12)/ CCSD (without F12)    ...      1.000000000
Scaled triples correction (T)              ...     -0.014153377

Final correlation energy                   ...     -0.495026850
E(CCSD)                                    ...  -1043.837529248
E(CCSD(T))                                 ...  -1043.851682625



        !!!!!!!!!!!!!!!!!!!!!!!!!!!!!!!!!!!!!!!!!!!!!!!!!!!!!!!!!!!!!!!!!!!!!!!!!! 
        !  Warning: Densities are linearized densities                           !
        !!!!!!!!!!!!!!!!!!!!!!!!!!!!!!!!!!!!!!!!!!!!!!!!!!!!!!!!!!!!!!!!!!!!!!!!!! 

NORM  =      1.085885720 sqrt=     1.042058405
W(HF) =      0.920907220
------------------------------------------------------------------------------
                           ORCA POPULATION ANALYSIS
------------------------------------------------------------------------------
Input electron density              ... 24_Cr.mdcip
Input spin density                  ... 24_Cr.mdcir
BaseName (.gbw .S,...)              ... 24_Cr

                    ********************************
                    * MULLIKEN POPULATION ANALYSIS *
                    ********************************

------------------------------------------
MULLIKEN ATOMIC CHARGES AND SPIN DENSITIES
------------------------------------------
   0 Cr:   -0.000000    6.000000
Sum of atomic charges       :   -0.0000000
Sum of atomic spin densities:    6.0000000

---------------------------------------------------
MULLIKEN REDUCED ORBITAL CHARGES AND SPIN DENSITIES
---------------------------------------------------
CHARGE
  0 Crs       :     6.987713  s :     6.987713
      pz      :     3.990181  p :    11.970544
      px      :     3.990181
      py      :     3.990181
      dz2     :     1.000692  d :     5.003460
      dxz     :     1.000692
      dyz     :     1.000692
      dx2y2   :     1.000692
      dxy     :     1.000692
      f0      :     0.004734  f :     0.033137
      f+1     :     0.004734
      f-1     :     0.004734
      f+2     :     0.004734
      f-2     :     0.004734
      f+3     :     0.004734
      f-3     :     0.004734
      g0      :     0.000472  g :     0.004250
      g+1     :     0.000472
      g-1     :     0.000472
      g+2     :     0.000472
      g-2     :     0.000472
      g+3     :     0.000472
      g-3     :     0.000472
      g+4     :     0.000472
      g-4     :     0.000472
      h0      :     0.000082  h :     0.000897
      h+1     :     0.000082
      h-1     :     0.000082
      h+2     :     0.000082
      h-2     :     0.000082
      h+3     :     0.000082
      h-3     :     0.000082
      h+4     :     0.000082
      h-4     :     0.000082
      h+5     :     0.000082
      h-5     :     0.000082

SPIN
  0 Crs       :     0.993941  s :     0.993941
      pz      :     0.012193  p :     0.036578
      px      :     0.012193
      py      :     0.012193
      dz2     :     0.988051  d :     4.940254
      dxz     :     0.988051
      dyz     :     0.988051
      dx2y2   :     0.988051
      dxy     :     0.988051
      f0      :     0.003734  f :     0.026138
      f+1     :     0.003734
      f-1     :     0.003734
      f+2     :     0.003734
      f-2     :     0.003734
      f+3     :     0.003734
      f-3     :     0.003734
      g0      :     0.000283  g :     0.002547
      g+1     :     0.000283
      g-1     :     0.000283
      g+2     :     0.000283
      g-2     :     0.000283
      g+3     :     0.000283
      g-3     :     0.000283
      g+4     :     0.000283
      g-4     :     0.000283
      h0      :     0.000049  h :     0.000542
      h+1     :     0.000049
      h-1     :     0.000049
      h+2     :     0.000049
      h-2     :     0.000049
      h+3     :     0.000049
      h-3     :     0.000049
      h+4     :     0.000049
      h-4     :     0.000049
      h+5     :     0.000049
      h-5     :     0.000049


                     *******************************
                     * LOEWDIN POPULATION ANALYSIS *
                     *******************************

-----------------------------------------
LOEWDIN ATOMIC CHARGES AND SPIN DENSITIES
-----------------------------------------
   0 Cr:   -0.000000    6.000000

--------------------------------------------------
LOEWDIN REDUCED ORBITAL CHARGES AND SPIN DENSITIES
--------------------------------------------------
CHARGE
  0 Crs       :     6.987713  s :     6.987713
      pz      :     3.990181  p :    11.970544
      px      :     3.990181
      py      :     3.990181
      dz2     :     1.000692  d :     5.003460
      dxz     :     1.000692
      dyz     :     1.000692
      dx2y2   :     1.000692
      dxy     :     1.000692
      f0      :     0.004734  f :     0.033137
      f+1     :     0.004734
      f-1     :     0.004734
      f+2     :     0.004734
      f-2     :     0.004734
      f+3     :     0.004734
      f-3     :     0.004734
      g0      :     0.000472  g :     0.004250
      g+1     :     0.000472
      g-1     :     0.000472
      g+2     :     0.000472
      g-2     :     0.000472
      g+3     :     0.000472
      g-3     :     0.000472
      g+4     :     0.000472
      g-4     :     0.000472
      h0      :     0.000082  h :     0.000897
      h+1     :     0.000082
      h-1     :     0.000082
      h+2     :     0.000082
      h-2     :     0.000082
      h+3     :     0.000082
      h-3     :     0.000082
      h+4     :     0.000082
      h-4     :     0.000082
      h+5     :     0.000082
      h-5     :     0.000082

SPIN
  0 Crs       :     0.993941  s :     0.993941
      pz      :     0.012193  p :     0.036578
      px      :     0.012193
      py      :     0.012193
      dz2     :     0.988051  d :     4.940254
      dxz     :     0.988051
      dyz     :     0.988051
      dx2y2   :     0.988051
      dxy     :     0.988051
      f0      :     0.003734  f :     0.026138
      f+1     :     0.003734
      f-1     :     0.003734
      f+2     :     0.003734
      f-2     :     0.003734
      f+3     :     0.003734
      f-3     :     0.003734
      g0      :     0.000283  g :     0.002547
      g+1     :     0.000283
      g-1     :     0.000283
      g+2     :     0.000283
      g-2     :     0.000283
      g+3     :     0.000283
      g-3     :     0.000283
      g+4     :     0.000283
      g-4     :     0.000283
      h0      :     0.000049  h :     0.000542
      h+1     :     0.000049
      h-1     :     0.000049
      h+2     :     0.000049
      h-2     :     0.000049
      h+3     :     0.000049
      h-3     :     0.000049
      h+4     :     0.000049
      h-4     :     0.000049
      h+5     :     0.000049
      h-5     :     0.000049


                      *****************************
                      * MAYER POPULATION ANALYSIS *
                      *****************************

  NA   - Mulliken gross atomic population
  ZA   - Total nuclear charge
  QA   - Mulliken gross atomic charge
  VA   - Mayer's total valence
  BVA  - Mayer's bonded valence
  FA   - Mayer's free valence

  ATOM       NA         ZA         QA         VA         BVA        FA
  0 Cr    24.0000    24.0000    -0.0000     6.3952     0.0000     6.3952





------------------------------------------------------------------------------- 
                                     TIMINGS                                   
------------------------------------------------------------------------------- 


Total execution time                   ...      630.822 sec

Fock Matrix Formation                  ...       34.779 sec (  5.5%)
Initial Guess                          ...        0.035 sec (  0.0%)
DIIS Solver                            ...        1.049 sec (  0.2%)
State Vector Update                    ...        0.047 sec (  0.0%)
Sigma-vector construction              ...      345.089 sec ( 54.7%)
  <0|H|D>                              ...        0.003 sec (  0.0% of sigma)
  <D|H|D>(0-ext Fock)                  ...        0.018 sec (  0.0% of sigma)
  <D|H|D>(0-ext)                       ...        0.077 sec (  0.0% of sigma)
  <D|H|D>(2-ext Fock)                  ...        0.007 sec (  0.0% of sigma)
  <D|H|D>(2-ext)                       ...        0.237 sec (  0.1% of sigma)
  <D|H|D>(4-ext)                       ...       17.979 sec (  5.2% of sigma)
  <S|H|0>                              ...        0.621 sec (  0.2% of sigma)
  <S|H|S>                              ...        0.002 sec (  0.0% of sigma)
  <S|H|D>(1-ext)                       ...        0.004 sec (  0.0% of sigma)
  <D|H|S>(1-ext)                       ...        0.087 sec (  0.0% of sigma)
  Fock-dressing                        ...      322.276 sec ( 93.4% of sigma)
  (ik|jl)-dressing                     ...        0.087 sec (  0.0% of sigma)
  (ij|ab),(ia|jb)-dressing             ...        3.017 sec (  0.9% of sigma)
  Pair energies                        ...        0.003 sec (  0.0% of sigma)
Total Time for computing (T)           ...        4.706 sec (  0.7% of ALL)
  I/O of integral and amplitudes       ...        1.321 sec ( 28.1% of (T))
  External N**7 contributions          ...        1.384 sec ( 29.4% of (T))
  Internal N**7 contributions          ...        0.460 sec (  9.8% of (T))
  N**6 triples energy contributions    ...        1.363 sec ( 29.0% of (T))


-------------------------   --------------------
FINAL SINGLE POINT ENERGY     -1043.851682625413
-------------------------   --------------------


                            ***************************************
                            *     ORCA property calculations      *
                            ***************************************

                                    ---------------------
                                    Active property flags
                                    ---------------------
   (+) Dipole Moment


------------------------------------------------------------------------------
                       ORCA ELECTRIC PROPERTIES CALCULATION
------------------------------------------------------------------------------

Dipole Moment Calculation                       ... on
Quadrupole Moment Calculation                   ... off
Polarizability Calculation                      ... off
GBWName                                         ... 24_Cr.gbw
Electron density file                           ... 24_Cr.scfp
The origin for moment calculation is the CENTER OF MASS  = ( 0.000000,  0.000000  0.000000)

-------------
DIPOLE MOMENT
-------------
                                X             Y             Z
Electronic contribution:      0.00000       0.00000       0.00000
Nuclear contribution   :      0.00000       0.00000       0.00000
                        -----------------------------------------
Total Dipole Moment    :      0.00000       0.00000       0.00000
                        -----------------------------------------
Magnitude (a.u.)       :      0.00000
Magnitude (Debye)      :      0.00000



--------------------
Rotational spectrum 
--------------------
 
Rotational constants in cm-1:     0.000000     0.000000     0.000000 
Rotational constants in MHz :     0.000000     0.000000     0.000000 

 Dipole components along the rotational axes: 
x,y,z [a.u.] :     0.000000     0.000000     0.000000 
x,y,z [Debye]:     0.000000     0.000000     0.000000 

 

                           *** MDCI DENSITY ***

------------------------------------------------------------------------------
                       ORCA ELECTRIC PROPERTIES CALCULATION
------------------------------------------------------------------------------

Dipole Moment Calculation                       ... on
Quadrupole Moment Calculation                   ... off
Polarizability Calculation                      ... off
GBWName                                         ... 24_Cr.gbw
Electron density file                           ... 24_Cr.mdcip
The origin for moment calculation is the CENTER OF MASS  = ( 0.000000,  0.000000  0.000000)

-------------
DIPOLE MOMENT
-------------
                                X             Y             Z
Electronic contribution:     -0.00000      -0.00000      -0.00000
Nuclear contribution   :      0.00000       0.00000       0.00000
                        -----------------------------------------
Total Dipole Moment    :     -0.00000      -0.00000      -0.00000
                        -----------------------------------------
Magnitude (a.u.)       :      0.00000
Magnitude (Debye)      :      0.00000



--------------------
Rotational spectrum 
--------------------
 
Rotational constants in cm-1:     0.000000     0.000000     0.000000 
Rotational constants in MHz :     0.000000     0.000000     0.000000 

 Dipole components along the rotational axes: 
x,y,z [a.u.] :    -0.000000    -0.000000    -0.000000 
x,y,z [Debye]:    -0.000000    -0.000000    -0.000000 

 

Timings for individual modules:

Sum of individual times         ...      993.967 sec (=  16.566 min)
GTO integral calculation        ...       11.765 sec (=   0.196 min)   1.2 %
SCF iterations                  ...      349.488 sec (=   5.825 min)  35.2 %
MDCI module                     ...      632.714 sec (=  10.545 min)  63.7 %
                             ****ORCA TERMINATED NORMALLY****
TOTAL RUN TIME: 0 days 0 hours 16 minutes 34 seconds 923 msec
