
                                 *****************
                                 * O   R   C   A *
                                 *****************

           --- An Ab Initio, DFT and Semiempirical electronic structure package ---

                  #######################################################
                  #                        -***-                        #
                  #          Department of theory and spectroscopy      #
                  #               Directorship: Frank Neese             #
                  #        Max Planck Institute fuer Kohlenforschung    #
                  #                Kaiser Wilhelm Platz 1               #
                  #                 D-45470 Muelheim/Ruhr               #
                  #                      Germany                        #
                  #                                                     #
                  #                  All rights reserved                #
                  #                        -***-                        #
                  #######################################################


                         Program Version 4.2.0 -  RELEASE  -


 With contributions from (in alphabetic order):
   Daniel Aravena         : Magnetic Suceptibility
   Michael Atanasov       : Ab Initio Ligand Field Theory (pilot matlab implementation)
   Alexander A. Auer      : GIAO ZORA, VPT2
   Ute Becker             : Parallelization
   Giovanni Bistoni       : ED, misc. LED, open-shell LED, HFLED
   Martin Brehm           : Molecular dynamics
   Dmytro Bykov           : SCF Hessian
   Vijay G. Chilkuri      : MRCI spin determinant printing, contributions to CSF-ICE
   Dipayan Datta          : RHF DLPNO-CCSD density
   Achintya Kumar Dutta   : EOM-CC, STEOM-CC
   Dmitry Ganyushin       : Spin-Orbit,Spin-Spin,Magnetic field MRCI
   Miquel Garcia          : C-PCM Hessian, Gaussian charge scheme
   Yang Guo               : DLPNO-NEVPT2, CIM, IAO-localization
   Andreas Hansen         : Spin unrestricted coupled pair/coupled cluster methods
   Benjamin Helmich-Paris : CASSCF linear response (MC-RPA)
   Lee Huntington         : MR-EOM, pCC
   Robert Izsak           : Overlap fitted RIJCOSX, COSX-SCS-MP3, EOM
   Christian Kollmar      : KDIIS, OOCD, Brueckner-CCSD(T), CCSD density
   Simone Kossmann        : Meta GGA functionals, TD-DFT gradient, OOMP2, MP2 Hessian
   Martin Krupicka        : AUTO-CI
   Lucas Lang             : DCDCAS
   Dagmar Lenk            : GEPOL surface, SMD
   Dimitrios Liakos       : Extrapolation schemes; Compound Job, initial MDCI parallelization
   Dimitrios Manganas     : Further ROCIS development; embedding schemes
   Dimitrios Pantazis     : SARC Basis sets
   Taras Petrenko         : DFT Hessian,TD-DFT gradient, ASA, ECA, R-Raman, ABS, FL, XAS/XES, NRVS
   Peter Pinski           : DLPNO-MP2, DLPNO-MP2 Gradient
   Christoph Reimann      : Effective Core Potentials
   Marius Retegan         : Local ZFS, SOC
   Christoph Riplinger    : Optimizer, TS searches, QM/MM, DLPNO-CCSD(T), (RO)-DLPNO pert. Triples
   Tobias Risthaus        : Range-separated hybrids, TD-DFT gradient, RPA, STAB
   Michael Roemelt        : Original ROCIS implementation
   Masaaki Saitow         : Open-shell DLPNO-CCSD energy and density
   Barbara Sandhoefer     : DKH picture change effects
   Avijit Sen             : IP-ROCIS
   Kantharuban Sivalingam : CASSCF convergence, NEVPT2, FIC-MRCI
   Bernardo de Souza      : ESD, SOC TD-DFT
   Georgi Stoychev        : AutoAux, RI-MP2 NMR
   Willem Van den Heuvel  : Paramagnetic NMR
   Boris Wezisla          : Elementary symmetry handling
   Frank Wennmohs         : Technical directorship


 We gratefully acknowledge several colleagues who have allowed us to
 interface, adapt or use parts of their codes:
   Stefan Grimme, W. Hujo, H. Kruse,             : VdW corrections, initial TS optimization,
                  C. Bannwarth                     DFT functionals, gCP, sTDA/sTD-DF
   Ed Valeev, F. Pavosevic, A. Kumar             : LibInt (2-el integral package), F12 methods
   Garnet Chan, S. Sharma, J. Yang, R. Olivares  : DMRG
   Ulf Ekstrom                                   : XCFun DFT Library
   Mihaly Kallay                                 : mrcc  (arbitrary order and MRCC methods)
   Andreas Klamt, Michael Diedenhofen            : otool_cosmo (COSMO solvation model)
   Jiri Pittner, Ondrej Demel                    : Mk-CCSD
   Frank Weinhold                                : gennbo (NPA and NBO analysis)
   Christopher J. Cramer and Donald G. Truhlar   : smd solvation model
   Lars Goerigk                                  : TD-DFT with DH, B97 family of functionals
   V. Asgeirsson, H. Jonsson                     : NEB implementation
   FAccTs GmbH                                   : IRC, NEB, NEB-TS, Multilevel, MM, QM/MM, CI optimization
   S Lehtola, MJT Oliveira, MAL Marques          : LibXC Library


 Your calculation uses the libint2 library for the computation of 2-el integrals
 For citations please refer to: http://libint.valeyev.net

 Your ORCA version has been built with support for libXC version: 4.2.3
 For citations please refer to: https://tddft.org/programs/libxc/

 This ORCA versions uses:
   CBLAS   interface :  Fast vector & matrix operations
   LAPACKE interface :  Fast linear algebra routines
   SCALAPACK package :  Parallel linear algebra routines


----- Orbital basis set information -----
Your calculation utilizes the basis: aug-cc-pVQZ 
    H, B-Ne : Obtained from the ccRepo (grant-hill.group.shef.ac.uk/ccrepo) Feb. 2017
              R. A. Kendall, T. H. Dunning, Jr., R. J. Harrison, J. Chem. Phys. 96, 6796 (1992)
         He : Obtained from the ccRepo (grant-hill.group.shef.ac.uk/ccrepo) Feb. 2017
              D. E. Woon, T. H. Dunning, Jr., J. Chem. Phys. 100, 2975 (1994)
  Li-Be, Na : Obtained from the ccRepo (grant-hill.group.shef.ac.uk/ccrepo) Feb. 2017
              B. P. Prascher, D. E. Woon, K. A. Peterson, T. H. Dunning, Jr., A. K. Wilson, Theor. Chem. Acc. 128, 69 (2011)
         Mg : Obtained from the Peterson Research Group Website (tyr0.chem.wsu.edu/~kipeters) Feb. 2017
              B. P. Prascher, D. E. Woon, K. A. Peterson, T. H. Dunning, Jr., A. K. Wilson, Theor. Chem. Acc. 128, 69 (2011)
      Al-Ar : Obtained from the ccRepo (grant-hill.group.shef.ac.uk/ccrepo) Feb. 2017
              D. E. Woon, T. H. Dunning, Jr., J. Chem. Phys. 98, 1358 (1993)
      Sc-Zn : Obtained from the ccRepo (grant-hill.group.shef.ac.uk/ccrepo) Feb. 2017
              N. B. Balabanov, K. A. Peterson, J. Chem. Phys. 123, 064107 (2005)
              N. B. Balabanov, K. A. Peterson, J. Chem. Phys. 125, 074110 (2006)
      Ga-Kr : Obtained from the ccRepo (grant-hill.group.shef.ac.uk/ccrepo) Feb. 2017
              A. K. Wilson, D. E. Woon, K. A. Peterson, T. H. Dunning, Jr., J. Chem. Phys. 110, 7667 (1999)

================================================================================
                                        WARNINGS
                       Please study these warnings very carefully!
================================================================================


WARNING: MDCI localization with Augmented Hessian Foster-Boys
  ===> : Switching off randomization!

WARNING: Post HF methods need fully converged wavefunctions
  ===> : Setting SCFConvForced true
         You can overwrite this default with %scf ConvForced false 


INFO   : the flag for use of LIBINT has been found!

================================================================================
                                       INPUT FILE
================================================================================
NAME = 36_Kr.in
|  1> #
|  2> # 36_Kr CCSD(T)/aug-cc-pVQZ
|  3> #
|  4> ! CCSD(T) aug-cc-pVQZ tightscf
|  5> 
|  6> *xyz 0 1
|  7>  Kr 0.0 0.0 0.0
|  8> *
|  9> 
| 10> %maxcore 5000 
| 11> 
| 12> %pal
| 13> nprocs 24
| 14> end
| 15> 
| 16> 
| 17>                          ****END OF INPUT****
================================================================================

                       ****************************
                       * Single Point Calculation *
                       ****************************

---------------------------------
CARTESIAN COORDINATES (ANGSTROEM)
---------------------------------
  Kr     0.000000    0.000000    0.000000

----------------------------
CARTESIAN COORDINATES (A.U.)
----------------------------
  NO LB      ZA    FRAG     MASS         X           Y           Z
   0 Kr   36.0000    0    83.800    0.000000    0.000000    0.000000

--------------------------------
INTERNAL COORDINATES (ANGSTROEM)
--------------------------------
 Kr     0   0   0     0.000000000000     0.00000000     0.00000000

---------------------------
INTERNAL COORDINATES (A.U.)
---------------------------
 Kr     0   0   0     0.000000000000     0.00000000     0.00000000

---------------------
BASIS SET INFORMATION
---------------------
There are 1 groups of distinct atoms

 Group   1 Type Kr  : 76s43p13d3f2g contracted to 8s7p5d3f2g pattern {181818181111/1313131111/91111/111/11}

Atom   0Kr   basis set group =>   1


           ************************************************************
           *        Program running with 24 parallel MPI-processes    *
           *              working on a common directory               *
           ************************************************************
------------------------------------------------------------------------------
                           ORCA GTO INTEGRAL CALCULATION
------------------------------------------------------------------------------

                         BASIS SET STATISTICS AND STARTUP INFO

 # of primitive gaussian shells          ...  137
 # of primitive gaussian functions       ...  309
 # of contracted shells                  ...   25
 # of contracted basis functions         ...   93
 Highest angular momentum                ...    4
 Maximum contraction depth               ...   18
 Integral package used                   ... LIBINT
 Integral threshhold            Thresh   ...  2.500e-11
 Primitive cut-off              TCut     ...  2.500e-12


------------------------------ INTEGRAL EVALUATION ----------------------------


 * One electron integrals 
 Pre-screening matrix                    ... done
 Shell pair data                         ... done (   0.001 sec)



           ************************************************************
           *        Program running with 24 parallel MPI-processes    *
           *              working on a common directory               *
           ************************************************************
-------------------------------------------------------------------------------
                                 ORCA SCF
-------------------------------------------------------------------------------

------------
SCF SETTINGS
------------
Hamiltonian:
 Ab initio Hamiltonian  Method          .... Hartree-Fock(GTOs)


General Settings:
 Integral files         IntName         .... 36_Kr
 Hartree-Fock type      HFTyp           .... RHF
 Total Charge           Charge          ....    0
 Multiplicity           Mult            ....    1
 Number of Electrons    NEL             ....   36
 Basis Dimension        Dim             ....   93
 Nuclear Repulsion      ENuc            ....      0.0000000000 Eh

Convergence Acceleration:
 DIIS                   CNVDIIS         .... on
   Start iteration      DIISMaxIt       ....    12
   Startup error        DIISStart       ....  0.200000
   # of expansion vecs  DIISMaxEq       ....     5
   Bias factor          DIISBfac        ....   1.050
   Max. coefficient     DIISMaxC        ....  10.000
 Newton-Raphson         CNVNR           .... off
 SOSCF                  CNVSOSCF        .... on
   Start iteration      SOSCFMaxIt      ....   150
   Startup grad/error   SOSCFStart      ....  0.003300
 Level Shifting         CNVShift        .... on
   Level shift para.    LevelShift      ....    0.2500
   Turn off err/grad.   ShiftErr        ....    0.0010
 Zerner damping         CNVZerner       .... off
 Static damping         CNVDamp         .... on
   Fraction old density DampFac         ....    0.7000
   Max. Damping (<1)    DampMax         ....    0.9800
   Min. Damping (>=0)   DampMin         ....    0.0000
   Turn off err/grad.   DampErr         ....    0.1000
 Fernandez-Rico         CNVRico         .... off

SCF Procedure:
 Maximum # iterations   MaxIter         ....   125
 SCF integral mode      SCFMode         .... Direct
   Integral package                     .... LIBINT
 Reset frequency        DirectResetFreq ....    20
 Integral Threshold     Thresh          ....  2.500e-11 Eh
 Primitive CutOff       TCut            ....  2.500e-12 Eh

Convergence Tolerance:
 Convergence Check Mode ConvCheckMode   .... Total+1el-Energy
 Convergence forced     ConvForced      .... 1
 Energy Change          TolE            ....  1.000e-08 Eh
 1-El. energy change                    ....  1.000e-05 Eh
 Orbital Gradient       TolG            ....  1.000e-05
 Orbital Rotation angle TolX            ....  1.000e-05
 DIIS Error             TolErr          ....  5.000e-07


Diagonalization of the overlap matrix:
Smallest eigenvalue                        ... 4.380e-04
Time for diagonalization                   ...    0.003 sec
Threshold for overlap eigenvalues          ... 1.000e-08
Number of eigenvalues below threshold      ... 0
Time for construction of square roots      ...    0.001 sec
Total time needed                          ...    0.004 sec

-------------------
DFT GRID GENERATION
-------------------

General Integration Accuracy     IntAcc      ...  4.340
Radial Grid Type                 RadialGrid  ... Gauss-Chebyshev
Angular Grid (max. acc.)         AngularGrid ... Lebedev-110
Angular grid pruning method      GridPruning ... 3 (G Style)
Weight generation scheme         WeightScheme... Becke
Basis function cutoff            BFCut       ...    1.0000e-11
Integration weight cutoff        WCut        ...    1.0000e-14
Grids for H and He will be reduced by one unit

# of grid points (after initial pruning)     ...   2950 (   0.0 sec)
# of grid points (after weights+screening)   ...   2950 (   0.0 sec)
Grid point division into batches done        ...    0.0 sec
Reduced shell lists constructed in    0.0 sec

Total number of grid points                  ...     2950
Total number of batches                      ...       47
Average number of points per batch           ...       62
Average number of grid points per atom       ...     2950
Average number of shells per batch           ...    10.67 (42.67%)
Average number of basis functions per batch  ...    46.67 (50.18%)
Average number of large shells per batch     ...     9.33 (87.50%)
Average number of large basis fcns per batch ...    41.33 (88.57%)
Maximum spatial batch extension              ...  14.66, 21.55, 21.55 au
Average spatial batch extension              ...   0.62,  0.92,  0.92 au

Time for grid setup =    0.020 sec

------------------------------
INITIAL GUESS: MODEL POTENTIAL
------------------------------
Loading Hartree-Fock densities                     ... done
Calculating cut-offs                               ... done
Setting up the integral package                    ... done
Initializing the effective Hamiltonian             ... done
Starting the Coulomb interaction                   ... done (   0.0 sec)
Reading the grid                                   ... done
Mapping shells                                     ... done
Starting the XC term evaluation                    ... done (   0.0 sec)
Transforming the Hamiltonian                       ... done (   0.0 sec)
Diagonalizing the Hamiltonian                      ... done (   0.0 sec)
Back transforming the eigenvectors                 ... done (   0.0 sec)
Now organizing SCF variables                       ... done
                      ------------------
                      INITIAL GUESS DONE (   0.1 sec)
                      ------------------
--------------
SCF ITERATIONS
--------------
ITER       Energy         Delta-E        Max-DP      RMS-DP      [F,P]     Damp
               ***  Starting incremental Fock matrix formation  ***
  0  -2752.0283713893   0.000000000000 0.10925817  0.00222390  0.1593902 0.7000
  1  -2752.0367447417  -0.008373352367 0.06693475  0.00150744  0.0989350 0.7000
                               ***Turning on DIIS***
  2  -2752.0422591275  -0.005514385778 0.13393986  0.00339415  0.0606901 0.0000
  3  -2752.1198702974  -0.077611169921 0.03894133  0.00070904  0.0156916 0.0000
  4  -2752.0000154599   0.119854837481 0.00397059  0.00009246  0.0044101 0.0000
                      *** Initiating the SOSCF procedure ***
                           *** Shutting down DIIS ***
                      *** Re-Reading the Fockian *** 
                      *** Removing any level shift *** 
ITER      Energy       Delta-E        Grad      Rot      Max-DP    RMS-DP
  5  -2752.04947991  -0.0494644480  0.000477  0.000477  0.001404  0.000034
               *** Restarting incremental Fock matrix formation ***
  6  -2752.05481952  -0.0053396123  0.000067  0.000057  0.000171  0.000005
  7  -2752.05481955  -0.0000000286  0.000013  0.000023  0.000076  0.000002
  8  -2752.05481955  -0.0000000019  0.000006  0.000002  0.000017  0.000000
                  ***Gradient check signals convergence***
              ***Rediagonalizing the Fockian in SOSCF/NRSCF***

               *****************************************************
               *                     SUCCESS                       *
               *           SCF CONVERGED AFTER   9 CYCLES          *
               *****************************************************


----------------
TOTAL SCF ENERGY
----------------

Total Energy       :        -2752.05481955 Eh          -74887.21883 eV

Components:
Nuclear Repulsion  :            0.00000000 Eh               0.00000 eV
Electronic Energy  :        -2752.05481955 Eh          -74887.21883 eV
One Electron Energy:        -3830.52181620 Eh         -104233.79776 eV
Two Electron Energy:         1078.46699665 Eh           29346.57893 eV

Virial components:
Potential Energy   :        -5504.11039930 Eh         -149774.45835 eV
Kinetic Energy     :         2752.05557975 Eh           74887.23952 eV
Virial Ratio       :            1.99999972


---------------
SCF CONVERGENCE
---------------

  Last Energy change         ...    1.9736e-10  Tolerance :   1.0000e-08
  Last MAX-Density change    ...    1.8641e-06  Tolerance :   1.0000e-07
  Last RMS-Density change    ...    3.9497e-08  Tolerance :   5.0000e-09
  Last Orbital Gradient      ...    6.4446e-07  Tolerance :   1.0000e-05
  Last Orbital Rotation      ...    2.7379e-07  Tolerance :   1.0000e-05

             **** THE GBW FILE WAS UPDATED (36_Kr.gbw) ****
             **** DENSITY FILE WAS UPDATED (36_Kr.scfp) ****
             **** ENERGY FILE WAS UPDATED (36_Kr.en.tmp) ****
             **** THE GBW FILE WAS UPDATED (36_Kr.gbw) ****
             **** DENSITY FILE WAS UPDATED (36_Kr.scfp) ****
----------------
ORBITAL ENERGIES
----------------

  NO   OCC          E(Eh)            E(eV) 
   0   2.0000    -520.165459    -14154.4217 
   1   2.0000     -69.903136     -1902.1610 
   2   2.0000     -63.009807     -1714.5840 
   3   2.0000     -63.009807     -1714.5840 
   4   2.0000     -63.009807     -1714.5840 
   5   2.0000     -10.849503      -295.2300 
   6   2.0000      -8.331522      -226.7123 
   7   2.0000      -8.331522      -226.7123 
   8   2.0000      -8.331522      -226.7123 
   9   2.0000      -3.825260      -104.0906 
  10   2.0000      -3.825260      -104.0906 
  11   2.0000      -3.825260      -104.0906 
  12   2.0000      -3.825260      -104.0906 
  13   2.0000      -3.825260      -104.0906 
  14   2.0000      -1.152950       -31.3734 
  15   2.0000      -0.524199       -14.2642 
  16   2.0000      -0.524199       -14.2642 
  17   2.0000      -0.524199       -14.2642 
  18   0.0000       0.084162         2.2902 
  19   0.0000       0.084162         2.2902 
  20   0.0000       0.084162         2.2902 
  21   0.0000       0.096151         2.6164 
  22   0.0000       0.256019         6.9666 
  23   0.0000       0.256019         6.9666 
  24   0.0000       0.256019         6.9666 
  25   0.0000       0.256019         6.9666 
  26   0.0000       0.256019         6.9666 
  27   0.0000       0.384102        10.4520 
  28   0.0000       0.384102        10.4520 
  29   0.0000       0.384102        10.4520 
  30   0.0000       0.594129        16.1671 
  31   0.0000       0.635898        17.3037 
  32   0.0000       0.635898        17.3037 
  33   0.0000       0.635898        17.3037 
  34   0.0000       0.635898        17.3037 
  35   0.0000       0.635898        17.3037 
  36   0.0000       0.796267        21.6675 
  37   0.0000       0.796267        21.6675 
  38   0.0000       0.796267        21.6675 
  39   0.0000       0.796267        21.6675 
  40   0.0000       0.796267        21.6675 
  41   0.0000       0.796267        21.6675 
  42   0.0000       0.796267        21.6675 
  43   0.0000       1.322487        35.9867 
  44   0.0000       1.322487        35.9867 
  45   0.0000       1.322487        35.9867 
  46   0.0000       1.627071        44.2749 
  47   0.0000       1.627071        44.2749 
  48   0.0000       1.627071        44.2749 
  49   0.0000       1.627071        44.2749 
  50   0.0000       1.627071        44.2749 
  51   0.0000       1.709548        46.5192 
  52   0.0000       1.709548        46.5192 
  53   0.0000       1.709548        46.5192 
  54   0.0000       1.709548        46.5192 
  55   0.0000       1.709548        46.5192 
  56   0.0000       1.709548        46.5192 
  57   0.0000       1.709548        46.5192 
  58   0.0000       1.709548        46.5192 
  59   0.0000       1.709548        46.5192 
  60   0.0000       1.901438        51.7408 
  61   0.0000       1.901438        51.7408 
  62   0.0000       1.901438        51.7408 
  63   0.0000       1.901438        51.7408 
  64   0.0000       1.901438        51.7408 
  65   0.0000       1.901438        51.7408 
  66   0.0000       1.901438        51.7408 
  67   0.0000       2.405363        65.4533 
  68   0.0000       3.920114       106.6717 
  69   0.0000       3.920114       106.6717 
  70   0.0000       3.920114       106.6717 
  71   0.0000       3.920114       106.6717 
  72   0.0000       3.920114       106.6717 
  73   0.0000       3.920114       106.6717 
  74   0.0000       3.920114       106.6717 
  75   0.0000       4.101283       111.6016 
  76   0.0000       4.101283       111.6016 
  77   0.0000       4.101283       111.6016 
  78   0.0000       4.101283       111.6016 
  79   0.0000       4.101283       111.6016 
  80   0.0000       4.101283       111.6016 
  81   0.0000       4.101283       111.6016 
  82   0.0000       4.101283       111.6016 
  83   0.0000       4.101283       111.6016 
  84   0.0000       4.116069       112.0039 
  85   0.0000       4.116069       112.0039 
  86   0.0000       4.116069       112.0039 
  87   0.0000       4.275900       116.3532 
  88   0.0000       4.275900       116.3532 
  89   0.0000       4.275900       116.3532 
  90   0.0000       4.275900       116.3532 
  91   0.0000       4.275900       116.3532 
  92   0.0000      15.739646       428.2975 

                    ********************************
                    * MULLIKEN POPULATION ANALYSIS *
                    ********************************

-----------------------
MULLIKEN ATOMIC CHARGES
-----------------------
   0 Kr:    0.000000
Sum of atomic charges:    0.0000000

--------------------------------
MULLIKEN REDUCED ORBITAL CHARGES
--------------------------------
  0 Krs       :     8.000000  s :     8.000000
      pz      :     6.000000  p :    18.000000
      px      :     6.000000
      py      :     6.000000
      dz2     :     2.000000  d :    10.000000
      dxz     :     2.000000
      dyz     :     2.000000
      dx2y2   :     2.000000
      dxy     :     2.000000
      f0      :     0.000000  f :     0.000000
      f+1     :     0.000000
      f-1     :     0.000000
      f+2     :     0.000000
      f-2     :     0.000000
      f+3     :     0.000000
      f-3     :     0.000000
      g0      :     0.000000  g :     0.000000
      g+1     :     0.000000
      g-1     :     0.000000
      g+2     :     0.000000
      g-2     :     0.000000
      g+3     :     0.000000
      g-3     :     0.000000
      g+4     :     0.000000
      g-4     :     0.000000


                     *******************************
                     * LOEWDIN POPULATION ANALYSIS *
                     *******************************

----------------------
LOEWDIN ATOMIC CHARGES
----------------------
   0 Kr:    0.000000

-------------------------------
LOEWDIN REDUCED ORBITAL CHARGES
-------------------------------
  0 Krs       :     8.000000  s :     8.000000
      pz      :     6.000000  p :    18.000000
      px      :     6.000000
      py      :     6.000000
      dz2     :     2.000000  d :    10.000000
      dxz     :     2.000000
      dyz     :     2.000000
      dx2y2   :     2.000000
      dxy     :     2.000000
      f0      :     0.000000  f :     0.000000
      f+1     :     0.000000
      f-1     :     0.000000
      f+2     :     0.000000
      f-2     :     0.000000
      f+3     :     0.000000
      f-3     :     0.000000
      g0      :     0.000000  g :     0.000000
      g+1     :     0.000000
      g-1     :     0.000000
      g+2     :     0.000000
      g-2     :     0.000000
      g+3     :     0.000000
      g-3     :     0.000000
      g+4     :     0.000000
      g-4     :     0.000000


                      *****************************
                      * MAYER POPULATION ANALYSIS *
                      *****************************

  NA   - Mulliken gross atomic population
  ZA   - Total nuclear charge
  QA   - Mulliken gross atomic charge
  VA   - Mayer's total valence
  BVA  - Mayer's bonded valence
  FA   - Mayer's free valence

  ATOM       NA         ZA         QA         VA         BVA        FA
  0 Kr    36.0000    36.0000    -0.0000    -0.0000     0.0000    -0.0000

  Mayer bond orders larger than 0.100000


--------------------------
ATOM BASIS FOR ELEMENT Kr
--------------------------
 NewGTO Kr
 S 74
    1   18226110.000000000000         0.000003200003
    2    2728802.000000000000         0.000025200023
    3     620997.699999999953         0.000132800123
    4     175899.600000000006         0.000560700520
    5      57387.500000000000         0.002040101891
    6      20717.180000000000         0.006623506140
    7       8078.890000000000         0.019499618076
    8       3349.517000000000         0.051936448144
    9       1459.781000000000         0.122116713199
   10        662.893900000000         0.238365520958
   11        311.392200000000         0.340705415824
   12        149.937500000000         0.279285758889
   13         72.498250000000         0.084099277957
   14         35.569350000000         0.002504202321
   15         17.766630000000         0.001357401258
   16          8.712383000000        -0.000659100611
   17          4.144971000000         0.000270100250
   18          1.969649000000        -0.000143600133
   19   18226110.000000000000        -0.000000000006
   20    2728802.000000000000        -0.000000000044
   21     620997.699999999953        -0.000000000231
   22     175899.600000000006        -0.000000000977
   23      57387.500000000000        -0.000000003560
   24      20717.180000000000        -0.000000011619
   25       8078.890000000000        -0.000000034556
   26       3349.517000000000        -0.000000094509
   27       1459.781000000000        -0.000000234505
   28        662.893900000000        -0.000000513856
   29        311.392200000000        -0.000000917065
   30        149.937500000000        -0.000001081787
   31         72.498250000000        -0.000000009079
   32         35.569350000000         0.000002506575
   33         17.766630000000         0.000002971739
   34          8.712383000000         0.000000846009
   35   18226110.000000000000         0.000000000008
   36    2728802.000000000000         0.000000000063
   37     620997.699999999953         0.000000000329
   38     175899.600000000006         0.000000001388
   39      57387.500000000000         0.000000005054
   40      20717.180000000000         0.000000016507
   41       8078.890000000000         0.000000049161
   42       3349.517000000000         0.000000134908
   43       1459.781000000000         0.000000337108
   44        662.893900000000         0.000000750006
   45        311.392200000000         0.000001380844
   46        149.937500000000         0.000001723940
   47         72.498250000000         0.000000012387
   48         35.569350000000        -0.000005639478
   49         17.766630000000        -0.000009884614
   50          8.712383000000        -0.000000524146
   51          4.144971000000         0.000013895230
   52          1.969649000000         0.000010096453
   53   18226110.000000000000        -0.000000000003
   54    2728802.000000000000        -0.000000000032
   55     620997.699999999953        -0.000000000172
   56     175899.600000000006        -0.000000000732
   57      57387.500000000000        -0.000000002664
   58      20717.180000000000        -0.000000008688
   59       8078.890000000000        -0.000000025940
   60       3349.517000000000        -0.000000071007
   61       1459.781000000000        -0.000000178267
   62        662.893900000000        -0.000000395758
   63        311.392200000000        -0.000000736764
   64        149.937500000000        -0.000000917993
   65         72.498250000000        -0.000000024487
   66         35.569350000000         0.000003241279
   67         17.766630000000         0.000005875976
   68          8.712383000000         0.000000362098
   69          4.144971000000        -0.000011574504
   70          1.969649000000        -0.000014799913
   71          0.679952000000         0.000068805645
   72          0.324502000000        -0.000043375474
   73          0.137441000000         0.000017394495
   74          0.050388000000        -0.000004040734
 S 72
    1   18226110.000000000000         0.000000000016
    2    2728802.000000000000         0.000000000126
    3     620997.699999999953         0.000000000666
    4     175899.600000000006         0.000000002812
    5      57387.500000000000         0.000000010233
    6      20717.180000000000         0.000000033223
    7       8078.890000000000         0.000000097809
    8       3349.517000000000         0.000000260512
    9       1459.781000000000         0.000000612534
   10        662.893900000000         0.000001195634
   11        311.392200000000         0.000001708968
   12        149.937500000000         0.000001400889
   13         72.498250000000         0.000000421839
   14         35.569350000000         0.000000012561
   15   18226110.000000000000         0.000000999966
   16    2728802.000000000000         0.000007899732
   17     620997.699999999953         0.000041798581
   18     175899.600000000006         0.000176594007
   19      57387.500000000000         0.000643378166
   20      20717.180000000000         0.002099828738
   21       8078.890000000000         0.006245088061
   22       3349.517000000000         0.017079820365
   23       1459.781000000000         0.042380061754
   24        662.893900000000         0.092864748463
   25        311.392200000000         0.165733375531
   26        149.937500000000         0.195502165272
   27         72.498250000000         0.001640844315
   28         35.569350000000        -0.452991726888
   29         17.766630000000        -0.537056873981
   30          8.712383000000        -0.152891911330
   31          4.144971000000        -0.005740905172
   32          1.969649000000        -0.001741340904
   33   18226110.000000000000         0.000000000048
   34    2728802.000000000000         0.000000000385
   35     620997.699999999953         0.000000002021
   36     175899.600000000006         0.000000008528
   37      57387.500000000000         0.000000031057
   38      20717.180000000000         0.000000101433
   39       8078.890000000000         0.000000302085
   40       3349.517000000000         0.000000828988
   41       1459.781000000000         0.000002071477
   42        662.893900000000         0.000004608669
   43        311.392200000000         0.000008485069
   44        149.937500000000         0.000010593340
   45         72.498250000000         0.000000076114
   46         35.569350000000        -0.000034653697
   47         17.766630000000        -0.000060739392
   48          8.712383000000        -0.000003220797
   49          4.144971000000         0.000085383990
   50          1.969649000000         0.000062041108
   51   18226110.000000000000        -0.000000000020
   52    2728802.000000000000        -0.000000000198
   53     620997.699999999953        -0.000000001050
   54     175899.600000000006        -0.000000004479
   55      57387.500000000000        -0.000000016312
   56      20717.180000000000        -0.000000053199
   57       8078.890000000000        -0.000000158843
   58       3349.517000000000        -0.000000434806
   59       1459.781000000000        -0.000001091604
   60        662.893900000000        -0.000002423396
   61        311.392200000000        -0.000004511525
   62        149.937500000000        -0.000005621265
   63         72.498250000000        -0.000000149943
   64         35.569350000000         0.000019847740
   65         17.766630000000         0.000035981124
   66          8.712383000000         0.000002217281
   67          4.144971000000        -0.000070875658
   68          1.969649000000        -0.000090626217
   69          0.679952000000         0.000481154693
   70          0.324502000000        -0.000241312690
   71          0.137441000000         0.000113247079
   72          0.050388000000        -0.000024639410
 S 73
    1   18226110.000000000000         0.000000000101
    2    2728802.000000000000         0.000000000795
    3     620997.699999999953         0.000000004189
    4     175899.600000000006         0.000000017685
    5      57387.500000000000         0.000000064348
    6      20717.180000000000         0.000000208916
    7       8078.890000000000         0.000000615049
    8       3349.517000000000         0.000001638158
    9       1459.781000000000         0.000003851756
   10        662.893900000000         0.000007518429
   11        311.392200000000         0.000010746392
   12        149.937500000000         0.000008809118
   13         72.498250000000         0.000002652625
   14         35.569350000000         0.000000078987
   15         17.766630000000         0.000000042815
   16   18226110.000000000000        -0.000000000212
   17    2728802.000000000000        -0.000000001675
   18     620997.699999999953        -0.000000008864
   19     175899.600000000006        -0.000000037448
   20      57387.500000000000        -0.000000136434
   21      20717.180000000000        -0.000000445288
   22       8078.890000000000        -0.000001324328
   23       3349.517000000000        -0.000003621933
   24       1459.781000000000        -0.000008987083
   25        662.893900000000        -0.000019692826
   26        311.392200000000        -0.000035145290
   27        149.937500000000        -0.000041458036
   28         72.498250000000        -0.000000347956
   29         35.569350000000         0.000096061072
   30         17.766630000000         0.000113887861
   31          8.712383000000         0.000032422139
   32          4.144971000000         0.000001217412
   33          1.969649000000         0.000000369267
   34   18226110.000000000000         0.000000400310
   35    2728802.000000000000         0.000003202480
   36     620997.699999999953         0.000016813022
   37     175899.600000000006         0.000070954955
   38      57387.500000000000         0.000258400132
   39      20717.180000000000         0.000843953647
   40       8078.890000000000         0.002513446678
   41       3349.517000000000         0.006897442106
   42       1459.781000000000         0.017235348869
   43        662.893900000000         0.038345598870
   44        311.392200000000         0.070598478897
   45        149.937500000000         0.088139964871
   46         72.498250000000         0.000633290487
   47         35.569350000000        -0.288329812971
   48         17.766630000000        -0.505371112610
   49          8.712383000000        -0.026798055236
   50          4.144971000000         0.710422025631
   51          1.969649000000         0.516201801036
   52   18226110.000000000000        -0.000000000137
   53    2728802.000000000000        -0.000000001365
   54     620997.699999999953        -0.000000007236
   55     175899.600000000006        -0.000000030856
   56      57387.500000000000        -0.000000112367
   57      20717.180000000000        -0.000000366455
   58       8078.890000000000        -0.000001094177
   59       3349.517000000000        -0.000002995128
   60       1459.781000000000        -0.000007519426
   61        662.893900000000        -0.000016693362
   62        311.392200000000        -0.000031077265
   63        149.937500000000        -0.000038721619
   64         72.498250000000        -0.000001032873
   65         35.569350000000         0.000136719514
   66         17.766630000000         0.000247852989
   67          8.712383000000         0.000015273553
   68          4.144971000000        -0.000488221094
   69          1.969649000000        -0.000624271186
   70          0.679952000000         0.039391918245
   71          0.324502000000        -0.007782864283
   72          0.137441000000         0.002759349028
   73          0.050388000000        -0.000514309681
 S 73
    1   18226110.000000000000         0.000000000067
    2    2728802.000000000000         0.000000000526
    3     620997.699999999953         0.000000002774
    4     175899.600000000006         0.000000011711
    5      57387.500000000000         0.000000042609
    6      20717.180000000000         0.000000138337
    7       8078.890000000000         0.000000407265
    8       3349.517000000000         0.000001084735
    9       1459.781000000000         0.000002550507
   10        662.893900000000         0.000004978458
   11        311.392200000000         0.000007115910
   12        149.937500000000         0.000005833110
   13         72.498250000000         0.000001756482
   14         35.569350000000         0.000000052302
   15         17.766630000000         0.000000028350
   16   18226110.000000000000        -0.000000000143
   17    2728802.000000000000        -0.000000001131
   18     620997.699999999953        -0.000000005985
   19     175899.600000000006        -0.000000025285
   20      57387.500000000000        -0.000000092121
   21      20717.180000000000        -0.000000300660
   22       8078.890000000000        -0.000000894191
   23       3349.517000000000        -0.000002445541
   24       1459.781000000000        -0.000006068107
   25        662.893900000000        -0.000013296660
   26        311.392200000000        -0.000023730213
   27        149.937500000000        -0.000027992600
   28         72.498250000000        -0.000000234941
   29         35.569350000000         0.000064860746
   30         17.766630000000         0.000076897451
   31          8.712383000000         0.000021891533
   32          4.144971000000         0.000000822000
   33          1.969649000000         0.000000249331
   34   18226110.000000000000         0.000000000227
   35    2728802.000000000000         0.000000001818
   36     620997.699999999953         0.000000009543
   37     175899.600000000006         0.000000040275
   38      57387.500000000000         0.000000146670
   39      20717.180000000000         0.000000479036
   40       8078.890000000000         0.000001426655
   41       3349.517000000000         0.000003915051
   42       1459.781000000000         0.000009782941
   43        662.893900000000         0.000021765310
   44        311.392200000000         0.000040072338
   45        149.937500000000         0.000050029045
   46         72.498250000000         0.000000359461
   47         35.569350000000        -0.000163658623
   48         17.766630000000        -0.000286853237
   49          8.712383000000        -0.000015210820
   50          4.144971000000         0.000403241999
   51          1.969649000000         0.000293000834
   52   18226110.000000000000         0.000000099890
   53    2728802.000000000000         0.000000998903
   54     620997.699999999953         0.000005294184
   55     175899.600000000006         0.000022575199
   56      57387.500000000000         0.000082209684
   57      20717.180000000000         0.000268105457
   58       8078.890000000000         0.000800520542
   59       3349.517000000000         0.002191292628
   60       1459.781000000000         0.005501356165
   61        662.893900000000         0.012213182497
   62        311.392200000000         0.022736721251
   63        149.937500000000         0.028329477004
   64         72.498250000000         0.000755669815
   65         35.569350000000        -0.100026609945
   66         17.766630000000        -0.181333984994
   67          8.712383000000        -0.011174423686
   68          4.144971000000         0.357191886060
   69          1.969649000000         0.456728734061
   70          0.679952000000        -0.327624144528
   71          0.324502000000        -0.697461279602
   72          0.137441000000        -0.254094177166
   73          0.050388000000        -0.001660563597
 S 76
    1   18226110.000000000000        -0.000000020010
    2    2728802.000000000000        -0.000000157576
    3     620997.699999999953        -0.000000830401
    4     175899.600000000006        -0.000003506070
    5      57387.500000000000        -0.000012756791
    6      20717.180000000000        -0.000041416895
    7       8078.890000000000        -0.000121931438
    8       3349.517000000000        -0.000324759480
    9       1459.781000000000        -0.000763597852
   10        662.893900000000        -0.001490503592
   11        311.392200000000        -0.002130436668
   12        149.937500000000        -0.001746378525
   13         72.498250000000        -0.000525874193
   14         35.569350000000        -0.000015658819
   15         17.766630000000        -0.000008487853
   16          8.712383000000         0.000004121367
   17          4.144971000000        -0.000001688941
   18          1.969649000000         0.000000897934
   19   18226110.000000000000         0.000000042806
   20    2728802.000000000000         0.000000338166
   21     620997.699999999953         0.000001789286
   22     175899.600000000006         0.000007559518
   23      57387.500000000000         0.000027541301
   24      20717.180000000000         0.000089888060
   25       8078.890000000000         0.000267335542
   26       3349.517000000000         0.000731141496
   27       1459.781000000000         0.001814177262
   28        662.893900000000         0.003975291874
   29        311.392200000000         0.007094603193
   30        149.937500000000         0.008368925580
   31         72.498250000000         0.000070240163
   32         35.569350000000        -0.019391366051
   33         17.766630000000        -0.022989970491
   34          8.712383000000        -0.006544894405
   35          4.144971000000        -0.000245752819
   36          1.969649000000        -0.000074542154
   37   18226110.000000000000        -0.000000070850
   38    2728802.000000000000        -0.000000566803
   39     620997.699999999953        -0.000002975715
   40     175899.600000000006        -0.000012558224
   41      57387.500000000000        -0.000045733900
   42      20717.180000000000        -0.000149370249
   43       8078.890000000000        -0.000444851631
   44       3349.517000000000        -0.001220769231
   45       1459.781000000000        -0.003050461789
   46        662.893900000000        -0.006786737247
   47        311.392200000000        -0.012495132177
   48        149.937500000000        -0.015599776770
   49         72.498250000000        -0.000112085253
   50         35.569350000000         0.051031115399
   51         17.766630000000         0.089444970332
   52          8.712383000000         0.004742952646
   53          4.144971000000        -0.125736662465
   54          1.969649000000        -0.091361879670
   55   18226110.000000000000         0.000000058329
   56    2728802.000000000000         0.000000583286
   57     620997.699999999953         0.000003091413
   58     175899.600000000006         0.000013182253
   59      57387.500000000000         0.000048004399
   60      20717.180000000000         0.000156553835
   61       8078.890000000000         0.000467445020
   62       3349.517000000000         0.001279553456
   63       1459.781000000000         0.003212386700
   64        662.893900000000         0.007131598800
   65        311.392200000000         0.013276570134
   66        149.937500000000         0.016542327460
   67         72.498250000000         0.000441255500
   68         35.569350000000        -0.058408170974
   69         17.766630000000        -0.105885687866
   70          8.712383000000        -0.006525040182
   71          4.144971000000         0.208573746156
   72          1.969649000000         0.266695932237
   73          0.679952000000        -0.374970408640
   74          0.324502000000         0.480779597253
   75          0.137441000000        -1.561059824403
   76          0.050388000000         1.865320366864
 S 76
    1   18226110.000000000000         0.000000084436
    2    2728802.000000000000         0.000000664935
    3     620997.699999999953         0.000003504103
    4     175899.600000000006         0.000014794808
    5      57387.500000000000         0.000053830726
    6      20717.180000000000         0.000174769772
    7       8078.890000000000         0.000514522632
    8       3349.517000000000         0.001370410327
    9       1459.781000000000         0.003222207348
   10        662.893900000000         0.006289582425
   11        311.392200000000         0.008989952854
   12        149.937500000000         0.007369315804
   13         72.498250000000         0.002219068171
   14         35.569350000000         0.000066076616
   15         17.766630000000         0.000035816787
   16          8.712383000000        -0.000017391222
   17          4.144971000000         0.000007126944
   18          1.969649000000        -0.000003789075
   19   18226110.000000000000        -0.000000177168
   20    2728802.000000000000        -0.000001399628
   21     620997.699999999953        -0.000007405625
   22     175899.600000000006        -0.000031287880
   23      57387.500000000000        -0.000113989930
   24      20717.180000000000        -0.000372035211
   25       8078.890000000000        -0.001106467690
   26       3349.517000000000        -0.003026101344
   27       1459.781000000000        -0.007508648165
   28        662.893900000000        -0.016453225745
   29        311.392200000000        -0.029363657213
   30        149.937500000000        -0.034637914947
   31         72.498250000000        -0.000290715071
   32         35.569350000000         0.080258389392
   33         17.766630000000         0.095152553920
   34          8.712383000000         0.027088482694
   35          4.144971000000         0.001017139553
   36          1.969649000000         0.000308520461
   37   18226110.000000000000         0.000000258020
   38    2728802.000000000000         0.000002064156
   39     620997.699999999953         0.000010836820
   40     175899.600000000006         0.000045733962
   41      57387.500000000000         0.000166551608
   42      20717.180000000000         0.000543969677
   43       8078.890000000000         0.001620040133
   44       3349.517000000000         0.004445741031
   45       1459.781000000000         0.011109030924
   46        662.893900000000         0.024715626408
   47        311.392200000000         0.045504195547
   48        149.937500000000         0.056810546908
   49         72.498250000000         0.000408186899
   50         35.569350000000        -0.185842760306
   51         17.766630000000        -0.325736563898
   52          8.712383000000        -0.017272665995
   53          4.144971000000         0.457901972970
   54          1.969649000000         0.332717475834
   55   18226110.000000000000        -0.000000057852
   56    2728802.000000000000        -0.000000578517
   57     620997.699999999953        -0.000003066138
   58     175899.600000000006        -0.000013074474
   59      57387.500000000000        -0.000047611912
   60      20717.180000000000        -0.000155273842
   61       8078.890000000000        -0.000463623162
   62       3349.517000000000        -0.001269091752
   63       1459.781000000000        -0.003186122039
   64        662.893900000000        -0.007073290431
   65        311.392200000000        -0.013168020120
   66        149.937500000000        -0.016407076422
   67         72.498250000000        -0.000437647769
   68         35.569350000000         0.057930622348
   69         17.766630000000         0.105019960283
   70          8.712383000000         0.006471691072
   71          4.144971000000        -0.206868434995
   72          1.969649000000        -0.264515410680
   73          0.679952000000         0.988062317306
   74          0.324502000000        -4.156129348859
   75          0.137441000000         4.656796039539
   76          0.050388000000        -1.700731366456
 S 76
    1   18226110.000000000000         0.000000328519
    2    2728802.000000000000         0.000002587086
    3     620997.699999999953         0.000013633531
    4     175899.600000000006         0.000057562657
    5      57387.500000000000         0.000209441012
    6      20717.180000000000         0.000679982621
    7       8078.890000000000         0.002001870480
    8       3349.517000000000         0.005331901475
    9       1459.781000000000         0.012536750326
   10        662.893900000000         0.024471089536
   11        311.392200000000         0.034977511440
   12        149.937500000000         0.028672044449
   13         72.498250000000         0.008633803046
   14         35.569350000000         0.000257086507
   15         17.766630000000         0.000139353576
   16          8.712383000000        -0.000067664610
   17          4.144971000000         0.000027729041
   18          1.969649000000        -0.000014742282
   19   18226110.000000000000        -0.000000712008
   20    2728802.000000000000        -0.000005624863
   21     620997.699999999953        -0.000029761932
   22     175899.600000000006        -0.000125740603
   23      57387.500000000000        -0.000458105910
   24      20717.180000000000        -0.001495145477
   25       8078.890000000000        -0.004446703200
   26       3349.517000000000        -0.012161380451
   27       1459.781000000000        -0.030175964590
   28        662.893900000000        -0.066122682349
   29        311.392200000000        -0.118007484285
   30        149.937500000000        -0.139203818314
   31         72.498250000000        -0.001168333832
   32         35.569350000000         0.322544652943
   33         17.766630000000         0.382401736604
   34          8.712383000000         0.108863949496
   35          4.144971000000         0.004087708795
   36          1.969649000000         0.001239890630
   37   18226110.000000000000         0.000001225671
   38    2728802.000000000000         0.000009805368
   39     620997.699999999953         0.000051478181
   40     175899.600000000006         0.000217250181
   41      57387.500000000000         0.000791170616
   42      20717.180000000000         0.002584020838
   43       8078.890000000000         0.007695681649
   44       3349.517000000000         0.021118617358
   45       1459.781000000000         0.052771263931
   46        662.893900000000         0.117406716505
   47        311.392200000000         0.216158720734
   48        149.937500000000         0.269867316545
   49         72.498250000000         0.001939011486
   50         35.569350000000        -0.882809438606
   51         17.766630000000        -1.547347406130
   52          8.712383000000        -0.082050398656
   53          4.144971000000         2.175173157288
   54          1.969649000000         1.580508853677
   55   18226110.000000000000        -0.000000725546
   56    2728802.000000000000        -0.000007255465
   57     620997.699999999953        -0.000038453964
   58     175899.600000000006        -0.000163973506
   59      57387.500000000000        -0.000597124758
   60      20717.180000000000        -0.001947366767
   61       8078.890000000000        -0.005814529535
   62       3349.517000000000        -0.015916313254
   63       1459.781000000000        -0.039958747146
   64        662.893900000000        -0.088709666603
   65        311.392200000000        -0.165146714403
   66        149.937500000000        -0.205769336583
   67         72.498250000000        -0.005488759163
   68         35.569350000000         0.726536856510
   69         17.766630000000         1.317107752719
   70          8.712383000000         0.081164708700
   71          4.144971000000        -2.594440321553
   72          1.969649000000        -3.317419823644
   73          0.679952000000         6.487876381056
   74          0.324502000000        -7.598544994203
   75          0.137441000000         3.808621902571
   76          0.050388000000        -0.928496586519
 S 76
    1   18226110.000000000000         0.000004299257
    2    2728802.000000000000         0.000033856651
    3     620997.699999999953         0.000178419177
    4     175899.600000000006         0.000753310485
    5      57387.500000000000         0.002740910862
    6      20717.180000000000         0.008898790793
    7       8078.890000000000         0.026198061592
    8       3349.517000000000         0.069777482926
    9       1459.781000000000         0.164065837668
   10        662.893900000000         0.320248046666
   11        311.392200000000         0.457743399581
   12        149.937500000000         0.375225067731
   13         72.498250000000         0.112988780356
   14         35.569350000000         0.003364437519
   15         17.766630000000         0.001823691194
   16          8.712383000000        -0.000885512646
   17          4.144971000000         0.000362884184
   18          1.969649000000        -0.000192929170
   19   18226110.000000000000        -0.000008865288
   20    2728802.000000000000        -0.000070035772
   21     620997.699999999953        -0.000370569021
   22     175899.600000000006        -0.001565609785
   23      57387.500000000000        -0.005703926024
   24      20717.180000000000        -0.018616217373
   25       8078.890000000000        -0.055366380476
   26       3349.517000000000        -0.151422657851
   27       1459.781000000000        -0.375724185247
   28        662.893900000000        -0.823300639740
   29        311.392200000000        -1.469323896953
   30        149.937500000000        -1.733241734924
   31         72.498250000000        -0.014547050377
   32         35.569350000000         4.016038213814
   33         17.766630000000         4.761325209445
   34          8.712383000000         1.355476760477
   35          4.144971000000         0.050896502482
   36          1.969649000000         0.015438011778
   37   18226110.000000000000         0.000012321917
   38    2728802.000000000000         0.000098575334
   39     620997.699999999953         0.000517520505
   40     175899.600000000006         0.002184059749
   41      57387.500000000000         0.007953797280
   42      20717.180000000000         0.025977681045
   43       8078.890000000000         0.077366234963
   44       3349.517000000000         0.212309706546
   45       1459.781000000000         0.530520126831
   46        662.893900000000         1.180313327584
   47        311.392200000000         2.173087081822
   48        149.937500000000         2.713030394508
   49         72.498250000000         0.019493272341
   50         35.569350000000        -8.875060789736
   51         17.766630000000       -15.555794593606
   52          8.712383000000        -0.824869155278
   53          4.144971000000        21.867453104735
   54          1.969649000000        15.889173293443
   55   18226110.000000000000        -0.000004974597
   56    2728802.000000000000        -0.000049745972
   57     620997.699999999953        -0.000263653649
   58     175899.600000000006        -0.001124258956
   59      57387.500000000000        -0.004094093455
   60      20717.180000000000        -0.013351818753
   61       8078.890000000000        -0.039866421568
   62       3349.517000000000        -0.109127737700
   63       1459.781000000000        -0.273970963491
   64        662.893900000000        -0.608224095258
   65        311.392200000000        -1.132302879708
   66        149.937500000000        -1.410825599592
   67         72.498250000000        -0.037632827447
   68         35.569350000000         4.981387476061
   69         17.766630000000         9.030545395229
   70          8.712383000000         0.556493259485
   71          4.144971000000       -17.788378400046
   72          1.969649000000       -22.745375426276
   73          0.679952000000         6.494317771964
   74          0.324502000000        -5.019696553290
   75          0.137441000000         2.094545931381
   76          0.050388000000        -0.500561805772
 P 43
    1      28600.830000000002         0.000060499950
    2       6770.991000000000         0.000537799557
    3       2199.049000000000         0.003093397449
    4        841.179600000000         0.013514988856
    5        356.766300000000         0.047095861167
    6        162.636200000000         0.129619893123
    7         77.966040000000         0.266110580581
    8         38.661490000000         0.367805496729
    9         19.576790000000         0.274036974045
   10          9.791761000000         0.078711235099
   11          4.835383000000         0.004984195890
   12          2.368125000000         0.001226698989
   13          1.089996000000        -0.000244799798
   14      28600.830000000002         0.000000000217
   15       6770.991000000000         0.000000001938
   16       2199.049000000000         0.000000011163
   17        841.179600000000         0.000000049286
   18        356.766300000000         0.000000174622
   19        162.636200000000         0.000000498984
   20         77.966040000000         0.000001073941
   21         38.661490000000         0.000001586623
   22         19.576790000000         0.000000850645
   23          9.791761000000        -0.000001912170
   24          4.835383000000        -0.000004331149
   25          2.368125000000        -0.000003294298
   26          1.089996000000        -0.000000663046
   27      28600.830000000002        -0.000000000174
   28       6770.991000000000        -0.000000001550
   29       2199.049000000000        -0.000000008923
   30        841.179600000000        -0.000000039494
   31        356.766300000000        -0.000000140090
   32        162.636200000000        -0.000000402829
   33         77.966040000000        -0.000000871453
   34         38.661490000000        -0.000001304962
   35         19.576790000000        -0.000000635827
   36          9.791761000000         0.000001957668
   37          4.835383000000         0.000004577364
   38          2.368125000000         0.000004083861
   39          1.089996000000        -0.000003391888
   40          0.504588000000         0.000151427173
   41          0.218455000000        -0.000073867644
   42          0.089959000000         0.000029771981
   43          0.034457000000        -0.000008399099
 P 41
    1      28600.830000000002        -0.000000000647
    2       6770.991000000000        -0.000000005755
    3       2199.049000000000        -0.000000033102
    4        841.179600000000        -0.000000144624
    5        356.766300000000        -0.000000503974
    6        162.636200000000        -0.000001387065
    7         77.966040000000        -0.000002847654
    8         38.661490000000        -0.000003935893
    9         19.576790000000        -0.000002932474
   10          9.791761000000        -0.000000842290
   11          4.835383000000        -0.000000053336
   12      28600.830000000002         0.000024602776
   13       6770.991000000000         0.000219224739
   14       2199.049000000000         0.001262942521
   15        841.179600000000         0.005576229269
   16        356.766300000000         0.019756829527
   17        162.636200000000         0.056455170878
   18         77.966040000000         0.121506011764
   19         38.661490000000         0.179510957532
   20         19.576790000000         0.096242260789
   21          9.791761000000        -0.216343414018
   22          4.835383000000        -0.490027398830
   23          2.368125000000        -0.372717860631
   24          1.089996000000        -0.075017265582
   25      28600.830000000002        -0.000000002209
   26       6770.991000000000        -0.000000019651
   27       2199.049000000000        -0.000000113160
   28        841.179600000000        -0.000000500843
   29        356.766300000000        -0.000001776558
   30        162.636200000000        -0.000005108499
   31         77.966040000000        -0.000011051384
   32         38.661490000000        -0.000016548951
   33         19.576790000000        -0.000008063274
   34          9.791761000000         0.000024826279
   35          4.835383000000         0.000058048122
   36          2.368125000000         0.000051789729
   37          1.089996000000        -0.000043014427
   38          0.504588000000         0.000334509763
   39          0.218455000000        -0.001487081040
   40          0.089959000000         0.000458490552
   41          0.034457000000        -0.000127793733
 P 42
    1      28600.830000000002         0.000000003103
    2       6770.991000000000         0.000000027583
    3       2199.049000000000         0.000000158656
    4        841.179600000000         0.000000693164
    5        356.766300000000         0.000002415478
    6        162.636200000000         0.000006648015
    7         77.966040000000         0.000013648424
    8         38.661490000000         0.000018864208
    9         19.576790000000         0.000014054957
   10          9.791761000000         0.000004036985
   11          4.835383000000         0.000000255632
   12          2.368125000000         0.000000062916
   13      28600.830000000002        -0.000000013166
   14       6770.991000000000        -0.000000117318
   15       2199.049000000000        -0.000000675865
   16        841.179600000000        -0.000002984125
   17        356.766300000000        -0.000010572888
   18        162.636200000000        -0.000030212043
   19         77.966040000000        -0.000065024068
   20         38.661490000000        -0.000096065475
   21         19.576790000000        -0.000051504146
   22          9.791761000000         0.000115776402
   23          4.835383000000         0.000262238671
   24          2.368125000000         0.000199460350
   25          1.089996000000         0.000040145567
   26      28600.830000000002         0.000006710326
   27       6770.991000000000         0.000059691858
   28       2199.049000000000         0.000343728957
   29        841.179600000000         0.001521341158
   30        356.766300000000         0.005396404408
   31        162.636200000000         0.015517379352
   32         77.966040000000         0.033569258991
   33         38.661490000000         0.050268457018
   34         19.576790000000         0.024492691262
   35          9.791761000000        -0.075411348859
   36          4.835383000000        -0.176324742252
   37          2.368125000000        -0.157314487791
   38          1.089996000000         0.130658968201
   39          0.504588000000         0.449602165109
   40          0.218455000000         0.452547483837
   41          0.089959000000         0.152327483463
   42          0.034457000000         0.001705782091
 P 43
    1      28600.830000000002        -0.000000588346
    2       6770.991000000000        -0.000005229957
    3       2199.049000000000        -0.000030082463
    4        841.179600000000        -0.000131429654
    5        356.766300000000        -0.000457994661
    6        162.636200000000        -0.001260518814
    7         77.966040000000        -0.002587854266
    8         38.661490000000        -0.003576810143
    9         19.576790000000        -0.002664936324
   10          9.791761000000        -0.000765445722
   11          4.835383000000        -0.000048469973
   12          2.368125000000        -0.000011929320
   13          1.089996000000         0.000002380613
   14      28600.830000000002         0.000002438766
   15       6770.991000000000         0.000021730790
   16       2199.049000000000         0.000125189970
   17        841.179600000000         0.000552747226
   18        356.766300000000         0.001958408126
   19        162.636200000000         0.005596154244
   20         77.966040000000         0.012044359673
   21         38.661490000000         0.017794136325
   22         19.576790000000         0.009540074502
   23          9.791761000000        -0.021445176690
   24          4.835383000000        -0.048574273447
   25          2.368125000000        -0.036945891850
   26          1.089996000000        -0.007436133531
   27      28600.830000000002        -0.000000783358
   28       6770.991000000000        -0.000006968378
   29       2199.049000000000        -0.000040126635
   30        841.179600000000        -0.000177600111
   31        356.766300000000        -0.000629971798
   32        162.636200000000        -0.001811486061
   33         77.966040000000        -0.003918847594
   34         38.661490000000        -0.005868298192
   35         19.576790000000        -0.002859256567
   36          9.791761000000         0.008803458638
   37          4.835383000000         0.020584004912
   38          2.368125000000         0.018364763493
   39          1.089996000000        -0.015253020131
   40          0.504588000000         0.211367156581
   41          0.218455000000        -0.212108754674
   42          0.089959000000         0.789536165657
   43          0.034457000000        -1.439435943276
 P 43
    1      28600.830000000002         0.000002554591
    2       6770.991000000000         0.000022708418
    3       2199.049000000000         0.000130617740
    4        841.179600000000         0.000570666177
    5        356.766300000000         0.001988608008
    6        162.636200000000         0.005473159446
    7         77.966040000000         0.011236436034
    8         38.661490000000         0.015530472062
    9         19.576790000000         0.011571125519
   10          9.791761000000         0.003323557284
   11          4.835383000000         0.000210456113
   12          2.368125000000         0.000051796981
   13          1.089996000000        -0.000010336595
   14      28600.830000000002        -0.000011058370
   15       6770.991000000000        -0.000098536369
   16       2199.049000000000        -0.000567662988
   17        841.179600000000        -0.002506384034
   18        356.766300000000        -0.008880230654
   19        162.636200000000        -0.025375272804
   20         77.966040000000        -0.054614097307
   21         38.661490000000        -0.080685957510
   22         19.576790000000        -0.043258634857
   23          9.791761000000         0.097241281261
   24          4.835383000000         0.220255801785
   25          2.368125000000         0.167527920743
   26          1.089996000000         0.033718498227
   27      28600.830000000002         0.000011933877
   28       6770.991000000000         0.000106158069
   29       2199.049000000000         0.000611299482
   30        841.179600000000         0.002705605807
   31        356.766300000000         0.009597152499
   32        162.636200000000         0.027596644874
   33         77.966040000000         0.059700732838
   34         38.661490000000         0.089399164975
   35         19.576790000000         0.043558650427
   36          9.791761000000        -0.134114154631
   37          4.835383000000        -0.313582028506
   38          2.368125000000        -0.279773533566
   39          1.089996000000         0.232368434331
   40          0.504588000000        -0.291979095505
   41          0.218455000000         1.689123410955
   42          0.089959000000        -2.676465106161
   43          0.034457000000         1.144818858571
 P 43
    1      28600.830000000002        -0.000009048164
    2       6770.991000000000        -0.000080431448
    3       2199.049000000000        -0.000462637861
    4        841.179600000000        -0.002021255152
    5        356.766300000000        -0.007043494674
    6        162.636200000000        -0.019385504463
    7         77.966040000000        -0.039798581245
    8         38.661490000000        -0.055007722398
    9         19.576790000000        -0.040984025332
   10          9.791761000000        -0.011771781032
   11          4.835383000000        -0.000745419159
   12          2.368125000000        -0.000183460873
   13          1.089996000000         0.000036611414
   14      28600.830000000002         0.000036751974
   15       6770.991000000000         0.000327481006
   16       2199.049000000000         0.001886601340
   17        841.179600000000         0.008329849883
   18        356.766300000000         0.029513030437
   19        162.636200000000         0.084333530039
   20         77.966040000000         0.181507393099
   21         38.661490000000         0.268155998713
   22         19.576790000000         0.143768045779
   23          9.791761000000        -0.323176841394
   24          4.835383000000        -0.732009835702
   25          2.368125000000        -0.556771193968
   26          1.089996000000        -0.112061848755
   27      28600.830000000002        -0.000021958753
   28       6770.991000000000        -0.000195334577
   29       2199.049000000000        -0.001124812529
   30        841.179600000000        -0.004978409764
   31        356.766300000000        -0.017659097862
   32        162.636200000000        -0.050778796369
   33         77.966040000000        -0.109851446426
   34         38.661490000000        -0.164497605219
   35         19.576790000000        -0.080149447524
   36          9.791761000000         0.246774757561
   37          4.835383000000         0.577001952351
   38          2.368125000000         0.514793133563
   39          1.089996000000        -0.427566085061
   40          0.504588000000         2.922321008622
   41          0.218455000000        -3.756018025938
   42          0.089959000000         2.125625742619
   43          0.034457000000        -0.618730741335
 P 43
    1      28600.830000000002        -0.000047671516
    2       6770.991000000000        -0.000423764317
    3       2199.049000000000        -0.002437472178
    4        841.179600000000        -0.010649265045
    5        356.766300000000        -0.037109635341
    6        162.636200000000        -0.102135237524
    7         77.966040000000        -0.209684383318
    8         38.661490000000        -0.289815867503
    9         19.576790000000        -0.215930061043
   10          9.791761000000        -0.062021272345
   11          4.835383000000        -0.003927344938
   12          2.368125000000        -0.000966589229
   13          1.089996000000         0.000192892348
   14      28600.830000000002         0.000208356522
   15       6770.991000000000         0.001856575192
   16       2199.049000000000         0.010695634818
   17        841.179600000000         0.047224090507
   18        356.766300000000         0.167317063336
   19        162.636200000000         0.478108766810
   20         77.966040000000         1.029012728878
   21         38.661490000000         1.520246262646
   22         19.576790000000         0.815058530605
   23          9.791761000000        -1.832173763261
   24          4.835383000000        -4.149954587207
   25          2.368125000000        -3.156481044025
   26          1.089996000000        -0.635307834142
   27      28600.830000000002        -0.000175864156
   28       6770.991000000000        -0.001564403539
   29       2199.049000000000        -0.009008444542
   30        841.179600000000        -0.039871291549
   31        356.766300000000        -0.141428904540
   32        162.636200000000        -0.406679299287
   33         77.966040000000        -0.879782752883
   34         38.661490000000        -1.317435142379
   35         19.576790000000        -0.641904170398
   36          9.791761000000         1.976379762069
   37          4.835383000000         4.621116813446
   38          2.368125000000         4.122896283561
   39          1.089996000000        -3.424308733241
   40          0.504588000000         4.561198359520
   41          0.218455000000        -2.738201760088
   42          0.089959000000         1.156187739093
   43          0.034457000000        -0.317557877005
 D 13
    1       1437.779000000000         0.000110799999
    2        434.268500000000         0.001082799989
    3        168.927000000000         0.006406499935
    4         74.777540000000         0.026237899733
    5         35.516020000000         0.078823499199
    6         17.671050000000         0.177067698200
    7          9.004611000000         0.283962197114
    8          4.594773000000         0.329470196652
    9          2.326486000000         0.258900097369
   10          1.133247000000         0.109615765161
   11          0.481307000000         0.015941640116
   12          0.205300000000        -0.000263658492
   13          0.103900000000         0.000390850922
 D 13
    1       1437.779000000000         0.000007246738
    2        434.268500000000         0.000070819203
    3        168.927000000000         0.000419009260
    4         74.777540000000         0.001716057607
    5         35.516020000000         0.005155354155
    6         17.671050000000         0.011580895329
    7          9.004611000000         0.018572198744
    8          4.594773000000         0.021548593561
    9          2.326486000000         0.016933042891
   10          1.133247000000         0.016146959972
   11          0.481307000000        -0.253861214288
   12          0.205300000000         0.454076071632
   13          0.103900000000        -1.263088650061
 D 13
    1       1437.779000000000         0.000021317189
    2        434.268500000000         0.000208323578
    3        168.927000000000         0.001232568344
    4         74.777540000000         0.005047998899
    5         35.516020000000         0.015165121492
    6         17.671050000000         0.034066657568
    7          9.004611000000         0.054632454308
    8          4.594773000000         0.063387893344
    9          2.326486000000         0.049810671574
   10          1.133247000000        -0.171830524009
   11          0.481307000000         0.144708457317
   12          0.205300000000        -1.810677874418
   13          0.103900000000         1.367546445336
 D 13
    1       1437.779000000000         0.000031203156
    2        434.268500000000         0.000304934815
    3        168.927000000000         0.001804178881
    4         74.777540000000         0.007389036927
    5         35.516020000000         0.022198032320
    6         17.671050000000         0.049865262612
    7          9.004611000000         0.079968563860
    8          4.594773000000         0.092784387248
    9          2.326486000000         0.072910652122
   10          1.133247000000         0.077351911904
   11          0.481307000000        -1.866192753561
   12          0.205300000000         2.320567915241
   13          0.103900000000        -1.052047367155
 D 13
    1       1437.779000000000         0.000074641410
    2        434.268500000000         0.000729437892
    3        168.927000000000         0.004315795951
    4         74.777540000000         0.017675395705
    5         35.516020000000         0.053100154865
    6         17.671050000000         0.119283237760
    7          9.004611000000         0.191293672519
    8          4.594773000000         0.221950543218
    9          2.326486000000         0.174410364987
   10          1.133247000000        -2.028128377108
   11          0.481307000000         2.310346152250
   12          0.205300000000        -1.512976160305
   13          0.103900000000         0.590601513009
 F 3
    1          0.413000000000        -0.555103005814
    2          0.955700000000         0.158058001085
    3          0.225600000000         1.372449773338
 F 3
    1          0.413000000000         1.754953237428
    2          0.955700000000        -0.052422216801
    3          0.225600000000        -1.201398323592
 F 3
    1          0.413000000000        -1.825384814775
    2          0.955700000000         1.581536975964
    3          0.225600000000         0.864890437817
 G 2
    1          0.739500000000         0.258468944561
    2          0.359000000000        -1.164861417488
 G 2
    1          0.739500000000         1.383421368230
    2          0.359000000000        -0.789783992891
 end
  // -----------------------------------------------
  // The basis set
  // -----------------------------------------------
  BAS[ATNO] = new BFNGauss[NSH];
  // Basis function   1 L = s
  InitBFNGauss(BAS[ATNO][  0]);
  BAS[ATNO][  0].l  = 0;
  BAS[ATNO][  0].ng = 74;
  BAS[ATNO][  0].a[  0] =  18226110.000000000000;     BAS[ATNO][  0].d[  0] =         0.000003200003;
  BAS[ATNO][  0].a[  1] =   2728802.000000000000;     BAS[ATNO][  0].d[  1] =         0.000025200023;
  BAS[ATNO][  0].a[  2] =    620997.699999999953;     BAS[ATNO][  0].d[  2] =         0.000132800123;
  BAS[ATNO][  0].a[  3] =    175899.600000000006;     BAS[ATNO][  0].d[  3] =         0.000560700520;
  BAS[ATNO][  0].a[  4] =     57387.500000000000;     BAS[ATNO][  0].d[  4] =         0.002040101891;
  BAS[ATNO][  0].a[  5] =     20717.180000000000;     BAS[ATNO][  0].d[  5] =         0.006623506140;
  BAS[ATNO][  0].a[  6] =      8078.890000000000;     BAS[ATNO][  0].d[  6] =         0.019499618076;
  BAS[ATNO][  0].a[  7] =      3349.517000000000;     BAS[ATNO][  0].d[  7] =         0.051936448144;
  BAS[ATNO][  0].a[  8] =      1459.781000000000;     BAS[ATNO][  0].d[  8] =         0.122116713199;
  BAS[ATNO][  0].a[  9] =       662.893900000000;     BAS[ATNO][  0].d[  9] =         0.238365520958;
  BAS[ATNO][  0].a[ 10] =       311.392200000000;     BAS[ATNO][  0].d[ 10] =         0.340705415824;
  BAS[ATNO][  0].a[ 11] =       149.937500000000;     BAS[ATNO][  0].d[ 11] =         0.279285758889;
  BAS[ATNO][  0].a[ 12] =        72.498250000000;     BAS[ATNO][  0].d[ 12] =         0.084099277957;
  BAS[ATNO][  0].a[ 13] =        35.569350000000;     BAS[ATNO][  0].d[ 13] =         0.002504202321;
  BAS[ATNO][  0].a[ 14] =        17.766630000000;     BAS[ATNO][  0].d[ 14] =         0.001357401258;
[...]
<sp|pg>:          784 b           12 skpd (  1.5%)    0.023 s ( 0.030 ms/b)
<sp|dd>:          840 b            3 skpd (  0.4%)    0.112 s ( 0.134 ms/b)
<sp|df>: done
<sp|dg>: done
<sp|ff>:          336 b          327 skpd ( 97.3%)    0.000 s ( 0.052 ms/b)
<sp|fg>: done
<sp|gg>: done
<sd|sd>:          820 b           22 skpd (  2.7%)    0.044 s ( 0.056 ms/b)
<sd|sf>:          960 b           87 skpd (  9.1%)    0.007 s ( 0.008 ms/b)
<sd|sg>:          640 b           82 skpd ( 12.8%)    0.010 s ( 0.018 ms/b)
<sd|pp>:         1120 b            9 skpd (  0.8%)    0.058 s ( 0.053 ms/b)
<sd|pd>:         1400 b           93 skpd (  6.6%)    0.069 s ( 0.053 ms/b)
<sd|pf>: done
<sd|pg>: done
<sd|dd>:          600 b            7 skpd (  1.2%)    0.073 s ( 0.123 ms/b)
<sd|df>:          600 b           21 skpd (  3.5%)    0.015 s ( 0.026 ms/b)
<sd|dg>:          400 b           16 skpd (  4.0%)    0.022 s ( 0.059 ms/b)
<sd|ff>: done
<sd|fg>: done
<sd|gg>: done
<sf|sf>:          300 b           43 skpd ( 14.3%)    0.002 s ( 0.009 ms/b)
<sf|sg>:          384 b           74 skpd ( 19.3%)    0.004 s ( 0.013 ms/b)
<sf|pp>:          672 b           17 skpd (  2.5%)    0.025 s ( 0.038 ms/b)
<sf|pd>: done
<sf|pf>: done
<sf|pg>: done
<sf|dd>:          360 b           19 skpd (  5.3%)    0.038 s ( 0.113 ms/b)
<sf|df>: done
<sf|dg>: done
<sf|ff>: done
<sf|fg>: done
<sf|gg>: done
<sg|sg>:          136 b           29 skpd ( 21.3%)    0.004 s ( 0.041 ms/b)
<sg|pp>:          448 b           18 skpd (  4.0%)    0.032 s ( 0.074 ms/b)
<sg|pd>: done
<sg|pf>: done
<sg|pg>: done
<sg|dd>:          240 b           18 skpd (  7.5%)    0.050 s ( 0.226 ms/b)
<sg|df>: done
<sg|dg>: done
<sg|ff>: done
<sg|fg>: done
<sg|gg>: done
<pp|pp>:          406 b            0 skpd (  0.0%)    0.079 s ( 0.196 ms/b)
<pp|pd>:          980 b            0 skpd (  0.0%)    0.092 s ( 0.094 ms/b)
<pp|pf>:          588 b            0 skpd (  0.0%)    0.014 s ( 0.024 ms/b)
<pp|pg>:          392 b            0 skpd (  0.0%)    0.023 s ( 0.059 ms/b)
<pp|dd>:          420 b            0 skpd (  0.0%)    0.094 s ( 0.224 ms/b)
<pp|df>:          420 b            0 skpd (  0.0%)    0.018 s ( 0.044 ms/b)
<pp|dg>:          280 b            0 skpd (  0.0%)    0.039 s ( 0.140 ms/b)
<pp|ff>:          168 b            0 skpd (  0.0%)    0.006 s ( 0.035 ms/b)
<pp|fg>:          168 b            0 skpd (  0.0%)    0.008 s ( 0.051 ms/b)
<pp|gg>:           84 b            0 skpd (  0.0%)    0.008 s ( 0.097 ms/b)
<pd|pd>:          630 b            1 skpd (  0.2%)    0.079 s ( 0.126 ms/b)
<pd|pf>:          735 b            6 skpd (  0.8%)    0.014 s ( 0.020 ms/b)
<pd|pg>:          490 b            8 skpd (  1.6%)    0.026 s ( 0.054 ms/b)
<pd|dd>:          525 b            0 skpd (  0.0%)    0.099 s ( 0.188 ms/b)
<pd|df>:          525 b            6 skpd (  1.1%)    0.022 s ( 0.042 ms/b)
<pd|dg>:          350 b            5 skpd (  1.4%)    0.033 s ( 0.097 ms/b)
<pd|ff>:          210 b          205 skpd ( 97.6%)    0.001 s ( 0.183 ms/b)
<pd|fg>: done
<pd|gg>: done
<pf|pf>:          231 b            3 skpd (  1.3%)    0.006 s ( 0.026 ms/b)
<pf|pg>:          294 b            8 skpd (  2.7%)    0.013 s ( 0.044 ms/b)
<pf|dd>:          315 b            3 skpd (  1.0%)    0.044 s ( 0.142 ms/b)
<pf|df>: done
<pf|dg>: done
<pf|ff>: done
<pf|fg>: done
<pf|gg>: done
<pg|pg>:          105 b            4 skpd (  3.8%)    0.015 s ( 0.150 ms/b)
<pg|dd>:          210 b            3 skpd (  1.4%)    0.061 s ( 0.297 ms/b)
<pg|df>: done
<pg|dg>: done
<pg|ff>: done
<pg|fg>: done
<pg|gg>: done
<dd|dd>:          120 b            0 skpd (  0.0%)    0.047 s ( 0.394 ms/b)
<dd|df>:          225 b            0 skpd (  0.0%)    0.010 s ( 0.046 ms/b)
<dd|dg>:          150 b            0 skpd (  0.0%)    0.017 s ( 0.111 ms/b)
<dd|ff>:           90 b            0 skpd (  0.0%)    0.003 s ( 0.028 ms/b)
<dd|fg>:           90 b            0 skpd (  0.0%)    0.004 s ( 0.044 ms/b)
<dd|gg>:           45 b            0 skpd (  0.0%)    0.006 s ( 0.128 ms/b)
<df|df>:          120 b            0 skpd (  0.0%)    0.005 s ( 0.038 ms/b)
<df|dg>:          150 b            0 skpd (  0.0%)    0.010 s ( 0.070 ms/b)
<df|ff>: done
<df|fg>: done
<df|gg>: done
<dg|dg>:           55 b            0 skpd (  0.0%)    0.008 s ( 0.146 ms/b)
<dg|ff>: done
<dg|fg>: done
<dg|gg>: done
<ff|ff>: done
<ff|fg>: done
<ff|gg>: done
<fg|fg>: done
<fg|gg>: done
<gg|gg>: done
Recanonicalizing the internal orbitals
Recanonicalizing the virtual orbitals
Time needed for Fock operator              ...            2.911 sec
Reference energy                           ...  -2752.054819551

------------------------------
PARTIAL COULOMB TRANSFORMATION
------------------------------

Transformation type                        ... one-operator
Dimension of the basis                     ...   93
Number of internal MOs                     ...   84 (9-92)
Pair cutoff                                ... 0.000e+00 Eh
Number of AO pairs included in the trafo   ... 4371
Total Number of distinct AO pairs          ... 4371
Memory devoted for trafo                   ... 2500.0 MB 
Max. Number of MO pairs treated together   ... 74966      
Max. Number of MOs treated per batch       ...  806      
Number Format for Storage                  ... Double (8 Byte)
AO-integral source                         ... DIRECT
Integral package used                      ... LIBINT

Starting integral evaluation:
<ss|**>:        11700 b        0 skpd     0.718 s (  0.061 ms/b)
<sp|**>:        18200 b        0 skpd     0.561 s (  0.031 ms/b)
<sd|**>:        13000 b        0 skpd     0.925 s (  0.071 ms/b)
<sf|**>:         7800 b        0 skpd     0.085 s (  0.011 ms/b)
<sg|**>:         5200 b        0 skpd     0.143 s (  0.028 ms/b)
<pp|**>:         9100 b        0 skpd     0.626 s (  0.069 ms/b)
<pd|**>:        11375 b        0 skpd     0.711 s (  0.062 ms/b)
<pf|**>:         6825 b        0 skpd     0.116 s (  0.017 ms/b)
<pg|**>:         4550 b        0 skpd     0.200 s (  0.044 ms/b)
<dd|**>:         4875 b        0 skpd     0.778 s (  0.160 ms/b)
<df|**>:         4875 b        0 skpd     0.157 s (  0.032 ms/b)
<dg|**>:         3250 b        0 skpd     0.245 s (  0.076 ms/b)
<ff|**>:         1950 b        0 skpd     0.038 s (  0.020 ms/b)
<fg|**>:         1950 b        0 skpd     0.057 s (  0.029 ms/b)
<gg|**>:          975 b        0 skpd     0.085 s (  0.087 ms/b)
Closing buffer AOJ ( 0.00 GB; CompressionRatio= 1.00)
Collecting buffer AOJ 
    ... done with AO integral generation
Number of MO pairs included in the trafo   ... 3570
    ... Now sorting integrals
IBATCH = 1 of  1
Closing buffer JAO ( 0.00 GB; CompressionRatio= 1.00)
Collecting buffer JAO 
TOTAL TIME for half transformation         ...     5.540 sec
AO-integral generation                     ...     5.434 sec
Half transformation                        ...     0.022 sec
J-integral sorting                         ...     0.058 sec

-------------------------- SECOND HALF TRANSFORMATION -------------------------
Formation of (pq|rs)                       ... ok (     0.042 sec)
Integral sorting                           ... ok (     0.371 sec)

------------------
CLOSED SHELL GUESS
------------------

Initial guess performed in     0.006 sec
E(0)                                       ...  -2752.054819551
E(MP2)                                     ...     -0.316141743
Initial E(tot)                             ...  -2752.370961294
<T|T>                                      ...      0.073879174
Number of pairs included                   ... 45
Total number of pairs                      ... 45

------------------------------------------------
                  RHF COUPLED CLUSTER ITERATIONS
------------------------------------------------

Number of amplitudes to be optimized       ... 253800

Iter       E(tot)           E(Corr)          Delta-E          Residual     Time
  0  -2752.370961294     -0.316141743      0.000000000      0.020036486    0.09
                           *** Turning on DIIS ***
  1  -2752.371259004     -0.316439453     -0.000297710      0.002034236    2.30
  2  -2752.376276506     -0.321456956     -0.005017503      0.000694488    2.31
  3  -2752.377169353     -0.322349802     -0.000892846      0.000155363    2.29
  4  -2752.377241455     -0.322421904     -0.000072102      0.000035807    2.29
  5  -2752.377246964     -0.322427413     -0.000005509      0.000006665    2.30
               --- The Coupled-Cluster iterations have converged ---

----------------------
COUPLED CLUSTER ENERGY
----------------------

E(0)                                       ...  -2752.054819551
E(CORR)                                    ...     -0.322427413
E(TOT)                                     ...  -2752.377246964
Singles Norm <S|S>**1/2                    ...      0.014864904  
T1 diagnostic                              ...      0.003503692  

------------------
LARGEST AMPLITUDES
------------------
  15-> 31  15-> 31       0.026000
  17-> 32  17-> 32       0.023766
  15-> 33  15-> 33       0.023024
  17-> 35  17-> 35       0.022853
  17-> 34  17-> 34       0.021971
  16-> 35  16-> 35       0.020897
  16-> 33  16-> 33       0.020696
  15-> 34  15-> 34       0.020239
  16-> 32  16-> 32       0.017634
  15-> 23  15-> 31       0.017270
  15-> 31  15-> 23       0.017270
  17-> 22  17-> 32       0.016564
  17-> 32  17-> 22       0.016564
  15-> 26  15-> 33       0.015931
  15-> 33  15-> 26       0.015931
  16-> 24  16-> 35       0.015088


        !!!!!!!!!!!!!!!!!!!!!!!!!!!!!!!!!!!!!!!!!!!!!!!!!!!!!!!!!!!!!!!!!!!!!!!!!! 
        !  Warning: Densities are linearized densities !                         !
        !!!!!!!!!!!!!!!!!!!!!!!!!!!!!!!!!!!!!!!!!!!!!!!!!!!!!!!!!!!!!!!!!!!!!!!!!! 

Trace of internal density part =     -0.162333472
Trace of external density part =      0.162333472
----------------------
RHF TRIPLES CORRECTION (Algorithm 1)
----------------------

Multiplier for the singles contribution    ...      1.000000000

10% done
20% done
30% done
40% done
50% done
60% done
70% done
80% done

Triples Correction (T)                     ...     -0.009834930
Scaling of triples based on CCSD energies (Peterson et al. Molecular Physics 113, 1551 (2015))
E(T*) = f*E(T) where f = E(F12-CCSD)/E(CCSD) 
f = CCSD (with F12)/ CCSD (without F12)    ...      1.000000000
Scaled triples correction (T)              ...     -0.009834930

Final correlation energy                   ...     -0.332262343
E(CCSD)                                    ...  -2752.377246964
E(CCSD(T))                                 ...  -2752.387081894

NORM  =      1.081387701 sqrt=     1.039897928
W(HF) =      0.924737723
------------------------------------------------------------------------------
                           ORCA POPULATION ANALYSIS
------------------------------------------------------------------------------
Input electron density              ... 36_Kr.mdcip
BaseName (.gbw .S,...)              ... 36_Kr

                    ********************************
                    * MULLIKEN POPULATION ANALYSIS *
                    ********************************

-----------------------
MULLIKEN ATOMIC CHARGES
-----------------------
   0 Kr:    0.000000
Sum of atomic charges:    0.0000000

--------------------------------
MULLIKEN REDUCED ORBITAL CHARGES
--------------------------------
  0 Krs       :     7.986377  s :     7.986377
      pz      :     5.965853  p :    17.897559
      px      :     5.965853
      py      :     5.965853
      dz2     :     2.018577  d :    10.092884
      dxz     :     2.018577
      dyz     :     2.018577
      dx2y2   :     2.018577
      dxy     :     2.018577
      f0      :     0.002687  f :     0.018808
      f+1     :     0.002687
      f-1     :     0.002687
      f+2     :     0.002687
      f-2     :     0.002687
      f+3     :     0.002687
      f-3     :     0.002687
      g0      :     0.000486  g :     0.004372
      g+1     :     0.000486
      g-1     :     0.000486
      g+2     :     0.000486
      g-2     :     0.000486
      g+3     :     0.000486
      g-3     :     0.000486
      g+4     :     0.000486
      g-4     :     0.000486


                     *******************************
                     * LOEWDIN POPULATION ANALYSIS *
                     *******************************

----------------------
LOEWDIN ATOMIC CHARGES
----------------------
   0 Kr:    0.000000

-------------------------------
LOEWDIN REDUCED ORBITAL CHARGES
-------------------------------
  0 Krs       :     7.986377  s :     7.986377
      pz      :     5.965853  p :    17.897559
      px      :     5.965853
      py      :     5.965853
      dz2     :     2.018577  d :    10.092884
      dxz     :     2.018577
      dyz     :     2.018577
      dx2y2   :     2.018577
      dxy     :     2.018577
      f0      :     0.002687  f :     0.018808
      f+1     :     0.002687
      f-1     :     0.002687
      f+2     :     0.002687
      f-2     :     0.002687
      f+3     :     0.002687
      f-3     :     0.002687
      g0      :     0.000486  g :     0.004372
      g+1     :     0.000486
      g-1     :     0.000486
      g+2     :     0.000486
      g-2     :     0.000486
      g+3     :     0.000486
      g-3     :     0.000486
      g+4     :     0.000486
      g-4     :     0.000486


                      *****************************
                      * MAYER POPULATION ANALYSIS *
                      *****************************

  NA   - Mulliken gross atomic population
  ZA   - Total nuclear charge
  QA   - Mulliken gross atomic charge
  VA   - Mayer's total valence
  BVA  - Mayer's bonded valence
  FA   - Mayer's free valence

  ATOM       NA         ZA         QA         VA         BVA        FA
  0 Kr    36.0000    36.0000     0.0000     0.6397     0.0000     0.6397





------------------------------------------------------------------------------- 
                                     TIMINGS                                   
------------------------------------------------------------------------------- 


Total execution time                   ...       21.004 sec

Fock Matrix Formation                  ...        2.911 sec ( 13.9%)
Initial Guess                          ...        0.006 sec (  0.0%)
DIIS Solver                            ...        0.063 sec (  0.3%)
State Vector Update                    ...        0.006 sec (  0.0%)
Sigma-vector construction              ...       11.510 sec ( 54.8%)
  <D|H|D>(0-ext)                       ...        0.007 sec (  0.1% of sigma)
  <D|H|D>(2-ext)                       ...        0.016 sec (  0.1% of sigma)
  <D|H|D>(4-ext)                       ...        0.095 sec (  0.8% of sigma)
  <D|H|D>(4-ext-corr)                  ...        0.083 sec (  0.7% of sigma)
  <S|H|0>                              ...        0.002 sec (  0.0% of sigma)
  <S|H|S>                              ...        0.002 sec (  0.0% of sigma)
  <S|H|D>(1-ext)                       ...        0.005 sec (  0.0% of sigma)
  <D|H|S>(1-ext)                       ...        0.004 sec (  0.0% of sigma)
  <S|H|D>(3-ext)                       ...        0.074 sec (  0.6% of sigma)
  Fock-dressing                        ...       10.975 sec ( 95.4% of sigma)
  (ik|jl)-dressing                     ...        0.009 sec (  0.1% of sigma)
  (ij|ab),(ia|jb)-dressing             ...        0.187 sec (  1.6% of sigma)
Total Time for computing (T)           ...        0.213 sec (  1.0% of ALL)
  I/O of integral and amplitudes       ...        0.075 sec ( 35.2% of (T))
  N**6 sorting step                    ...        0.053 sec ( 25.0% of (T))
  External N**7 contributions          ...        0.047 sec ( 22.0% of (T))
  Internal N**7 contributions          ...        0.018 sec (  8.5% of (T))
  N**6 triples energy contributions    ...        0.020 sec (  9.3% of (T))


-------------------------   --------------------
FINAL SINGLE POINT ENERGY     -2752.387081894075
-------------------------   --------------------


                            ***************************************
                            *     ORCA property calculations      *
                            ***************************************

                                    ---------------------
                                    Active property flags
                                    ---------------------
   (+) Dipole Moment


------------------------------------------------------------------------------
                       ORCA ELECTRIC PROPERTIES CALCULATION
------------------------------------------------------------------------------

Dipole Moment Calculation                       ... on
Quadrupole Moment Calculation                   ... off
Polarizability Calculation                      ... off
GBWName                                         ... 36_Kr.gbw
Electron density file                           ... 36_Kr.scfp
The origin for moment calculation is the CENTER OF MASS  = ( 0.000000,  0.000000  0.000000)

-------------
DIPOLE MOMENT
-------------
                                X             Y             Z
Electronic contribution:      0.00000      -0.00000      -0.00000
Nuclear contribution   :      0.00000       0.00000       0.00000
                        -----------------------------------------
Total Dipole Moment    :      0.00000      -0.00000      -0.00000
                        -----------------------------------------
Magnitude (a.u.)       :      0.00000
Magnitude (Debye)      :      0.00000



--------------------
Rotational spectrum 
--------------------
 
Rotational constants in cm-1:     0.000000     0.000000     0.000000 
Rotational constants in MHz :     0.000000     0.000000     0.000000 

 Dipole components along the rotational axes: 
x,y,z [a.u.] :     0.000000    -0.000000    -0.000000 
x,y,z [Debye]:     0.000000    -0.000000    -0.000000 

 

                           *** MDCI DENSITY ***

------------------------------------------------------------------------------
                       ORCA ELECTRIC PROPERTIES CALCULATION
------------------------------------------------------------------------------

Dipole Moment Calculation                       ... on
Quadrupole Moment Calculation                   ... off
Polarizability Calculation                      ... off
GBWName                                         ... 36_Kr.gbw
Electron density file                           ... 36_Kr.mdcip
The origin for moment calculation is the CENTER OF MASS  = ( 0.000000,  0.000000  0.000000)

-------------
DIPOLE MOMENT
-------------
                                X             Y             Z
Electronic contribution:     -0.00000       0.00000       0.00000
Nuclear contribution   :      0.00000       0.00000       0.00000
                        -----------------------------------------
Total Dipole Moment    :     -0.00000       0.00000       0.00000
                        -----------------------------------------
Magnitude (a.u.)       :      0.00000
Magnitude (Debye)      :      0.00000



--------------------
Rotational spectrum 
--------------------
 
Rotational constants in cm-1:     0.000000     0.000000     0.000000 
Rotational constants in MHz :     0.000000     0.000000     0.000000 

 Dipole components along the rotational axes: 
x,y,z [a.u.] :    -0.000000     0.000000     0.000000 
x,y,z [Debye]:    -0.000000     0.000000     0.000000 

 

Timings for individual modules:

Sum of individual times         ...       32.994 sec (=   0.550 min)
GTO integral calculation        ...        1.516 sec (=   0.025 min)   4.6 %
SCF iterations                  ...        9.941 sec (=   0.166 min)  30.1 %
MDCI module                     ...       21.537 sec (=   0.359 min)  65.3 %
                             ****ORCA TERMINATED NORMALLY****
TOTAL RUN TIME: 0 days 0 hours 0 minutes 33 seconds 637 msec
