
                                 *****************
                                 * O   R   C   A *
                                 *****************

           --- An Ab Initio, DFT and Semiempirical electronic structure package ---

                  #######################################################
                  #                        -***-                        #
                  #          Department of theory and spectroscopy      #
                  #               Directorship: Frank Neese             #
                  #        Max Planck Institute fuer Kohlenforschung    #
                  #                Kaiser Wilhelm Platz 1               #
                  #                 D-45470 Muelheim/Ruhr               #
                  #                      Germany                        #
                  #                                                     #
                  #                  All rights reserved                #
                  #                        -***-                        #
                  #######################################################


                         Program Version 4.2.0 -  RELEASE  -


 With contributions from (in alphabetic order):
   Daniel Aravena         : Magnetic Suceptibility
   Michael Atanasov       : Ab Initio Ligand Field Theory (pilot matlab implementation)
   Alexander A. Auer      : GIAO ZORA, VPT2
   Ute Becker             : Parallelization
   Giovanni Bistoni       : ED, misc. LED, open-shell LED, HFLED
   Martin Brehm           : Molecular dynamics
   Dmytro Bykov           : SCF Hessian
   Vijay G. Chilkuri      : MRCI spin determinant printing, contributions to CSF-ICE
   Dipayan Datta          : RHF DLPNO-CCSD density
   Achintya Kumar Dutta   : EOM-CC, STEOM-CC
   Dmitry Ganyushin       : Spin-Orbit,Spin-Spin,Magnetic field MRCI
   Miquel Garcia          : C-PCM Hessian, Gaussian charge scheme
   Yang Guo               : DLPNO-NEVPT2, CIM, IAO-localization
   Andreas Hansen         : Spin unrestricted coupled pair/coupled cluster methods
   Benjamin Helmich-Paris : CASSCF linear response (MC-RPA)
   Lee Huntington         : MR-EOM, pCC
   Robert Izsak           : Overlap fitted RIJCOSX, COSX-SCS-MP3, EOM
   Christian Kollmar      : KDIIS, OOCD, Brueckner-CCSD(T), CCSD density
   Simone Kossmann        : Meta GGA functionals, TD-DFT gradient, OOMP2, MP2 Hessian
   Martin Krupicka        : AUTO-CI
   Lucas Lang             : DCDCAS
   Dagmar Lenk            : GEPOL surface, SMD
   Dimitrios Liakos       : Extrapolation schemes; Compound Job, initial MDCI parallelization
   Dimitrios Manganas     : Further ROCIS development; embedding schemes
   Dimitrios Pantazis     : SARC Basis sets
   Taras Petrenko         : DFT Hessian,TD-DFT gradient, ASA, ECA, R-Raman, ABS, FL, XAS/XES, NRVS
   Peter Pinski           : DLPNO-MP2, DLPNO-MP2 Gradient
   Christoph Reimann      : Effective Core Potentials
   Marius Retegan         : Local ZFS, SOC
   Christoph Riplinger    : Optimizer, TS searches, QM/MM, DLPNO-CCSD(T), (RO)-DLPNO pert. Triples
   Tobias Risthaus        : Range-separated hybrids, TD-DFT gradient, RPA, STAB
   Michael Roemelt        : Original ROCIS implementation
   Masaaki Saitow         : Open-shell DLPNO-CCSD energy and density
   Barbara Sandhoefer     : DKH picture change effects
   Avijit Sen             : IP-ROCIS
   Kantharuban Sivalingam : CASSCF convergence, NEVPT2, FIC-MRCI
   Bernardo de Souza      : ESD, SOC TD-DFT
   Georgi Stoychev        : AutoAux, RI-MP2 NMR
   Willem Van den Heuvel  : Paramagnetic NMR
   Boris Wezisla          : Elementary symmetry handling
   Frank Wennmohs         : Technical directorship


 We gratefully acknowledge several colleagues who have allowed us to
 interface, adapt or use parts of their codes:
   Stefan Grimme, W. Hujo, H. Kruse,             : VdW corrections, initial TS optimization,
                  C. Bannwarth                     DFT functionals, gCP, sTDA/sTD-DF
   Ed Valeev, F. Pavosevic, A. Kumar             : LibInt (2-el integral package), F12 methods
   Garnet Chan, S. Sharma, J. Yang, R. Olivares  : DMRG
   Ulf Ekstrom                                   : XCFun DFT Library
   Mihaly Kallay                                 : mrcc  (arbitrary order and MRCC methods)
   Andreas Klamt, Michael Diedenhofen            : otool_cosmo (COSMO solvation model)
   Jiri Pittner, Ondrej Demel                    : Mk-CCSD
   Frank Weinhold                                : gennbo (NPA and NBO analysis)
   Christopher J. Cramer and Donald G. Truhlar   : smd solvation model
   Lars Goerigk                                  : TD-DFT with DH, B97 family of functionals
   V. Asgeirsson, H. Jonsson                     : NEB implementation
   FAccTs GmbH                                   : IRC, NEB, NEB-TS, Multilevel, MM, QM/MM, CI optimization
   S Lehtola, MJT Oliveira, MAL Marques          : LibXC Library


 Your calculation uses the libint2 library for the computation of 2-el integrals
 For citations please refer to: http://libint.valeyev.net

 Your ORCA version has been built with support for libXC version: 4.2.3
 For citations please refer to: https://tddft.org/programs/libxc/

 This ORCA versions uses:
   CBLAS   interface :  Fast vector & matrix operations
   LAPACKE interface :  Fast linear algebra routines
   SCALAPACK package :  Parallel linear algebra routines


----- Orbital basis set information -----
Your calculation utilizes the basis: def2-SVP
   F. Weigend and R. Ahlrichs, Phys. Chem. Chem. Phys. 7, 3297 (2005).

----- AuxJ basis set information -----
Your calculation utilizes the auxiliary basis: def2/J
   F. Weigend, Phys. Chem. Chem. Phys. 8, 1057 (2006).

================================================================================
                                        WARNINGS
                       Please study these warnings very carefully!
================================================================================


INFO   : the flag for use of LIBINT has been found!

================================================================================
                                       INPUT FILE
================================================================================
NAME = 38_Sr_atom38.inp
|  1> # input to generate an atomic fitting density for Sr
|  2> # this file is use internally by ORCA
|  3> #
|  4> # atomic ground state (S=1): 1s2 2s2 2p6 3s2 3p6 4s2 3d10 4p6 5s2 
|  5> #
|  6> ! RHF AllowRHF def2-SVP def2/J  NoMulliken NoLoewdin NoMayer NoPrintMOs 
|  7> 
|  8> %output print[p_atomdensfit] 2 end
|  9> 
| 10> %scf
| 11>   guess hcore
| 12>   maxiter 1000
| 13>   maxdisk 500000
| 14>   SCFMode Conventional
| 15>   lshift 1.000000
| 16>   hftyp rohf
| 17>   rohf_case sahf
| 18>   rohf_numop   2
| 19>   rohf_norb[1] 1
| 20>   rohf_nel[1]  2
| 21> end
| 22> 
| 23> %basis
| 24>   NewECP 38
| 25>     N_core 28
| 26>     lmax g
| 27>     s 2
| 28>       1       6.9334610000    135.2710429000  2
| 29>       2       4.1140038000     17.9440714000  2
| 30>     p 4
| 31>       1       7.2168166000     29.4380813000  2
| 32>       2       7.1736962000     58.8806749000  2
| 33>       3       3.0227988000      4.9362827000  2
| 34>       4       2.8656990000      9.7233521000  2
| 35>     d 4
| 36>       1       6.3215146000     11.9072392000  2
| 37>       2       6.3914995000     17.8595514000  2
| 38>       3       1.7697266000      2.1991802000  2
| 39>       4       1.6367717000      2.8935709000  2
| 40>     f 2
| 41>       1       4.2441984000     -5.5093333000  2
| 42>       2       4.2291645000     -7.3046417000  2
| 43>     g 1
| 44>       1       1.0000000000      0.0000000000  2
| 45>   end
| 46>   NewGTO 38
| 47>     s 11 
| 48>      1     608.8140000000      0.0000311510
| 49>      2      65.1516000000      0.0006099573
| 50>      3      35.9018000000     -0.0032547804
| 51>      4      21.2915000000      0.0194593461
| 52>      5      13.2866000000     -0.0949895447
| 53>      6       8.2782700000      0.2422103258
| 54>      7       3.4513000000     -0.4235083259
| 55>      8       2.0397800000     -0.2497237537
| 56>      9       0.8361070000      0.4522175188
| 57>     10       0.4564400000      0.6255669815
| 58>     11       0.2389060000      0.2498151970
| 59>     s 11 
| 60>      1     608.8140000000     -0.0000156193
| 61>      2      65.1516000000     -0.0002655283
| 62>      3      35.9018000000      0.0013050804
| 63>      4      21.2915000000     -0.0083754229
| 64>      5      13.2866000000      0.0444352108
| 65>      6       8.2782700000     -0.1194374177
| 66>      7       3.4513000000      0.2269260607
| 67>      8       2.0397800000      0.1248486420
| 68>      9       0.8361070000     -0.2620712510
| 69>     10       0.4564400000     -0.4909740225
| 70>     11       0.2389060000     -0.4406069437
| 71>     s 1 
| 72>      1       0.0766210000      1.0000000000
| 73>     s 1 
| 74>      1       0.0377960000      1.0000000000
| 75>     s 1 
| 76>      1       0.0179690000      1.0000000000
| 77>     s 1 
| 78>      1       0.0085000000      1.0000000000
| 79>     p 8 
| 80>      1     128.5760000000      0.0000442379
| 81>      2       8.0241500000      0.0292704372
| 82>      3       5.0158000000     -0.0767990800
| 83>      4       2.6892900000     -0.1074780935
| 84>      5       1.1674900000      0.2156006534
| 85>      6       0.6273460000      0.4455323896
| 86>      7       0.3316900000      0.3702102537
| 87>      8       0.1707680000      0.1275389953
| 88>     p 8 
| 89>      1     128.5760000000     -0.0000379861
| 90>      2       8.0241500000     -0.0231398867
| 91>      3       5.0158000000      0.0625916525
| 92>      4       2.6892900000      0.0825755245
| 93>      5       1.1674900000     -0.1929822232
| 94>      6       0.6273460000     -0.3660597122
| 95>      7       0.3316900000     -0.4602241731
| 96>      8       0.1707680000     -0.1203274108
| 97>     p 1 
| 98>      1       0.0730790000      1.0000000000
| 99>     p 1 
|100>      1       0.0341100000      1.0000000000
|101>     p 1 
|102>      1       0.0157510000      1.0000000000
|103>     p 1 
|104>      1       0.0073000000      1.0000000000
|105>   end
|106>   NewAuxGTO 38
|107>     S 1
|108>      1 1310.72 1.0
|109>     S 1
|110>      1  655.36 1.0
|111>     S 1
|112>      1  327.68 1.0
|113>     S 1
|114>      1  163.84 1.0
|115>     S 1
|116>      1   81.82 1.0
|117>     S 1
|118>      1   40.96 1.0
|119>     S 1
|120>      1   20.48 1.0
|121>     S 1
|122>      1   10.24 1.0
|123>     S 1
|124>      1    5.12 1.0
|125>     S 1
|126>      1    2.56 1.0
|127>     S 1
|128>      1    1.28 1.0
|129>     S 1
|130>      1    0.64 1.0
|131>     S 1
|132>      1    0.32 1.0
|133>     S 1
|134>      1    0.16 1.0
|135>     S 1
|136>      1    0.08 1.0
|137>     S 1
|138>      1    0.04 1.0
|139>     S 1
|140>      1    0.02 1.0
|141>     S 1
|142>      1    0.01 1.0
|143>   end
|144> end
|145> 
|146> * xyz 0 1
|147> 38  0.0 0.0 0.0
|148> *
|149> 
|150> 
|151>                          ****END OF INPUT****
================================================================================

                       ****************************
                       * Single Point Calculation *
                       ****************************

---------------------------------
CARTESIAN COORDINATES (ANGSTROEM)
---------------------------------
  Sr     0.000000    0.000000    0.000000

----------------------------
CARTESIAN COORDINATES (A.U.)
----------------------------
  NO LB      ZA    FRAG     MASS         X           Y           Z
   0 Sr   10.0000*   0    87.620    0.000000    0.000000    0.000000
* core charge reduced due to ECP

--------------------------------
INTERNAL COORDINATES (ANGSTROEM)
--------------------------------
 Sr     0   0   0     0.000000000000     0.00000000     0.00000000

---------------------------
INTERNAL COORDINATES (A.U.)
---------------------------
 Sr     0   0   0     0.000000000000     0.00000000     0.00000000

---------------------
BASIS SET INFORMATION
---------------------
There are 1 groups of distinct atoms

 Group   1 Type Sr  : 26s20p contracted to 6s6p pattern {11111111/881111}

Atom   0Sr   basis set group =>   1
---------------------------------
AUXILIARY/J BASIS SET INFORMATION
---------------------------------
There are 1 groups of distinct atoms

 Group   1 Type Sr  : 18s contracted to 18s pattern {111111111111111111}

Atom   0Sr   basis set group =>   1
-------------------------
ECP PARAMETER INFORMATION
-------------------------

 Group 1, Type Sr ECP (replacing 28 core electrons, lmax=4)

Atom   0Sr   ECP group =>   1

------------------------------------------------------------------------------
                           ORCA GTO INTEGRAL CALCULATION
------------------------------------------------------------------------------

                         BASIS SET STATISTICS AND STARTUP INFO

 # of primitive gaussian shells          ...   46
 # of primitive gaussian functions       ...   86
 # of contracted shells                  ...   12
 # of contracted basis functions         ...   24
 Highest angular momentum                ...    1
 Maximum contraction depth               ...   11
 Integral package used                   ... LIBINT
 Integral threshhold            Thresh   ...  1.000e-10
 Primitive cut-off              TCut     ...  1.000e-11
 Storage cut-off                TCutStore... -1.000e+00
 Buffer length                           ... 1048576 integrals/buffer
 Generate file with integrals 4 distinct ...false


------------------------------ INTEGRAL EVALUATION ----------------------------


 * One electron integrals 

   ECP integrals                         ... done
 Pre-screening matrix                    ... done
 Shell pair data                         ... done (   0.000 sec)
 Statistics run                          ... done
 Maximum amount of storage needed        ...     0 MB
 Maximum amount of storage dedicated     ... 500000 MB
 Beginning two electron integral evaluation:
 Starting repulsion integrals
  <ss|ss>  ...          231 b.         0 skpd (  0.0%)     0.001 s. (  0.006 ms/b)
  <ss|sp>  ...          756 b.         0 skpd (  0.0%)     0.005 s. (  0.007 ms/b)
  <ss|pp>  ...          441 b.         0 skpd (  0.0%)     0.011 s. (  0.024 ms/b)
  <sp|sp>  ...          666 b.         0 skpd (  0.0%)     0.012 s. (  0.018 ms/b)
  <sp|pp>  ...          756 b.         0 skpd (  0.0%)     0.018 s. (  0.023 ms/b)
  <pp|pp>  ...          231 b.         0 skpd (  0.0%)     0.012 s. (  0.053 ms/b)


                                      INTEGRAL STATISTICS

Integral type statistics:
 Number of integrals retained            ...      45150 
 One   Center Integrals retained         ...      45150 (100.0%)
 Two   Center Integrals retained         ...          0 (  0.0%)
 Three Center Integrals retained         ...          0 (  0.0%)
 Four  Center Integrals retained         ...          0 (  0.0%)

Storage statistics:
 Number of char integrals                ...          0 (  0.0%)
 Number of short int integrals           ...          0 (  0.0%)
 Number of double/float integrals        ...      45150 (100.0%)
 Amount of memory used                   ...          0 MB
 Amount of memory estimated              ...          0 MB ( 95.7%)

Prescreening statistics:
 Total number of shell quadruples        ...       3081 
 Number of skipped shell quadruples      ...          0 (  0.0%)
 # of negligible batches done            ...          0 (  0.0%)

Timings:
 Total evaluation time               ...     0.243 sec (   0.004 min)
 One electron matrix time            ...     0.010 sec (   0.000 min) =  4.1%
 Schwartz matrix evaluation time     ...     0.090 sec (   0.001 min) = 36.9%
 Statistics run                      ...     0.000 sec (   0.000 min) =  0.2%
 Repulsion integral time             ...     0.059 sec (   0.001 min) = 24.4%

-------------------------------------------------------------------------------
                                 ORCA SCF
-------------------------------------------------------------------------------

------------
SCF SETTINGS
------------
Hamiltonian:
 Ab initio Hamiltonian  Method          .... Hartree-Fock(GTOs)


General Settings:
 Integral files         IntName         .... 38_Sr_atom38
 Hartree-Fock type      HFTyp           .... ROHF
 Total Charge           Charge          ....    0
 Multiplicity           Mult            ....    1
 Number of Electrons    NEL             ....   10
 Basis Dimension        Dim             ....   24
 Nuclear Repulsion      ENuc            ....      0.0000000000 Eh

Convergence Acceleration:
 DIIS                   CNVDIIS         .... on
   Start iteration      DIISMaxIt       ....    12
   Startup error        DIISStart       ....  0.200000
   # of expansion vecs  DIISMaxEq       ....     5
   Bias factor          DIISBfac        ....   1.050
   Max. coefficient     DIISMaxC        ....  10.000
 Newton-Raphson         CNVNR           .... off
 SOSCF                  CNVSOSCF        .... off
 Level Shifting         CNVShift        .... on
   Level shift para.    LevelShift      ....    1.0000
   Turn off err/grad.   ShiftErr        ....    0.0010
 Zerner damping         CNVZerner       .... off
 Static damping         CNVDamp         .... on
   Fraction old density DampFac         ....    0.7000
   Max. Damping (<1)    DampMax         ....    0.9800
   Min. Damping (>=0)   DampMin         ....    0.0000
   Turn off err/grad.   DampErr         ....    0.1000
 Fernandez-Rico         CNVRico         .... off

SCF Procedure:
 Maximum # iterations   MaxIter         ....  1000
 SCF integral mode      SCFMode         .... Conventional
 Integral Threshold     Thresh          ....  1.000e-10 Eh
 Primitive CutOff       TCut            ....  1.000e-11 Eh
 Integral Buffer length BufferLength    .... 1048576
 Integral index format  IndFormat       ....     0
 Integral value format  ValFormat       ....     0
 Integral Storage       Thresh          ....  1.000e-10 Eh

Convergence Tolerance:
 Convergence Check Mode ConvCheckMode   .... Total+1el-Energy
 Convergence forced     ConvForced      .... 0
 Energy Change          TolE            ....  1.000e-06 Eh
 1-El. energy change                    ....  1.000e-03 Eh
 DIIS Error             TolErr          ....  1.000e-06


Diagonalization of the overlap matrix:
Smallest eigenvalue                        ... 5.157e-04
Time for diagonalization                   ...    0.004 sec
Threshold for overlap eigenvalues          ... 1.000e-08
Number of eigenvalues below threshold      ... 0
Time for construction of square roots      ...    0.012 sec
Total time needed                          ...    0.016 sec

--------------------
INITIAL GUESS: HCORE
--------------------
AVERAGE-CONFIGURATION (SAHF) CASE FOUND

-------------------
FINAL ROHF SETTINGS
-------------------
Number of operators             ... 2
  operator   0:   4 orbitals   8 electrons n(mue)= 2.000
  operator   1:   1 orbitals   2 electrons n(mue)= 2.000
Vector coupling coefficients a and b (Zerner convention):
   1.000    1.000           1.000    1.000 
   1.000    1.000           1.000    1.000 

                      -----------------
                      INTIAL GUESS DONE 
                      -----------------

 InCore treatment chosen:
   Memory dedicated               ...    1024 MB
   Memory needed                  ...      0 MB
   Number of tiny    integrals    ...       0
   Number of small   integrals    ...       0
   Number of regular integrals    ...   45150

--------------
SCF ITERATIONS
--------------
ITER       Energy         Delta-E        Max-DP      RMS-DP      [F,P]     Damp
  0    -29.5736561461   0.000000000000 2.36559583  0.17995091  0.5046853 0.7000
                            ****Activating DIIS****
  1    -29.8550254264  -0.281369280247 2.42272104  0.19297547  0.1293363 0.7000
  2    -30.0408279078  -0.185802481434 6.79774359  0.47572027  0.0950227 0.0000
  3    -30.2907106530  -0.249882745252 0.40250049  0.02059486  0.0572717 0.0000
  4    -30.3052370869  -0.014526433858 0.43105448  0.02475525  0.0444639 0.0000
  5    -30.3225909369  -0.017353849996 0.46740232  0.02146341  0.0273394 0.0000
  6    -30.3356782889  -0.013087351958 0.14983907  0.00955257  0.0164200 0.0000
  7    -30.3386593268  -0.002981037947 0.28144602  0.01079086  0.0095934 0.0000
  8    -30.3400461055  -0.001386778716 0.22901768  0.00784116  0.0083127 0.0000
  9    -30.3406860755  -0.000639969941 0.13032154  0.00462105  0.0063471 0.0000
 10    -30.3409904827  -0.000304407234 0.11655507  0.00415509  0.0041796 0.0000
 11    -30.3411779059  -0.000187423251 0.03688753  0.00139797  0.0017744 0.0000
 12    -30.3412186963  -0.000040790333 0.00922039  0.00048665  0.0012524 0.0000
 13    -30.3412363089  -0.000017612585 0.00617224  0.00044435  0.0008412 0.0000
 14    -30.3412466607  -0.000010351891 0.00890341  0.00044343  0.0005242 0.0000
 15    -30.3412505552  -0.000003894443 0.01328831  0.00058669  0.0003924 0.0000
 16    -30.3412532895  -0.000002734347 0.01054158  0.00046051  0.0002289 0.0000
 17    -30.3412542929  -0.000001003359 0.00218809  0.00010482  0.0000951 0.0000
                 **** Energy Check signals convergence ****

               *****************************************************
               *                     SUCCESS                       *
               *           SCF CONVERGED AFTER  18 CYCLES          *
               *****************************************************


----------------
TOTAL SCF ENERGY
----------------

Total Energy       :          -30.34125442 Eh            -825.62751 eV

Components:
Nuclear Repulsion  :            0.00000000 Eh               0.00000 eV
Electronic Energy  :          -30.34125442 Eh            -825.62751 eV
One Electron Energy:          -49.81812598 Eh           -1355.62013 eV
Two Electron Energy:           19.47687155 Eh             529.99262 eV

Virial components:
Potential Energy   :          -39.82688005 Eh           -1083.74450 eV
Kinetic Energy     :            9.48562562 Eh             258.11700 eV
Virial Ratio       :            4.19865612


---------------
SCF CONVERGENCE
---------------

  Last Energy change         ...   -1.3169e-07  Tolerance :   1.0000e-06
  Last MAX-Density change    ...    4.2089e-04  Tolerance :   1.0000e-05
  Last RMS-Density change    ...    2.7172e-05  Tolerance :   1.0000e-06
  Last DIIS Error            ...    5.5788e-05  Tolerance :   1.0000e-06

             **** THE GBW FILE WAS UPDATED (38_Sr_atom38.gbw) ****
             **** DENSITY FILE WAS UPDATED (38_Sr_atom38.scfp) ****
             **** ENERGY FILE WAS UPDATED (38_Sr_atom38.en.tmp) ****
             **** THE GBW FILE WAS UPDATED (38_Sr_atom38.gbw) ****
             **** DENSITY FILE WAS UPDATED (38_Sr_atom38.scfp) ****
----------------
ORBITAL ENERGIES
----------------

  NO   OCC          E(Eh)            E(eV) 
   0   2.0000      -1.934417       -52.6382 
   1   2.0000      -1.093026       -29.7427 
   2   2.0000      -1.093026       -29.7427 
   3   2.0000      -1.093026       -29.7427 
   4   2.0000      -0.218811        -5.9542 
   5   0.0000       0.009282         0.2526 
   6   0.0000       0.009282         0.2526 
   7   0.0000       0.009282         0.2526 
   8   0.0000       0.017821         0.4849 
   9   0.0000       0.031531         0.8580 
  10   0.0000       0.031531         0.8580 
  11   0.0000       0.031531         0.8580 
  12   0.0000       0.092684         2.5221 
  13   0.0000       0.103600         2.8191 
  14   0.0000       0.103600         2.8191 
  15   0.0000       0.103600         2.8191 
  16   0.0000       0.313237         8.5236 
  17   0.0000       0.313237         8.5236 
  18   0.0000       0.313237         8.5236 
  19   0.0000       0.335334         9.1249 
  20   0.0000       5.735133       156.0609 
  21   0.0000       5.735133       156.0609 
  22   0.0000       5.735133       156.0609 
  23   0.0000      30.321963       825.1026 
--------------------------
ATOM BASIS FOR ELEMENT Sr
--------------------------
 NewGTO Sr
 S 26
    1        608.814000000000         0.000030673996
    2         65.151600000000         0.000600617245
    3         35.901800000000        -0.003204941128
    4         21.291500000000         0.019161372190
    5         13.286600000000        -0.093535004251
    6          8.278270000000         0.238501446922
    7          3.451300000000        -0.417023296496
    8          2.039780000000        -0.245899824425
    9          0.836107000000         0.445292875937
   10          0.456440000000         0.615987901183
   11          0.238906000000         0.245989867487
   12        608.814000000000         0.000001301820
   13         65.151600000000         0.000022130957
   14         35.901800000000        -0.000108774387
   15         21.291500000000         0.000698065413
   16         13.286600000000        -0.003703536423
   17          8.278270000000         0.009954736768
   18          3.451300000000        -0.018913580380
   19          2.039780000000        -0.010405745460
   20          0.836107000000         0.021842822529
   21          0.456440000000         0.040921155598
   22          0.238906000000         0.036723216452
   23          0.076621000000        -0.040720388905
   24          0.037796000000        -0.096411939450
   25          0.017969000000        -0.032483892857
   26          0.008500000000        -0.000172810815
 S 26
    1        608.814000000000        -0.000004487064
    2         65.151600000000        -0.000087859700
    3         35.901800000000         0.000468826310
    4         21.291500000000        -0.002802970497
    5         13.286600000000         0.013682519957
    6          8.278270000000        -0.034888551439
    7          3.451300000000         0.061003146602
    8          2.039780000000         0.035970803465
    9          0.836107000000        -0.065138487033
   10          0.456440000000        -0.090108155962
   11          0.238906000000        -0.035983975176
   12        608.814000000000         0.000008902855
   13         65.151600000000         0.000151348650
   14         35.901800000000        -0.000743883633
   15         21.291500000000         0.004773912791
   16         13.286600000000        -0.025327654942
   17          8.278270000000         0.068078212034
   18          3.451300000000        -0.129345734142
   19          2.039780000000        -0.071162559321
   20          0.836107000000         0.149378164207
   21          0.456440000000         0.279850605035
   22          0.238906000000         0.251141840762
   23          0.076621000000        -0.341903961905
   24          0.037796000000        -0.638344037758
   25          0.017969000000        -0.228956510824
   26          0.008500000000         0.000292759014
 S 26
    1        608.814000000000         0.000000679235
    2         65.151600000000         0.000013299880
    3         35.901800000000        -0.000070969210
    4         21.291500000000         0.000424303407
    5         13.286600000000        -0.002071209753
    6          8.278270000000         0.005281301123
    7          3.451300000000        -0.009234432883
    8          2.039780000000        -0.005445128470
    9          0.836107000000         0.009860425570
   10          0.456440000000         0.013640242590
   11          0.238906000000         0.005447122356
   12        608.814000000000        -0.000002877653
   13         65.151600000000        -0.000048920130
   14         35.901800000000         0.000240444061
   15         21.291500000000        -0.001543062551
   16         13.286600000000         0.008186608673
   17          8.278270000000        -0.022004788140
   18          3.451300000000         0.041808170215
   19          2.039780000000         0.023001735718
   20          0.836107000000        -0.048283213644
   21          0.456440000000        -0.090455567070
   22          0.238906000000        -0.081176089001
   23          0.076621000000         0.441026491293
   24          0.037796000000        -1.138178850764
   25          0.017969000000         2.997155567833
   26          0.008500000000        -2.728641168088
 S 26
    1        608.814000000000        -0.000001197995
    2         65.151600000000        -0.000023457548
    3         35.901800000000         0.000125171330
    4         21.291500000000        -0.000748361464
    5         13.286600000000         0.003653078288
    6          8.278270000000        -0.009314849178
    7          3.451300000000         0.016287151130
    8          2.039780000000         0.009603798246
    9          0.836107000000        -0.017391240318
   10          0.456440000000        -0.024057859897
   11          0.238906000000        -0.009607314944
   12        608.814000000000        -0.000003118181
   13         65.151600000000        -0.000053009118
   14         35.901800000000         0.000260541573
   15         21.291500000000        -0.001672039407
   16         13.286600000000         0.008870886210
   17          8.278270000000        -0.023844057956
   18          3.451300000000         0.045302705361
   19          2.039780000000         0.024924335380
   20          0.836107000000        -0.052318965178
   21          0.456440000000        -0.098016293998
   22          0.238906000000        -0.087961190923
   23          0.076621000000        -1.230624655274
   24          0.037796000000         5.628706759654
   25          0.017969000000        -6.903229275452
   26          0.008500000000         2.718580227006
 S 26
    1        608.814000000000        -0.000013448784
    2         65.151600000000        -0.000263336145
    3         35.901800000000         0.001405182498
    4         21.291500000000        -0.008401160512
    5         13.286600000000         0.041009723958
    6          8.278270000000        -0.104569177925
    7          3.451300000000         0.182840749408
    8          2.039780000000         0.107812941279
    9          0.836107000000        -0.195235335356
   10          0.456440000000        -0.270075294174
   11          0.238906000000        -0.107852419987
   12        608.814000000000         0.000027522555
   13         65.151600000000         0.000467883788
   14         35.901800000000        -0.002299664333
   15         21.291500000000         0.014758218205
   16         13.286600000000        -0.078298677550
   17          8.278270000000         0.210459041095
   18          3.451300000000        -0.399863309624
   19          2.039780000000        -0.219994085466
   20          0.836107000000         0.461792169039
   21          0.456440000000         0.865138613744
   22          0.238906000000         0.776387472676
   23          0.076621000000        -6.207056976174
   24          0.037796000000         9.086501508831
   25          0.017969000000        -5.710650722350
   26          0.008500000000         1.648428398467
 S 26
    1        608.814000000000         0.000255767308
    2         65.151600000000         0.005008094018
    3         35.901800000000        -0.026723585815
    4         21.291500000000         0.159772224698
    5         13.286600000000        -0.779917824666
    6          8.278270000000         1.988683607297
    7          3.451300000000        -3.477242609246
    8          2.039780000000        -2.050373094935
    9          0.836107000000         3.712961301710
   10          0.456440000000         5.136258321218
   11          0.238906000000         2.051123896087
   12        608.814000000000        -0.000139802275
   13         65.151600000000        -0.002376640472
   14         35.901800000000         0.011681266733
   15         21.291500000000        -0.074965150726
   16         13.286600000000         0.397722278020
   17          8.278270000000        -1.069037841685
   18          3.451300000000         2.031126851403
   19          2.039780000000         1.117471604386
   20          0.836107000000        -2.345697771534
   21          0.456440000000        -4.394517391986
   22          0.238906000000        -3.943701272137
   23          0.076621000000         1.925160494756
   24          0.037796000000        -1.854852697322
   25          0.017969000000         1.003658055695
   26          0.008500000000        -0.284461169352
 P 20
    1        128.576000000000        -0.000044000655
    2          8.024150000000        -0.029113461982
    3          5.015800000000         0.076387212141
    4          2.689290000000         0.106901696331
    5          1.167490000000        -0.214444402836
    6          0.627346000000        -0.443143031921
    7          0.331690000000        -0.368224843137
    8          0.170768000000        -0.126855012979
    9        128.576000000000         0.000000000432
   10          8.024150000000         0.000000263180
   11          5.015800000000        -0.000000711882
   12          2.689290000000        -0.000000939167
   13          1.167490000000         0.000002194870
   14          0.627346000000         0.000004163355
   15          0.331690000000         0.000005234328
   16          0.170768000000         0.000001368536
   17          0.073079000000        -0.011601354178
   18          0.034110000000        -0.000353913755
   19          0.015751000000        -0.000211914545
   20          0.007300000000         0.000041812871
 P 20
    1        128.576000000000        -0.000001490066
    2          8.024150000000        -0.000985916656
    3          5.015800000000         0.002586824777
    4          2.689290000000         0.003620186534
    5          1.167490000000        -0.007262080641
    6          0.627346000000        -0.015006875398
    7          0.331690000000        -0.012469798556
    8          0.170768000000        -0.004295898246
    9        128.576000000000        -0.000002822731
   10          8.024150000000        -0.001719515272
   11          5.015800000000         0.004651159437
   12          2.689290000000         0.006136152581
   13          1.167490000000        -0.014340428040
   14          0.627346000000        -0.027201743632
   15          0.331690000000        -0.034199065215
   16          0.170768000000        -0.008941479413
   17          0.073079000000         0.025090662557
   18          0.034110000000         0.370964416827
   19          0.015751000000        -0.363574066026
   20          0.007300000000         1.094685766586
 P 20
    1        128.576000000000         0.000001749139
    2          8.024150000000         0.001157334686
    3          5.015800000000        -0.003036587343
    4          2.689290000000        -0.004249616250
    5          1.167490000000         0.008524714297
    6          0.627346000000         0.017616070599
    7          0.331690000000         0.014637880697
    8          0.170768000000         0.005042811696
    9        128.576000000000        -0.000008338045
   10          8.024150000000        -0.005079263523
   11          5.015800000000         0.013739025670
   12          2.689290000000         0.018125536002
   13          1.167490000000        -0.042360084971
   14          0.627346000000        -0.080351030557
   15          0.331690000000        -0.101020367343
   16          0.170768000000        -0.026412170310
   17          0.073079000000         0.300756880918
   18          0.034110000000        -0.469464211615
   19          0.015751000000         2.166286790698
   20          0.007300000000        -1.720844305742
 P 20
    1        128.576000000000        -0.000008157425
    2          8.024150000000        -0.005397439379
    3          5.015800000000         0.014161673630
    4          2.689290000000         0.019818853071
    5          1.167490000000        -0.039756545103
    6          0.627346000000        -0.082155727558
    7          0.331690000000        -0.068266400944
    8          0.170768000000        -0.023518063323
    9        128.576000000000        -0.000000321760
   10          8.024150000000        -0.000196005685
   11          5.015800000000         0.000530180630
   12          2.689290000000         0.000699453391
   13          1.167490000000        -0.001634649871
   14          0.627346000000        -0.003100697314
   15          0.331690000000        -0.003898314428
   16          0.170768000000        -0.001019229560
   17          0.073079000000        -0.418385591475
   18          0.034110000000         2.964713580446
   19          0.015751000000        -3.537942379595
   20          0.007300000000         1.394755873941
 P 20
    1        128.576000000000         0.000029345924
    2          8.024150000000         0.019417016562
    3          5.015800000000        -0.050945908260
    4          2.689290000000        -0.071297326628
    5          1.167490000000         0.143022170435
    6          0.627346000000         0.295551095763
    7          0.331690000000         0.245584942190
    8          0.170768000000         0.084605049360
    9        128.576000000000        -0.000050284976
   10          8.024150000000        -0.030631958491
   11          5.015800000000         0.082857142998
   12          2.689290000000         0.109311254270
   13          1.167490000000        -0.255464667013
   14          0.627346000000        -0.484579983240
   15          0.331690000000        -0.609232359243
   16          0.170768000000        -0.159286184099
   17          0.073079000000         3.049276335718
   18          0.034110000000        -4.176806615290
   19          0.015751000000         2.606056588165
   20          0.007300000000        -0.815339761549
 P 20
    1        128.576000000000        -0.001361923676
    2          8.024150000000        -0.901130058604
    3          5.015800000000         2.364363708963
    4          2.689290000000         3.308858697004
    5          1.167490000000        -6.637558165119
    6          0.627346000000       -13.716318126957
    7          0.331690000000       -11.397424142765
    8          0.170768000000        -3.926460733187
    9        128.576000000000         0.001188730911
   10          8.024150000000         0.724135896785
   11          5.015800000000        -1.958733117495
   12          2.689290000000        -2.584105197297
   13          1.167490000000         6.039154688711
   14          0.627346000000        11.455413823220
   15          0.331690000000        14.402181334364
   16          0.170768000000         3.765506662032
   17          0.073079000000        -1.795810232223
   18          0.034110000000         1.860998466544
   19          0.015751000000        -1.101385309150
   20          0.007300000000         0.356108017781
 end
  // -----------------------------------------------
  // The basis set
  // -----------------------------------------------
  BAS[ATNO] = new BFNGauss[NSH];
  // Basis function   1 L = s
  InitBFNGauss(BAS[ATNO][  0]);
  BAS[ATNO][  0].l  = 0;
  BAS[ATNO][  0].ng = 26;
  BAS[ATNO][  0].a[  0] =       608.814000000000;     BAS[ATNO][  0].d[  0] =         0.000030673996;
  BAS[ATNO][  0].a[  1] =        65.151600000000;     BAS[ATNO][  0].d[  1] =         0.000600617245;
  BAS[ATNO][  0].a[  2] =        35.901800000000;     BAS[ATNO][  0].d[  2] =        -0.003204941128;
  BAS[ATNO][  0].a[  3] =        21.291500000000;     BAS[ATNO][  0].d[  3] =         0.019161372190;
  BAS[ATNO][  0].a[  4] =        13.286600000000;     BAS[ATNO][  0].d[  4] =        -0.093535004251;
  BAS[ATNO][  0].a[  5] =         8.278270000000;     BAS[ATNO][  0].d[  5] =         0.238501446922;
  BAS[ATNO][  0].a[  6] =         3.451300000000;     BAS[ATNO][  0].d[  6] =        -0.417023296496;
  BAS[ATNO][  0].a[  7] =         2.039780000000;     BAS[ATNO][  0].d[  7] =        -0.245899824425;
  BAS[ATNO][  0].a[  8] =         0.836107000000;     BAS[ATNO][  0].d[  8] =         0.445292875937;
  BAS[ATNO][  0].a[  9] =         0.456440000000;     BAS[ATNO][  0].d[  9] =         0.615987901183;
  BAS[ATNO][  0].a[ 10] =         0.238906000000;     BAS[ATNO][  0].d[ 10] =         0.245989867487;
  BAS[ATNO][  0].a[ 11] =       608.814000000000;     BAS[ATNO][  0].d[ 11] =         0.000001301820;
  BAS[ATNO][  0].a[ 12] =        65.151600000000;     BAS[ATNO][  0].d[ 12] =         0.000022130957;
  BAS[ATNO][  0].a[ 13] =        35.901800000000;     BAS[ATNO][  0].d[ 13] =        -0.000108774387;
  BAS[ATNO][  0].a[ 14] =        21.291500000000;     BAS[ATNO][  0].d[ 14] =         0.000698065413;
  BAS[ATNO][  0].a[ 15] =        13.286600000000;     BAS[ATNO][  0].d[ 15] =        -0.003703536423;
  BAS[ATNO][  0].a[ 16] =         8.278270000000;     BAS[ATNO][  0].d[ 16] =         0.009954736768;
  BAS[ATNO][  0].a[ 17] =         3.451300000000;     BAS[ATNO][  0].d[ 17] =        -0.018913580380;
  BAS[ATNO][  0].a[ 18] =         2.039780000000;     BAS[ATNO][  0].d[ 18] =        -0.010405745460;
  BAS[ATNO][  0].a[ 19] =         0.836107000000;     BAS[ATNO][  0].d[ 19] =         0.021842822529;
  BAS[ATNO][  0].a[ 20] =         0.456440000000;     BAS[ATNO][  0].d[ 20] =         0.040921155598;
  BAS[ATNO][  0].a[ 21] =         0.238906000000;     BAS[ATNO][  0].d[ 21] =         0.036723216452;
  BAS[ATNO][  0].a[ 22] =         0.076621000000;     BAS[ATNO][  0].d[ 22] =        -0.040720388905;
  BAS[ATNO][  0].a[ 23] =         0.037796000000;     BAS[ATNO][  0].d[ 23] =        -0.096411939450;
  BAS[ATNO][  0].a[ 24] =         0.017969000000;     BAS[ATNO][  0].d[ 24] =        -0.032483892857;
  BAS[ATNO][  0].a[ 25] =         0.008500000000;     BAS[ATNO][  0].d[ 25] =        -0.000172810815;

  // Basis function   2 L = s
  InitBFNGauss(BAS[ATNO][  1]);
  BAS[ATNO][  1].l  = 0;
  BAS[ATNO][  1].ng = 26;
  BAS[ATNO][  1].a[  0] =       608.814000000000;     BAS[ATNO][  1].d[  0] =         0.000004487064;
  BAS[ATNO][  1].a[  1] =        65.151600000000;     BAS[ATNO][  1].d[  1] =         0.000087859700;
  BAS[ATNO][  1].a[  2] =        35.901800000000;     BAS[ATNO][  1].d[  2] =        -0.000468826310;
  BAS[ATNO][  1].a[  3] =        21.291500000000;     BAS[ATNO][  1].d[  3] =         0.002802970497;
  BAS[ATNO][  1].a[  4] =        13.286600000000;     BAS[ATNO][  1].d[  4] =        -0.013682519957;
  BAS[ATNO][  1].a[  5] =         8.278270000000;     BAS[ATNO][  1].d[  5] =         0.034888551439;
  BAS[ATNO][  1].a[  6] =         3.451300000000;     BAS[ATNO][  1].d[  6] =        -0.061003146602;
  BAS[ATNO][  1].a[  7] =         2.039780000000;     BAS[ATNO][  1].d[  7] =        -0.035970803465;
  BAS[ATNO][  1].a[  8] =         0.836107000000;     BAS[ATNO][  1].d[  8] =         0.065138487033;
  BAS[ATNO][  1].a[  9] =         0.456440000000;     BAS[ATNO][  1].d[  9] =         0.090108155962;
  BAS[ATNO][  1].a[ 10] =         0.238906000000;     BAS[ATNO][  1].d[ 10] =         0.035983975176;
  BAS[ATNO][  1].a[ 11] =       608.814000000000;     BAS[ATNO][  1].d[ 11] =        -0.000008902855;
  BAS[ATNO][  1].a[ 12] =        65.151600000000;     BAS[ATNO][  1].d[ 12] =        -0.000151348650;
  BAS[ATNO][  1].a[ 13] =        35.901800000000;     BAS[ATNO][  1].d[ 13] =         0.000743883633;
  BAS[ATNO][  1].a[ 14] =        21.291500000000;     BAS[ATNO][  1].d[ 14] =        -0.004773912791;
  BAS[ATNO][  1].a[ 15] =        13.286600000000;     BAS[ATNO][  1].d[ 15] =         0.025327654942;
  BAS[ATNO][  1].a[ 16] =         8.278270000000;     BAS[ATNO][  1].d[ 16] =        -0.068078212034;
  BAS[ATNO][  1].a[ 17] =         3.451300000000;     BAS[ATNO][  1].d[ 17] =         0.129345734142;
  BAS[ATNO][  1].a[ 18] =         2.039780000000;     BAS[ATNO][  1].d[ 18] =         0.071162559321;
  BAS[ATNO][  1].a[ 19] =         0.836107000000;     BAS[ATNO][  1].d[ 19] =        -0.149378164207;
  BAS[ATNO][  1].a[ 20] =         0.456440000000;     BAS[ATNO][  1].d[ 20] =        -0.279850605035;
  BAS[ATNO][  1].a[ 21] =         0.238906000000;     BAS[ATNO][  1].d[ 21] =        -0.251141840762;
  BAS[ATNO][  1].a[ 22] =         0.076621000000;     BAS[ATNO][  1].d[ 22] =         0.341903961905;
  BAS[ATNO][  1].a[ 23] =         0.037796000000;     BAS[ATNO][  1].d[ 23] =         0.638344037758;
  BAS[ATNO][  1].a[ 24] =         0.017969000000;     BAS[ATNO][  1].d[ 24] =         0.228956510824;
  BAS[ATNO][  1].a[ 25] =         0.008500000000;     BAS[ATNO][  1].d[ 25] =        -0.000292759014;

  // Basis function   3 L = s
  InitBFNGauss(BAS[ATNO][  2]);
  BAS[ATNO][  2].l  = 0;
  BAS[ATNO][  2].ng = 26;
  BAS[ATNO][  2].a[  0] =       608.814000000000;     BAS[ATNO][  2].d[  0] =         0.000000679235;
  BAS[ATNO][  2].a[  1] =        65.151600000000;     BAS[ATNO][  2].d[  1] =         0.000013299880;
  BAS[ATNO][  2].a[  2] =        35.901800000000;     BAS[ATNO][  2].d[  2] =        -0.000070969210;
  BAS[ATNO][  2].a[  3] =        21.291500000000;     BAS[ATNO][  2].d[  3] =         0.000424303407;
  BAS[ATNO][  2].a[  4] =        13.286600000000;     BAS[ATNO][  2].d[  4] =        -0.002071209753;
  BAS[ATNO][  2].a[  5] =         8.278270000000;     BAS[ATNO][  2].d[  5] =         0.005281301123;
  BAS[ATNO][  2].a[  6] =         3.451300000000;     BAS[ATNO][  2].d[  6] =        -0.009234432883;
  BAS[ATNO][  2].a[  7] =         2.039780000000;     BAS[ATNO][  2].d[  7] =        -0.005445128470;
  BAS[ATNO][  2].a[  8] =         0.836107000000;     BAS[ATNO][  2].d[  8] =         0.009860425570;
  BAS[ATNO][  2].a[  9] =         0.456440000000;     BAS[ATNO][  2].d[  9] =         0.013640242590;
  BAS[ATNO][  2].a[ 10] =         0.238906000000;     BAS[ATNO][  2].d[ 10] =         0.005447122356;
  BAS[ATNO][  2].a[ 11] =       608.814000000000;     BAS[ATNO][  2].d[ 11] =        -0.000002877653;
  BAS[ATNO][  2].a[ 12] =        65.151600000000;     BAS[ATNO][  2].d[ 12] =        -0.000048920130;
  BAS[ATNO][  2].a[ 13] =        35.901800000000;     BAS[ATNO][  2].d[ 13] =         0.000240444061;
  BAS[ATNO][  2].a[ 14] =        21.291500000000;     BAS[ATNO][  2].d[ 14] =        -0.001543062551;
  BAS[ATNO][  2].a[ 15] =        13.286600000000;     BAS[ATNO][  2].d[ 15] =         0.008186608673;
  BAS[ATNO][  2].a[ 16] =         8.278270000000;     BAS[ATNO][  2].d[ 16] =        -0.022004788140;
  BAS[ATNO][  2].a[ 17] =         3.451300000000;     BAS[ATNO][  2].d[ 17] =         0.041808170215;
  BAS[ATNO][  2].a[ 18] =         2.039780000000;     BAS[ATNO][  2].d[ 18] =         0.023001735718;
  BAS[ATNO][  2].a[ 19] =         0.836107000000;     BAS[ATNO][  2].d[ 19] =        -0.048283213644;
  BAS[ATNO][  2].a[ 20] =         0.456440000000;     BAS[ATNO][  2].d[ 20] =        -0.090455567070;
  BAS[ATNO][  2].a[ 21] =         0.238906000000;     BAS[ATNO][  2].d[ 21] =        -0.081176089001;
  BAS[ATNO][  2].a[ 22] =         0.076621000000;     BAS[ATNO][  2].d[ 22] =         0.441026491293;
  BAS[ATNO][  2].a[ 23] =         0.037796000000;     BAS[ATNO][  2].d[ 23] =        -1.138178850764;
  BAS[ATNO][  2].a[ 24] =         0.017969000000;     BAS[ATNO][  2].d[ 24] =         2.997155567833;
  BAS[ATNO][  2].a[ 25] =         0.008500000000;     BAS[ATNO][  2].d[ 25] =        -2.728641168088;

  // Basis function   4 L = s
  InitBFNGauss(BAS[ATNO][  3]);
  BAS[ATNO][  3].l  = 0;
  BAS[ATNO][  3].ng = 26;
  BAS[ATNO][  3].a[  0] =       608.814000000000;     BAS[ATNO][  3].d[  0] =         0.000001197995;
  BAS[ATNO][  3].a[  1] =        65.151600000000;     BAS[ATNO][  3].d[  1] =         0.000023457548;
  BAS[ATNO][  3].a[  2] =        35.901800000000;     BAS[ATNO][  3].d[  2] =        -0.000125171330;
  BAS[ATNO][  3].a[  3] =        21.291500000000;     BAS[ATNO][  3].d[  3] =         0.000748361464;
  BAS[ATNO][  3].a[  4] =        13.286600000000;     BAS[ATNO][  3].d[  4] =        -0.003653078288;
  BAS[ATNO][  3].a[  5] =         8.278270000000;     BAS[ATNO][  3].d[  5] =         0.009314849178;
  BAS[ATNO][  3].a[  6] =         3.451300000000;     BAS[ATNO][  3].d[  6] =        -0.016287151130;
  BAS[ATNO][  3].a[  7] =         2.039780000000;     BAS[ATNO][  3].d[  7] =        -0.009603798246;
  BAS[ATNO][  3].a[  8] =         0.836107000000;     BAS[ATNO][  3].d[  8] =         0.017391240318;
  BAS[ATNO][  3].a[  9] =         0.456440000000;     BAS[ATNO][  3].d[  9] =         0.024057859897;
  BAS[ATNO][  3].a[ 10] =         0.238906000000;     BAS[ATNO][  3].d[ 10] =         0.009607314944;
  BAS[ATNO][  3].a[ 11] =       608.814000000000;     BAS[ATNO][  3].d[ 11] =         0.000003118181;
  BAS[ATNO][  3].a[ 12] =        65.151600000000;     BAS[ATNO][  3].d[ 12] =         0.000053009118;
  BAS[ATNO][  3].a[ 13] =        35.901800000000;     BAS[ATNO][  3].d[ 13] =        -0.000260541573;
  BAS[ATNO][  3].a[ 14] =        21.291500000000;     BAS[ATNO][  3].d[ 14] =         0.001672039407;
  BAS[ATNO][  3].a[ 15] =        13.286600000000;     BAS[ATNO][  3].d[ 15] =        -0.008870886210;
  BAS[ATNO][  3].a[ 16] =         8.278270000000;     BAS[ATNO][  3].d[ 16] =         0.023844057956;
  BAS[ATNO][  3].a[ 17] =         3.451300000000;     BAS[ATNO][  3].d[ 17] =        -0.045302705361;
  BAS[ATNO][  3].a[ 18] =         2.039780000000;     BAS[ATNO][  3].d[ 18] =        -0.024924335380;
  BAS[ATNO][  3].a[ 19] =         0.836107000000;     BAS[ATNO][  3].d[ 19] =         0.052318965178;
  BAS[ATNO][  3].a[ 20] =         0.456440000000;     BAS[ATNO][  3].d[ 20] =         0.098016293998;
  BAS[ATNO][  3].a[ 21] =         0.238906000000;     BAS[ATNO][  3].d[ 21] =         0.087961190923;
  BAS[ATNO][  3].a[ 22] =         0.076621000000;     BAS[ATNO][  3].d[ 22] =         1.230624655274;
  BAS[ATNO][  3].a[ 23] =         0.037796000000;     BAS[ATNO][  3].d[ 23] =        -5.628706759654;
  BAS[ATNO][  3].a[ 24] =         0.017969000000;     BAS[ATNO][  3].d[ 24] =         6.903229275452;
  BAS[ATNO][  3].a[ 25] =         0.008500000000;     BAS[ATNO][  3].d[ 25] =        -2.718580227006;

  // Basis function   5 L = s
  InitBFNGauss(BAS[ATNO][  4]);
  BAS[ATNO][  4].l  = 0;
  BAS[ATNO][  4].ng = 26;
  BAS[ATNO][  4].a[  0] =       608.814000000000;     BAS[ATNO][  4].d[  0] =        -0.000013448784;
  BAS[ATNO][  4].a[  1] =        65.151600000000;     BAS[ATNO][  4].d[  1] =        -0.000263336145;
  BAS[ATNO][  4].a[  2] =        35.901800000000;     BAS[ATNO][  4].d[  2] =         0.001405182498;
  BAS[ATNO][  4].a[  3] =        21.291500000000;     BAS[ATNO][  4].d[  3] =        -0.008401160512;
  BAS[ATNO][  4].a[  4] =        13.286600000000;     BAS[ATNO][  4].d[  4] =         0.041009723958;
  BAS[ATNO][  4].a[  5] =         8.278270000000;     BAS[ATNO][  4].d[  5] =        -0.104569177925;
  BAS[ATNO][  4].a[  6] =         3.451300000000;     BAS[ATNO][  4].d[  6] =         0.182840749408;
  BAS[ATNO][  4].a[  7] =         2.039780000000;     BAS[ATNO][  4].d[  7] =         0.107812941279;
  BAS[ATNO][  4].a[  8] =         0.836107000000;     BAS[ATNO][  4].d[  8] =        -0.195235335356;
  BAS[ATNO][  4].a[  9] =         0.456440000000;     BAS[ATNO][  4].d[  9] =        -0.270075294174;
  BAS[ATNO][  4].a[ 10] =         0.238906000000;     BAS[ATNO][  4].d[ 10] =        -0.107852419987;
  BAS[ATNO][  4].a[ 11] =       608.814000000000;     BAS[ATNO][  4].d[ 11] =         0.000027522555;
  BAS[ATNO][  4].a[ 12] =        65.151600000000;     BAS[ATNO][  4].d[ 12] =         0.000467883788;
  BAS[ATNO][  4].a[ 13] =        35.901800000000;     BAS[ATNO][  4].d[ 13] =        -0.002299664333;
  BAS[ATNO][  4].a[ 14] =        21.291500000000;     BAS[ATNO][  4].d[ 14] =         0.014758218205;
  BAS[ATNO][  4].a[ 15] =        13.286600000000;     BAS[ATNO][  4].d[ 15] =        -0.078298677550;
  BAS[ATNO][  4].a[ 16] =         8.278270000000;     BAS[ATNO][  4].d[ 16] =         0.210459041095;
  BAS[ATNO][  4].a[ 17] =         3.451300000000;     BAS[ATNO][  4].d[ 17] =        -0.399863309624;
  BAS[ATNO][  4].a[ 18] =         2.039780000000;     BAS[ATNO][  4].d[ 18] =        -0.219994085466;
  BAS[ATNO][  4].a[ 19] =         0.836107000000;     BAS[ATNO][  4].d[ 19] =         0.461792169039;
  BAS[ATNO][  4].a[ 20] =         0.456440000000;     BAS[ATNO][  4].d[ 20] =         0.865138613744;
  BAS[ATNO][  4].a[ 21] =         0.238906000000;     BAS[ATNO][  4].d[ 21] =         0.776387472676;
  BAS[ATNO][  4].a[ 22] =         0.076621000000;     BAS[ATNO][  4].d[ 22] =        -6.207056976174;
  BAS[ATNO][  4].a[ 23] =         0.037796000000;     BAS[ATNO][  4].d[ 23] =         9.086501508831;
  BAS[ATNO][  4].a[ 24] =         0.017969000000;     BAS[ATNO][  4].d[ 24] =        -5.710650722350;
  BAS[ATNO][  4].a[ 25] =         0.008500000000;     BAS[ATNO][  4].d[ 25] =         1.648428398467;

  // Basis function   6 L = s
  InitBFNGauss(BAS[ATNO][  5]);
  BAS[ATNO][  5].l  = 0;
  BAS[ATNO][  5].ng = 26;
  BAS[ATNO][  5].a[  0] =       608.814000000000;     BAS[ATNO][  5].d[  0] =         0.000255767308;
  BAS[ATNO][  5].a[  1] =        65.151600000000;     BAS[ATNO][  5].d[  1] =         0.005008094018;
  BAS[ATNO][  5].a[  2] =        35.901800000000;     BAS[ATNO][  5].d[  2] =        -0.026723585815;
  BAS[ATNO][  5].a[  3] =        21.291500000000;     BAS[ATNO][  5].d[  3] =         0.159772224698;
  BAS[ATNO][  5].a[  4] =        13.286600000000;     BAS[ATNO][  5].d[  4] =        -0.779917824666;
  BAS[ATNO][  5].a[  5] =         8.278270000000;     BAS[ATNO][  5].d[  5] =         1.988683607297;
  BAS[ATNO][  5].a[  6] =         3.451300000000;     BAS[ATNO][  5].d[  6] =        -3.477242609246;
  BAS[ATNO][  5].a[  7] =         2.039780000000;     BAS[ATNO][  5].d[  7] =        -2.050373094935;
  BAS[ATNO][  5].a[  8] =         0.836107000000;     BAS[ATNO][  5].d[  8] =         3.712961301710;
  BAS[ATNO][  5].a[  9] =         0.456440000000;     BAS[ATNO][  5].d[  9] =         5.136258321218;
  BAS[ATNO][  5].a[ 10] =         0.238906000000;     BAS[ATNO][  5].d[ 10] =         2.051123896087;
  BAS[ATNO][  5].a[ 11] =       608.814000000000;     BAS[ATNO][  5].d[ 11] =        -0.000139802275;
  BAS[ATNO][  5].a[ 12] =        65.151600000000;     BAS[ATNO][  5].d[ 12] =        -0.002376640472;
  BAS[ATNO][  5].a[ 13] =        35.901800000000;     BAS[ATNO][  5].d[ 13] =         0.011681266733;
  BAS[ATNO][  5].a[ 14] =        21.291500000000;     BAS[ATNO][  5].d[ 14] =        -0.074965150726;
  BAS[ATNO][  5].a[ 15] =        13.286600000000;     BAS[ATNO][  5].d[ 15] =         0.397722278020;
  BAS[ATNO][  5].a[ 16] =         8.278270000000;     BAS[ATNO][  5].d[ 16] =        -1.069037841685;
  BAS[ATNO][  5].a[ 17] =         3.451300000000;     BAS[ATNO][  5].d[ 17] =         2.031126851403;
  BAS[ATNO][  5].a[ 18] =         2.039780000000;     BAS[ATNO][  5].d[ 18] =         1.117471604386;
  BAS[ATNO][  5].a[ 19] =         0.836107000000;     BAS[ATNO][  5].d[ 19] =        -2.345697771534;
  BAS[ATNO][  5].a[ 20] =         0.456440000000;     BAS[ATNO][  5].d[ 20] =        -4.394517391986;
  BAS[ATNO][  5].a[ 21] =         0.238906000000;     BAS[ATNO][  5].d[ 21] =        -3.943701272137;
  BAS[ATNO][  5].a[ 22] =         0.076621000000;     BAS[ATNO][  5].d[ 22] =         1.925160494756;
  BAS[ATNO][  5].a[ 23] =         0.037796000000;     BAS[ATNO][  5].d[ 23] =        -1.854852697322;
  BAS[ATNO][  5].a[ 24] =         0.017969000000;     BAS[ATNO][  5].d[ 24] =         1.003658055695;
  BAS[ATNO][  5].a[ 25] =         0.008500000000;     BAS[ATNO][  5].d[ 25] =        -0.284461169352;

  // Basis function   7 L = p
  InitBFNGauss(BAS[ATNO][  6]);
  BAS[ATNO][  6].l  = 1;
  BAS[ATNO][  6].ng = 20;
  BAS[ATNO][  6].a[  0] =       128.576000000000;     BAS[ATNO][  6].d[  0] =         0.000044000655;
  BAS[ATNO][  6].a[  1] =         8.024150000000;     BAS[ATNO][  6].d[  1] =         0.029113461982;
  BAS[ATNO][  6].a[  2] =         5.015800000000;     BAS[ATNO][  6].d[  2] =        -0.076387212141;
  BAS[ATNO][  6].a[  3] =         2.689290000000;     BAS[ATNO][  6].d[  3] =        -0.106901696331;
  BAS[ATNO][  6].a[  4] =         1.167490000000;     BAS[ATNO][  6].d[  4] =         0.214444402836;
  BAS[ATNO][  6].a[  5] =         0.627346000000;     BAS[ATNO][  6].d[  5] =         0.443143031921;
  BAS[ATNO][  6].a[  6] =         0.331690000000;     BAS[ATNO][  6].d[  6] =         0.368224843137;
  BAS[ATNO][  6].a[  7] =         0.170768000000;     BAS[ATNO][  6].d[  7] =         0.126855012979;
  BAS[ATNO][  6].a[  8] =       128.576000000000;     BAS[ATNO][  6].d[  8] =        -0.000000000432;
  BAS[ATNO][  6].a[  9] =         8.024150000000;     BAS[ATNO][  6].d[  9] =        -0.000000263180;
  BAS[ATNO][  6].a[ 10] =         5.015800000000;     BAS[ATNO][  6].d[ 10] =         0.000000711882;
  BAS[ATNO][  6].a[ 11] =         2.689290000000;     BAS[ATNO][  6].d[ 11] =         0.000000939167;
  BAS[ATNO][  6].a[ 12] =         1.167490000000;     BAS[ATNO][  6].d[ 12] =        -0.000002194870;
  BAS[ATNO][  6].a[ 13] =         0.627346000000;     BAS[ATNO][  6].d[ 13] =        -0.000004163355;
  BAS[ATNO][  6].a[ 14] =         0.331690000000;     BAS[ATNO][  6].d[ 14] =        -0.000005234328;
  BAS[ATNO][  6].a[ 15] =         0.170768000000;     BAS[ATNO][  6].d[ 15] =        -0.000001368536;
  BAS[ATNO][  6].a[ 16] =         0.073079000000;     BAS[ATNO][  6].d[ 16] =         0.011601354178;
  BAS[ATNO][  6].a[ 17] =         0.034110000000;     BAS[ATNO][  6].d[ 17] =         0.000353913755;
  BAS[ATNO][  6].a[ 18] =         0.015751000000;     BAS[ATNO][  6].d[ 18] =         0.000211914545;
  BAS[ATNO][  6].a[ 19] =         0.007300000000;     BAS[ATNO][  6].d[ 19] =        -0.000041812871;

  // Basis function   8 L = p
  InitBFNGauss(BAS[ATNO][  7]);
  BAS[ATNO][  7].l  = 1;
  BAS[ATNO][  7].ng = 20;
  BAS[ATNO][  7].a[  0] =       128.576000000000;     BAS[ATNO][  7].d[  0] =        -0.000001490066;
  BAS[ATNO][  7].a[  1] =         8.024150000000;     BAS[ATNO][  7].d[  1] =        -0.000985916656;
  BAS[ATNO][  7].a[  2] =         5.015800000000;     BAS[ATNO][  7].d[  2] =         0.002586824777;
  BAS[ATNO][  7].a[  3] =         2.689290000000;     BAS[ATNO][  7].d[  3] =         0.003620186534;
  BAS[ATNO][  7].a[  4] =         1.167490000000;     BAS[ATNO][  7].d[  4] =        -0.007262080641;
  BAS[ATNO][  7].a[  5] =         0.627346000000;     BAS[ATNO][  7].d[  5] =        -0.015006875398;
  BAS[ATNO][  7].a[  6] =         0.331690000000;     BAS[ATNO][  7].d[  6] =        -0.012469798556;
  BAS[ATNO][  7].a[  7] =         0.170768000000;     BAS[ATNO][  7].d[  7] =        -0.004295898246;
  BAS[ATNO][  7].a[  8] =       128.576000000000;     BAS[ATNO][  7].d[  8] =        -0.000002822731;
  BAS[ATNO][  7].a[  9] =         8.024150000000;     BAS[ATNO][  7].d[  9] =        -0.001719515272;
  BAS[ATNO][  7].a[ 10] =         5.015800000000;     BAS[ATNO][  7].d[ 10] =         0.004651159437;
  BAS[ATNO][  7].a[ 11] =         2.689290000000;     BAS[ATNO][  7].d[ 11] =         0.006136152581;
  BAS[ATNO][  7].a[ 12] =         1.167490000000;     BAS[ATNO][  7].d[ 12] =        -0.014340428040;
  BAS[ATNO][  7].a[ 13] =         0.627346000000;     BAS[ATNO][  7].d[ 13] =        -0.027201743632;
  BAS[ATNO][  7].a[ 14] =         0.331690000000;     BAS[ATNO][  7].d[ 14] =        -0.034199065215;
  BAS[ATNO][  7].a[ 15] =         0.170768000000;     BAS[ATNO][  7].d[ 15] =        -0.008941479413;
  BAS[ATNO][  7].a[ 16] =         0.073079000000;     BAS[ATNO][  7].d[ 16] =         0.025090662557;
  BAS[ATNO][  7].a[ 17] =         0.034110000000;     BAS[ATNO][  7].d[ 17] =         0.370964416827;
  BAS[ATNO][  7].a[ 18] =         0.015751000000;     BAS[ATNO][  7].d[ 18] =        -0.363574066026;
  BAS[ATNO][  7].a[ 19] =         0.007300000000;     BAS[ATNO][  7].d[ 19] =         1.094685766586;

  // Basis function   9 L = p
  InitBFNGauss(BAS[ATNO][  8]);
  BAS[ATNO][  8].l  = 1;
  BAS[ATNO][  8].ng = 20;
  BAS[ATNO][  8].a[  0] =       128.576000000000;     BAS[ATNO][  8].d[  0] =         0.000001749139;
  BAS[ATNO][  8].a[  1] =         8.024150000000;     BAS[ATNO][  8].d[  1] =         0.001157334686;
  BAS[ATNO][  8].a[  2] =         5.015800000000;     BAS[ATNO][  8].d[  2] =        -0.003036587343;
  BAS[ATNO][  8].a[  3] =         2.689290000000;     BAS[ATNO][  8].d[  3] =        -0.004249616250;
  BAS[ATNO][  8].a[  4] =         1.167490000000;     BAS[ATNO][  8].d[  4] =         0.008524714297;
  BAS[ATNO][  8].a[  5] =         0.627346000000;     BAS[ATNO][  8].d[  5] =         0.017616070599;
  BAS[ATNO][  8].a[  6] =         0.331690000000;     BAS[ATNO][  8].d[  6] =         0.014637880697;
  BAS[ATNO][  8].a[  7] =         0.170768000000;     BAS[ATNO][  8].d[  7] =         0.005042811696;
  BAS[ATNO][  8].a[  8] =       128.576000000000;     BAS[ATNO][  8].d[  8] =        -0.000008338045;
  BAS[ATNO][  8].a[  9] =         8.024150000000;     BAS[ATNO][  8].d[  9] =        -0.005079263523;
  BAS[ATNO][  8].a[ 10] =         5.015800000000;     BAS[ATNO][  8].d[ 10] =         0.013739025670;
  BAS[ATNO][  8].a[ 11] =         2.689290000000;     BAS[ATNO][  8].d[ 11] =         0.018125536002;
  BAS[ATNO][  8].a[ 12] =         1.167490000000;     BAS[ATNO][  8].d[ 12] =        -0.042360084971;
  BAS[ATNO][  8].a[ 13] =         0.627346000000;     BAS[ATNO][  8].d[ 13] =        -0.080351030557;
  BAS[ATNO][  8].a[ 14] =         0.331690000000;     BAS[ATNO][  8].d[ 14] =        -0.101020367343;
  BAS[ATNO][  8].a[ 15] =         0.170768000000;     BAS[ATNO][  8].d[ 15] =        -0.026412170310;
  BAS[ATNO][  8].a[ 16] =         0.073079000000;     BAS[ATNO][  8].d[ 16] =         0.300756880918;
  BAS[ATNO][  8].a[ 17] =         0.034110000000;     BAS[ATNO][  8].d[ 17] =        -0.469464211615;
  BAS[ATNO][  8].a[ 18] =         0.015751000000;     BAS[ATNO][  8].d[ 18] =         2.166286790698;
  BAS[ATNO][  8].a[ 19] =         0.007300000000;     BAS[ATNO][  8].d[ 19] =        -1.720844305742;

  // Basis function  10 L = p
  InitBFNGauss(BAS[ATNO][  9]);
  BAS[ATNO][  9].l  = 1;
  BAS[ATNO][  9].ng = 20;
  BAS[ATNO][  9].a[  0] =       128.576000000000;     BAS[ATNO][  9].d[  0] =         0.000008157425;
  BAS[ATNO][  9].a[  1] =         8.024150000000;     BAS[ATNO][  9].d[  1] =         0.005397439379;
  BAS[ATNO][  9].a[  2] =         5.015800000000;     BAS[ATNO][  9].d[  2] =        -0.014161673630;
  BAS[ATNO][  9].a[  3] =         2.689290000000;     BAS[ATNO][  9].d[  3] =        -0.019818853071;
  BAS[ATNO][  9].a[  4] =         1.167490000000;     BAS[ATNO][  9].d[  4] =         0.039756545103;
  BAS[ATNO][  9].a[  5] =         0.627346000000;     BAS[ATNO][  9].d[  5] =         0.082155727558;
  BAS[ATNO][  9].a[  6] =         0.331690000000;     BAS[ATNO][  9].d[  6] =         0.068266400944;
  BAS[ATNO][  9].a[  7] =         0.170768000000;     BAS[ATNO][  9].d[  7] =         0.023518063323;
  BAS[ATNO][  9].a[  8] =       128.576000000000;     BAS[ATNO][  9].d[  8] =         0.000000321760;
  BAS[ATNO][  9].a[  9] =         8.024150000000;     BAS[ATNO][  9].d[  9] =         0.000196005685;
  BAS[ATNO][  9].a[ 10] =         5.015800000000;     BAS[ATNO][  9].d[ 10] =        -0.000530180630;
  BAS[ATNO][  9].a[ 11] =         2.689290000000;     BAS[ATNO][  9].d[ 11] =        -0.000699453391;
  BAS[ATNO][  9].a[ 12] =         1.167490000000;     BAS[ATNO][  9].d[ 12] =         0.001634649871;
  BAS[ATNO][  9].a[ 13] =         0.627346000000;     BAS[ATNO][  9].d[ 13] =         0.003100697314;
  BAS[ATNO][  9].a[ 14] =         0.331690000000;     BAS[ATNO][  9].d[ 14] =         0.003898314428;
  BAS[ATNO][  9].a[ 15] =         0.170768000000;     BAS[ATNO][  9].d[ 15] =         0.001019229560;
  BAS[ATNO][  9].a[ 16] =         0.073079000000;     BAS[ATNO][  9].d[ 16] =         0.418385591475;
  BAS[ATNO][  9].a[ 17] =         0.034110000000;     BAS[ATNO][  9].d[ 17] =        -2.964713580446;
  BAS[ATNO][  9].a[ 18] =         0.015751000000;     BAS[ATNO][  9].d[ 18] =         3.537942379595;
  BAS[ATNO][  9].a[ 19] =         0.007300000000;     BAS[ATNO][  9].d[ 19] =        -1.394755873941;

  // Basis function  11 L = p
  InitBFNGauss(BAS[ATNO][ 10]);
  BAS[ATNO][ 10].l  = 1;
  BAS[ATNO][ 10].ng = 20;
  BAS[ATNO][ 10].a[  0] =       128.576000000000;     BAS[ATNO][ 10].d[  0] =        -0.000029345924;
  BAS[ATNO][ 10].a[  1] =         8.024150000000;     BAS[ATNO][ 10].d[  1] =        -0.019417016562;
  BAS[ATNO][ 10].a[  2] =         5.015800000000;     BAS[ATNO][ 10].d[  2] =         0.050945908260;
  BAS[ATNO][ 10].a[  3] =         2.689290000000;     BAS[ATNO][ 10].d[  3] =         0.071297326628;
  BAS[ATNO][ 10].a[  4] =         1.167490000000;     BAS[ATNO][ 10].d[  4] =        -0.143022170435;
  BAS[ATNO][ 10].a[  5] =         0.627346000000;     BAS[ATNO][ 10].d[  5] =        -0.295551095763;
  BAS[ATNO][ 10].a[  6] =         0.331690000000;     BAS[ATNO][ 10].d[  6] =        -0.245584942190;
  BAS[ATNO][ 10].a[  7] =         0.170768000000;     BAS[ATNO][ 10].d[  7] =        -0.084605049360;
  BAS[ATNO][ 10].a[  8] =       128.576000000000;     BAS[ATNO][ 10].d[  8] =         0.000050284976;
  BAS[ATNO][ 10].a[  9] =         8.024150000000;     BAS[ATNO][ 10].d[  9] =         0.030631958491;
  BAS[ATNO][ 10].a[ 10] =         5.015800000000;     BAS[ATNO][ 10].d[ 10] =        -0.082857142998;
  BAS[ATNO][ 10].a[ 11] =         2.689290000000;     BAS[ATNO][ 10].d[ 11] =        -0.109311254270;
  BAS[ATNO][ 10].a[ 12] =         1.167490000000;     BAS[ATNO][ 10].d[ 12] =         0.255464667013;
  BAS[ATNO][ 10].a[ 13] =         0.627346000000;     BAS[ATNO][ 10].d[ 13] =         0.484579983240;
  BAS[ATNO][ 10].a[ 14] =         0.331690000000;     BAS[ATNO][ 10].d[ 14] =         0.609232359243;
  BAS[ATNO][ 10].a[ 15] =         0.170768000000;     BAS[ATNO][ 10].d[ 15] =         0.159286184099;
  BAS[ATNO][ 10].a[ 16] =         0.073079000000;     BAS[ATNO][ 10].d[ 16] =        -3.049276335718;
  BAS[ATNO][ 10].a[ 17] =         0.034110000000;     BAS[ATNO][ 10].d[ 17] =         4.176806615290;
  BAS[ATNO][ 10].a[ 18] =         0.015751000000;     BAS[ATNO][ 10].d[ 18] =        -2.606056588165;
  BAS[ATNO][ 10].a[ 19] =         0.007300000000;     BAS[ATNO][ 10].d[ 19] =         0.815339761549;

  // Basis function  12 L = p
  InitBFNGauss(BAS[ATNO][ 11]);
  BAS[ATNO][ 11].l  = 1;
  BAS[ATNO][ 11].ng = 20;
  BAS[ATNO][ 11].a[  0] =       128.576000000000;     BAS[ATNO][ 11].d[  0] =        -0.001361923676;
  BAS[ATNO][ 11].a[  1] =         8.024150000000;     BAS[ATNO][ 11].d[  1] =        -0.901130058604;
  BAS[ATNO][ 11].a[  2] =         5.015800000000;     BAS[ATNO][ 11].d[  2] =         2.364363708963;
  BAS[ATNO][ 11].a[  3] =         2.689290000000;     BAS[ATNO][ 11].d[  3] =         3.308858697004;
  BAS[ATNO][ 11].a[  4] =         1.167490000000;     BAS[ATNO][ 11].d[  4] =        -6.637558165119;
  BAS[ATNO][ 11].a[  5] =         0.627346000000;     BAS[ATNO][ 11].d[  5] =       -13.716318126957;
  BAS[ATNO][ 11].a[  6] =         0.331690000000;     BAS[ATNO][ 11].d[  6] =       -11.397424142765;
  BAS[ATNO][ 11].a[  7] =         0.170768000000;     BAS[ATNO][ 11].d[  7] =        -3.926460733187;
  BAS[ATNO][ 11].a[  8] =       128.576000000000;     BAS[ATNO][ 11].d[  8] =         0.001188730911;
  BAS[ATNO][ 11].a[  9] =         8.024150000000;     BAS[ATNO][ 11].d[  9] =         0.724135896785;
  BAS[ATNO][ 11].a[ 10] =         5.015800000000;     BAS[ATNO][ 11].d[ 10] =        -1.958733117495;
  BAS[ATNO][ 11].a[ 11] =         2.689290000000;     BAS[ATNO][ 11].d[ 11] =        -2.584105197297;
  BAS[ATNO][ 11].a[ 12] =         1.167490000000;     BAS[ATNO][ 11].d[ 12] =         6.039154688711;
  BAS[ATNO][ 11].a[ 13] =         0.627346000000;     BAS[ATNO][ 11].d[ 13] =        11.455413823220;
  BAS[ATNO][ 11].a[ 14] =         0.331690000000;     BAS[ATNO][ 11].d[ 14] =        14.402181334364;
  BAS[ATNO][ 11].a[ 15] =         0.170768000000;     BAS[ATNO][ 11].d[ 15] =         3.765506662032;
  BAS[ATNO][ 11].a[ 16] =         0.073079000000;     BAS[ATNO][ 11].d[ 16] =        -1.795810232223;
  BAS[ATNO][ 11].a[ 17] =         0.034110000000;     BAS[ATNO][ 11].d[ 17] =         1.860998466544;
  BAS[ATNO][ 11].a[ 18] =         0.015751000000;     BAS[ATNO][ 11].d[ 18] =        -1.101385309150;
  BAS[ATNO][ 11].a[ 19] =         0.007300000000;     BAS[ATNO][ 11].d[ 19] =         0.356108017781;

-------------------------------------------
RADIAL EXPECTATION VALUES <R**-3> TO <R**3>
-------------------------------------------
   0 :     0.000000     0.727761     0.810232     1.390632     2.329941     5.596243
   1 :     0.000000     0.073192     0.250073     4.565716    23.619447   137.731264
   2 :     0.000000     0.009980     0.083003    13.449487   191.638577  2858.662978
   3 :     0.000000     0.028333     0.132424     9.896801   118.391647  1643.174259
   4 :     0.000000     0.133620     0.276989     5.818570    49.793275   574.830348
   5 :     0.000000     8.383400     2.332130     0.722456     1.829174    16.160234
   6 :     0.536947     0.578699     0.713529     1.588029     2.850887     5.772207
   7 :     0.536947     0.578699     0.713529     1.588029     2.850887     5.772207
   8 :     0.536947     0.578699     0.713529     1.588029     2.850887     5.772207
   9 :     0.005295     0.016284     0.105369    11.839337   162.644170  2482.545537
  10 :     0.005295     0.016284     0.105369    11.839337   162.644170  2482.545537
  11 :     0.005295     0.016284     0.105369    11.839337   162.644170  2482.545537
  12 :     0.011320     0.025287     0.121426    12.012104   183.230820  3181.737145
  13 :     0.011320     0.025287     0.121426    12.012104   183.230820  3181.737145
  14 :     0.011320     0.025287     0.121426    12.012104   183.230820  3181.737145
  15 :     0.015685     0.034407     0.146531     9.581546   118.878594  1783.882849
  16 :     0.015685     0.034407     0.146531     9.581546   118.878594  1783.882849
  17 :     0.015685     0.034407     0.146531     9.581546   118.878594  1783.882849
  18 :     0.087985     0.114756     0.259005     6.015324    53.254404   652.239901
  19 :     0.087985     0.114756     0.259005     6.015324    53.254404   652.239901
  20 :     0.087985     0.114756     0.259005     6.015324    53.254404   652.239901
  21 :     2.595033     1.031219     0.725340     2.570378    12.740114   123.768018
  22 :     2.595033     1.031219     0.725340     2.570378    12.740114   123.768018
  23 :     2.595033     1.031219     0.725340     2.570378    12.740114   123.768018
Making the total density                ... o.k.
o.k.
Initializing the integrals              ... done
Making exponents                        ... done
Making rho(0)                           ... done (         0.000234323)
Integral calculation                    ... Two index integrals                     ... done
Solving the equation system             ... done
atomic density will be written to file 38_Sr_atom38.adf

-------
TIMINGS
-------

Total SCF time: 0 days 0 hours 0 min 0 sec 

Total time                  ....       0.526 sec
Sum of individual times     ....       0.172 sec  ( 32.7%)

Fock matrix formation       ....       0.130 sec  ( 24.8%)
Diagonalization             ....       0.039 sec  (  7.4%)
Density matrix formation    ....       0.000 sec  (  0.0%)
Population analysis         ....       0.000 sec  (  0.0%)
Initial guess               ....       0.000 sec  (  0.0%)
Orbital Transformation      ....       0.000 sec  (  0.0%)
Orbital Orthonormalization  ....       0.000 sec  (  0.0%)
DIIS solution               ....       0.002 sec  (  0.4%)

-------------------------   --------------------
FINAL SINGLE POINT ENERGY       -30.341254424586
-------------------------   --------------------


                            ***************************************
                            *     ORCA property calculations      *
                            ***************************************

                                    ---------------------
                                    Active property flags
                                    ---------------------
   (+) Dipole Moment


------------------------------------------------------------------------------
                       ORCA ELECTRIC PROPERTIES CALCULATION
------------------------------------------------------------------------------

Dipole Moment Calculation                       ... on
Quadrupole Moment Calculation                   ... off
Polarizability Calculation                      ... off
GBWName                                         ... 38_Sr_atom38.gbw
Electron density file                           ... 38_Sr_atom38.scfp
The origin for moment calculation is the CENTER OF MASS  = ( 0.000000,  0.000000  0.000000)

-------------
DIPOLE MOMENT
-------------
                                X             Y             Z
Electronic contribution:     -0.00000       0.00000       0.00000
Nuclear contribution   :      0.00000       0.00000       0.00000
                        -----------------------------------------
Total Dipole Moment    :     -0.00000       0.00000       0.00000
                        -----------------------------------------
Magnitude (a.u.)       :      0.00000
Magnitude (Debye)      :      0.00000



--------------------
Rotational spectrum 
--------------------
 
Rotational constants in cm-1:     0.000000     0.000000     0.000000 
Rotational constants in MHz :     0.000000     0.000000     0.000000 

 Dipole components along the rotational axes: 
x,y,z [a.u.] :    -0.000000     0.000000     0.000000 
x,y,z [Debye]:    -0.000000     0.000000     0.000000 

 

Timings for individual modules:

Sum of individual times         ...        1.110 sec (=   0.018 min)
GTO integral calculation        ...        0.431 sec (=   0.007 min)  38.8 %
SCF iterations                  ...        0.679 sec (=   0.011 min)  61.2 %
                             ****ORCA TERMINATED NORMALLY****
TOTAL RUN TIME: 0 days 0 hours 0 minutes 1 seconds 356 msec
