
                                 *****************
                                 * O   R   C   A *
                                 *****************

           --- An Ab Initio, DFT and Semiempirical electronic structure package ---

                  #######################################################
                  #                        -***-                        #
                  #          Department of theory and spectroscopy      #
                  #               Directorship: Frank Neese             #
                  #        Max Planck Institute fuer Kohlenforschung    #
                  #                Kaiser Wilhelm Platz 1               #
                  #                 D-45470 Muelheim/Ruhr               #
                  #                      Germany                        #
                  #                                                     #
                  #                  All rights reserved                #
                  #                        -***-                        #
                  #######################################################


                         Program Version 4.2.0 -  RELEASE  -


 With contributions from (in alphabetic order):
   Daniel Aravena         : Magnetic Suceptibility
   Michael Atanasov       : Ab Initio Ligand Field Theory (pilot matlab implementation)
   Alexander A. Auer      : GIAO ZORA, VPT2
   Ute Becker             : Parallelization
   Giovanni Bistoni       : ED, misc. LED, open-shell LED, HFLED
   Martin Brehm           : Molecular dynamics
   Dmytro Bykov           : SCF Hessian
   Vijay G. Chilkuri      : MRCI spin determinant printing, contributions to CSF-ICE
   Dipayan Datta          : RHF DLPNO-CCSD density
   Achintya Kumar Dutta   : EOM-CC, STEOM-CC
   Dmitry Ganyushin       : Spin-Orbit,Spin-Spin,Magnetic field MRCI
   Miquel Garcia          : C-PCM Hessian, Gaussian charge scheme
   Yang Guo               : DLPNO-NEVPT2, CIM, IAO-localization
   Andreas Hansen         : Spin unrestricted coupled pair/coupled cluster methods
   Benjamin Helmich-Paris : CASSCF linear response (MC-RPA)
   Lee Huntington         : MR-EOM, pCC
   Robert Izsak           : Overlap fitted RIJCOSX, COSX-SCS-MP3, EOM
   Christian Kollmar      : KDIIS, OOCD, Brueckner-CCSD(T), CCSD density
   Simone Kossmann        : Meta GGA functionals, TD-DFT gradient, OOMP2, MP2 Hessian
   Martin Krupicka        : AUTO-CI
   Lucas Lang             : DCDCAS
   Dagmar Lenk            : GEPOL surface, SMD
   Dimitrios Liakos       : Extrapolation schemes; Compound Job, initial MDCI parallelization
   Dimitrios Manganas     : Further ROCIS development; embedding schemes
   Dimitrios Pantazis     : SARC Basis sets
   Taras Petrenko         : DFT Hessian,TD-DFT gradient, ASA, ECA, R-Raman, ABS, FL, XAS/XES, NRVS
   Peter Pinski           : DLPNO-MP2, DLPNO-MP2 Gradient
   Christoph Reimann      : Effective Core Potentials
   Marius Retegan         : Local ZFS, SOC
   Christoph Riplinger    : Optimizer, TS searches, QM/MM, DLPNO-CCSD(T), (RO)-DLPNO pert. Triples
   Tobias Risthaus        : Range-separated hybrids, TD-DFT gradient, RPA, STAB
   Michael Roemelt        : Original ROCIS implementation
   Masaaki Saitow         : Open-shell DLPNO-CCSD energy and density
   Barbara Sandhoefer     : DKH picture change effects
   Avijit Sen             : IP-ROCIS
   Kantharuban Sivalingam : CASSCF convergence, NEVPT2, FIC-MRCI
   Bernardo de Souza      : ESD, SOC TD-DFT
   Georgi Stoychev        : AutoAux, RI-MP2 NMR
   Willem Van den Heuvel  : Paramagnetic NMR
   Boris Wezisla          : Elementary symmetry handling
   Frank Wennmohs         : Technical directorship


 We gratefully acknowledge several colleagues who have allowed us to
 interface, adapt or use parts of their codes:
   Stefan Grimme, W. Hujo, H. Kruse,             : VdW corrections, initial TS optimization,
                  C. Bannwarth                     DFT functionals, gCP, sTDA/sTD-DF
   Ed Valeev, F. Pavosevic, A. Kumar             : LibInt (2-el integral package), F12 methods
   Garnet Chan, S. Sharma, J. Yang, R. Olivares  : DMRG
   Ulf Ekstrom                                   : XCFun DFT Library
   Mihaly Kallay                                 : mrcc  (arbitrary order and MRCC methods)
   Andreas Klamt, Michael Diedenhofen            : otool_cosmo (COSMO solvation model)
   Jiri Pittner, Ondrej Demel                    : Mk-CCSD
   Frank Weinhold                                : gennbo (NPA and NBO analysis)
   Christopher J. Cramer and Donald G. Truhlar   : smd solvation model
   Lars Goerigk                                  : TD-DFT with DH, B97 family of functionals
   V. Asgeirsson, H. Jonsson                     : NEB implementation
   FAccTs GmbH                                   : IRC, NEB, NEB-TS, Multilevel, MM, QM/MM, CI optimization
   S Lehtola, MJT Oliveira, MAL Marques          : LibXC Library


 Your calculation uses the libint2 library for the computation of 2-el integrals
 For citations please refer to: http://libint.valeyev.net

 Your ORCA version has been built with support for libXC version: 4.2.3
 For citations please refer to: https://tddft.org/programs/libxc/

 This ORCA versions uses:
   CBLAS   interface :  Fast vector & matrix operations
   LAPACKE interface :  Fast linear algebra routines
   SCALAPACK package :  Parallel linear algebra routines


----- Orbital basis set information -----
Your calculation utilizes the basis: def2-SVP
   F. Weigend and R. Ahlrichs, Phys. Chem. Chem. Phys. 7, 3297 (2005).

----- AuxJ basis set information -----
Your calculation utilizes the auxiliary basis: def2/J
   F. Weigend, Phys. Chem. Chem. Phys. 8, 1057 (2006).

================================================================================
                                        WARNINGS
                       Please study these warnings very carefully!
================================================================================


INFO   : the flag for use of LIBINT has been found!

================================================================================
                                       INPUT FILE
================================================================================
NAME = 39_Y_atom39.inp
|  1> # input to generate an atomic fitting density for  Y
|  2> # this file is use internally by ORCA
|  3> #
|  4> # atomic ground state (S=2): 1s2 2s2 2p6 3s2 3p6 4s2 3d10 4p6 4d1 5s2 
|  5> #
|  6> ! RHF AllowRHF def2-SVP def2/J  NoMulliken NoLoewdin NoMayer NoPrintMOs 
|  7> 
|  8> %output print[p_atomdensfit] 2 end
|  9> 
| 10> %scf
| 11>   guess hcore
| 12>   maxiter 1000
| 13>   maxdisk 500000
| 14>   SCFMode Conventional
| 15>   lshift 0.600000
| 16>   hftyp rohf
| 17>   rohf_case sahf
| 18>   rohf_numop   3
| 19>   rohf_norb[1] 5,1
| 20>   rohf_nel[1]  1,2
| 21> end
| 22> 
| 23> %basis
| 24>   NewECP 39
| 25>     N_core 28
| 26>     lmax g
| 27>     s 2
| 28>       1       7.8582750000    135.1349740000  2
| 29>       2       3.3821280000     15.4116320000  2
| 30>     p 4
| 31>       1       6.8497910000     29.2514370000  2
| 32>       2       6.7100920000     58.5083630000  2
| 33>       3       3.0421590000      3.7802430000  2
| 34>       4       2.9373300000      7.6765470000  2
| 35>     d 4
| 36>       1       5.4163150000     11.8499110000  2
| 37>       2       5.3334160000     17.7781030000  2
| 38>       3       1.9762120000      2.0623830000  2
| 39>       4       1.9611110000      3.0756500000  2
| 40>     f 2
| 41>       1       5.0285900000     -6.9280780000  2
| 42>       2       5.0055820000     -9.1550990000  2
| 43>     g 1
| 44>       1       1.0000000000      0.0000000000  2
| 45>   end
| 46>   NewGTO 39
| 47>     s 13 
| 48>      1    5177.1300000000      0.0000060022
| 49>      2     803.7880000000      0.0000420157
| 50>      3     176.8550000000      0.0001850692
| 51>      4      24.7094000000      0.0068585630
| 52>      5      15.4311000000     -0.0514292188
| 53>      6       9.6370600000      0.1537794665
| 54>      7       3.6556900000     -0.3428781315
| 55>      8       2.1887900000     -0.2815212028
| 56>      9       0.9669010000      0.4319464158
| 57>     10       0.5203350000      0.6445908798
| 58>     11       0.2687380000      0.2561367168
| 59>     12       0.0934310000      0.0142213144
| 60>     13       0.0442780000     -0.0008573204
| 61>     s 13 
| 62>      1    5177.1300000000     -0.0000024818
| 63>      2     803.7880000000     -0.0000161315
| 64>      3     176.8550000000     -0.0000781755
| 65>      4      24.7094000000     -0.0025239527
| 66>      5      15.4311000000      0.0194681879
| 67>      6       9.6370600000     -0.0604346457
| 68>      7       3.6556900000      0.1500895661
| 69>      8       2.1887900000      0.1064614178
| 70>      9       0.9669010000     -0.2044240390
| 71>     10       0.5203350000     -0.3888587200
| 72>     11       0.2687380000     -0.3108569166
| 73>     12       0.0934310000      0.4106399108
| 74>     13       0.0442780000      0.8300751887
| 75>     s 13 
| 76>      1    5177.1300000000     -0.0000031213
| 77>      2     803.7880000000     -0.0000353750
| 78>      3     176.8550000000     -0.0000582646
| 79>      4      24.7094000000     -0.0068596201
| 80>      5      15.4311000000      0.0405147287
| 81>      6       9.6370600000     -0.1070695866
| 82>      7       3.6556900000      0.2812870818
| 83>      8       2.1887900000      0.0643355996
| 84>      9       0.9669010000     -0.1408360223
| 85>     10       0.5203350000     -1.3386580341
| 86>     11       0.2687380000      0.5898243243
| 87>     12       0.0934310000      2.1576923031
| 88>     13       0.0442780000     -1.2450049197
| 89>     s 13 
| 90>      1    5177.1300000000     -0.0000021931
| 91>      2     803.7880000000     -0.0000285102
| 92>      3     176.8550000000     -0.0000455067
| 93>      4      24.7094000000     -0.0054147483
| 94>      5      15.4311000000      0.0316896556
| 95>      6       9.6370600000     -0.0843776351
| 96>      7       3.6556900000      0.2312140304
| 97>      8       2.1887900000      0.0718139496
| 98>      9       0.9669010000     -0.3045834318
| 99>     10       0.5203350000     -1.4129899821
|100>     11       0.2687380000      2.2869071166
|101>     12       0.0934310000     -0.7886227862
|102>     13       0.0442780000     -0.8798203944
|103>     s 13 
|104>      1    5177.1300000000     -0.0000037010
|105>      2     803.7880000000      0.0000141872
|106>      3     176.8550000000     -0.0002081824
|107>      4      24.7094000000      0.0065409379
|108>      5      15.4311000000     -0.0184653193
|109>      6       9.6370600000      0.0046614360
|110>      7       3.6556900000     -0.0116511227
|111>      8       2.1887900000      0.3584549923
|112>      9       0.9669010000     -1.0107093727
|113>     10       0.5203350000      0.3917280968
|114>     11       0.2687380000      0.9726829234
|115>     12       0.0934310000     -2.0703977496
|116>     13       0.0442780000      2.2516170119
|117>     s 1 
|118>      1       0.0205860000      1.0000000000
|119>     s 1 
|120>      1       0.0096000000      1.0000000000
|121>     p 10 
|122>      1     107.4110000000      0.0000909999
|123>      2       7.8253700000      0.0412729618
|124>      3       4.8896400000     -0.1207508882
|125>      4       2.6346700000     -0.0913089155
|126>      5       1.2906400000      0.2467107716
|127>      6       0.6865630000      0.4542815795
|128>      7       0.3642540000      0.3496886763
|129>      8       0.1880790000      0.1146008939
|130>      9       0.0906470000      0.0109549899
|131>     10       0.0433930000      0.0016129985
|132>     p 10 
|133>      1     107.4110000000     -0.0000339287
|134>      2       7.8253700000     -0.0144988582
|135>      3       4.8896400000      0.0440145525
|136>      4       2.6346700000      0.0296502781
|137>      5       1.2906400000     -0.0961912157
|138>      6       0.6865630000     -0.1860275886
|139>      7       0.3642540000     -0.1999462663
|140>      8       0.1880790000      0.0441762792
|141>      9       0.0906470000      0.4953350553
|142>     10       0.0433930000      0.5833211839
|143>     p 10 
|144>      1     107.4110000000     -0.0000697334
|145>      2       7.8253700000     -0.0305711089
|146>      3       4.8896400000      0.0914547768
|147>      4       2.6346700000      0.0737038795
|148>      5       1.2906400000     -0.1980191653
|149>      6       0.6865630000     -0.6577862852
|150>      7       0.3642540000     -0.2445892546
|151>      8       0.1880790000      1.4853819060
|152>      9       0.0906470000      0.1975363958
|153>     10       0.0433930000     -0.9553246232
|154>     p 10 
|155>      1     107.4110000000     -0.0000841572
|156>      2       7.8253700000     -0.0402963724
|157>      3       4.8896400000      0.1269974367
|158>      4       2.6346700000      0.0718872711
|159>      5       1.2906400000     -0.2821608947
|160>      6       0.6865630000     -1.2663801100
|161>      7       0.3642540000      1.4277211307
|162>      8       0.1880790000      1.2755660253
|163>      9       0.0906470000     -2.5532434370
|164>     10       0.0433930000      0.7499107289
|165>     p 10 
|166>      1     107.4110000000     -0.0001293069
|167>      2       7.8253700000     -0.0399316832
|168>      3       4.8896400000      0.1192902853
|169>      4       2.6346700000      0.2069510133
|170>      5       1.2906400000     -0.8978112739
|171>      6       0.6865630000     -0.9136794111
|172>      7       0.3642540000      3.8259830703
|173>      8       0.1880790000     -3.9002231446
|174>      9       0.0906470000      1.5287666097
|175>     10       0.0433930000      0.5632639547
|176>     p 1 
|177>      1       0.0203400000      1.0000000000
|178>     p 1 
|179>      1       0.0095000000      1.0000000000
|180>     d 9 
|181>      1      44.4707000000      0.0001319894
|182>      2      12.2260000000      0.0012640519
|183>      3       5.0145900000     -0.0065162131
|184>      4       1.6657600000      0.0523124595
|185>      5       0.8894000000      0.1632708373
|186>      6       0.4492320000      0.2632233331
|187>      7       0.2178540000      0.3179105858
|188>      8       0.1023240000      0.3015967010
|189>      9       0.0468400000      0.1894179293
|190>     d 9 
|191>      1      44.4707000000     -0.0001916302
|192>      2      12.2260000000     -0.0016452150
|193>      3       5.0145900000      0.0085625965
|194>      4       1.6657600000     -0.0785379855
|195>      5       0.8894000000     -0.2324906186
|196>      6       0.4492320000     -0.3819294266
|197>      7       0.2178540000     -0.2658038862
|198>      8       0.1023240000      0.2739855593
|199>      9       0.0468400000      0.6327207256
|200>     d 9 
|201>      1      44.4707000000      0.0002362137
|202>      2      12.2260000000      0.0023132240
|203>      3       5.0145900000     -0.0119359495
|204>      4       1.6657600000      0.1140160553
|205>      5       0.8894000000      0.3478365943
|206>      6       0.4492320000      0.5108192711
|207>      7       0.2178540000     -0.4090732049
|208>      8       0.1023240000     -0.9698612163
|209>      9       0.0468400000      0.4312474672
|210>     d 9 
|211>      1      44.4707000000     -0.0003300375
|212>      2      12.2260000000     -0.0019450570
|213>      3       5.0145900000      0.0116919839
|214>      4       1.6657600000     -0.1094822727
|215>      5       0.8894000000     -0.6127425551
|216>      6       0.4492320000      0.0084042334
|217>      7       0.2178540000      1.2731060934
|218>      8       0.1023240000     -0.8559991222
|219>      9       0.0468400000     -0.4758761881
|220>     d 1 
|221>      1       0.0205940000      1.0000000000
|222>     d 1 
|223>      1       0.0091000000      1.0000000000
|224>   end
|225>   NewAuxGTO 39
|226>     S 1
|227>      1 1310.72 1.0
|228>     S 1
|229>      1  655.36 1.0
|230>     S 1
|231>      1  327.68 1.0
|232>     S 1
|233>      1  163.84 1.0
|234>     S 1
|235>      1   81.82 1.0
|236>     S 1
|237>      1   40.96 1.0
|238>     S 1
|239>      1   20.48 1.0
|240>     S 1
|241>      1   10.24 1.0
|242>     S 1
|243>      1    5.12 1.0
|244>     S 1
|245>      1    2.56 1.0
|246>     S 1
|247>      1    1.28 1.0
|248>     S 1
|249>      1    0.64 1.0
|250>     S 1
|251>      1    0.32 1.0
|252>     S 1
|253>      1    0.16 1.0
|254>     S 1
|255>      1    0.08 1.0
|256>     S 1
|257>      1    0.04 1.0
|258>     S 1
|259>      1    0.02 1.0
|260>     S 1
|261>      1    0.01 1.0
|262>   end
|263> end
|264> 
|265> * xyz 0 2
|266> 39  0.0 0.0 0.0
|267> *
|268> 
|269> 
|270>                          ****END OF INPUT****
================================================================================

                       ****************************
                       * Single Point Calculation *
                       ****************************

---------------------------------
CARTESIAN COORDINATES (ANGSTROEM)
---------------------------------
   Y     0.000000    0.000000    0.000000

----------------------------
CARTESIAN COORDINATES (A.U.)
----------------------------
  NO LB      ZA    FRAG     MASS         X           Y           Z
   0  Y   11.0000*   0    88.910    0.000000    0.000000    0.000000
* core charge reduced due to ECP

--------------------------------
INTERNAL COORDINATES (ANGSTROEM)
--------------------------------
  Y     0   0   0     0.000000000000     0.00000000     0.00000000

---------------------------
INTERNAL COORDINATES (A.U.)
---------------------------
  Y     0   0   0     0.000000000000     0.00000000     0.00000000

---------------------
BASIS SET INFORMATION
---------------------
There are 1 groups of distinct atoms

 Group   1 Type  Y  : 67s52p38d contracted to 7s7p6d pattern {131313131311/101010101011/999911}

Atom   0 Y   basis set group =>   1
---------------------------------
AUXILIARY/J BASIS SET INFORMATION
---------------------------------
There are 1 groups of distinct atoms

 Group   1 Type  Y  : 18s contracted to 18s pattern {111111111111111111}

Atom   0 Y   basis set group =>   1
-------------------------
ECP PARAMETER INFORMATION
-------------------------

 Group 1, Type  Y ECP (replacing 28 core electrons, lmax=4)

Atom   0 Y   ECP group =>   1

------------------------------------------------------------------------------
                           ORCA GTO INTEGRAL CALCULATION
------------------------------------------------------------------------------

                         BASIS SET STATISTICS AND STARTUP INFO

 # of primitive gaussian shells          ...  157
 # of primitive gaussian functions       ...  413
 # of contracted shells                  ...   20
 # of contracted basis functions         ...   58
 Highest angular momentum                ...    2
 Maximum contraction depth               ...   13
 Integral package used                   ... LIBINT
 Integral threshhold            Thresh   ...  1.000e-10
 Primitive cut-off              TCut     ...  1.000e-11
 Storage cut-off                TCutStore... -1.000e+00
 Buffer length                           ... 1048576 integrals/buffer
 Generate file with integrals 4 distinct ...false


------------------------------ INTEGRAL EVALUATION ----------------------------


 * One electron integrals 

   ECP integrals                         ... done
 Pre-screening matrix                    ... done
 Shell pair data                         ... done (   0.000 sec)
 Statistics run                          ... done
 Maximum amount of storage needed        ...    17 MB
 Maximum amount of storage dedicated     ... 500000 MB
 Beginning two electron integral evaluation:
 Starting repulsion integrals
  <ss|ss>  ...          406 b.         0 skpd (  0.0%)     0.035 s. (  0.085 ms/b)
  <ss|sp>  ...         1372 b.         0 skpd (  0.0%)     0.193 s. (  0.141 ms/b)
  <ss|sd>  ...         1176 b.         0 skpd (  0.0%)     0.643 s. (  0.546 ms/b)
  <ss|pp>  ...          784 b.         0 skpd (  0.0%)     0.433 s. (  0.553 ms/b)
  <ss|pd>  ...         1176 b.         0 skpd (  0.0%)     0.645 s. (  0.548 ms/b)
  <ss|dd>  ...          588 b.         0 skpd (  0.0%)     0.411 s. (  0.700 ms/b)
  <sp|sp>  ...         1225 b.         0 skpd (  0.0%)     0.615 s. (  0.502 ms/b)
  <sp|sd>  ...         2058 b.         0 skpd (  0.0%)     1.085 s. (  0.527 ms/b)
  <sp|pp>  ...         1372 b.         0 skpd (  0.0%)     0.773 s. (  0.563 ms/b)
  <sp|pd>  ...         2058 b.         0 skpd (  0.0%)     1.545 s. (  0.751 ms/b)
  <sp|dd>  ...         1029 b.         0 skpd (  0.0%)     1.211 s. (  1.177 ms/b)
  <sd|sd>  ...          903 b.         0 skpd (  0.0%)     0.744 s. (  0.824 ms/b)
  <sd|pp>  ...         1176 b.         0 skpd (  0.0%)     1.116 s. (  0.949 ms/b)
  <sd|pd>  ...         1764 b.         0 skpd (  0.0%)     2.498 s. (  1.416 ms/b)
  <sd|dd>  ...          882 b.         0 skpd (  0.0%)     2.028 s. (  2.299 ms/b)
  <pp|pp>  ...          406 b.         0 skpd (  0.0%)     0.412 s. (  1.015 ms/b)
  <pp|pd>  ...         1176 b.         0 skpd (  0.0%)     1.670 s. (  1.420 ms/b)
  <pp|dd>  ...          588 b.         0 skpd (  0.0%)     1.404 s. (  2.387 ms/b)
  <pd|pd>  ...          903 b.         0 skpd (  0.0%)     2.454 s. (  2.717 ms/b)
  <pd|dd>  ...          882 b.         0 skpd (  0.0%)     3.824 s. (  4.336 ms/b)
  <dd|dd>  ...          231 b.         0 skpd (  0.0%)     1.882 s. (  8.146 ms/b)


                                      INTEGRAL STATISTICS

Integral type statistics:
 Number of integrals retained            ...    1464616 
 One   Center Integrals retained         ...    1464616 (100.0%)
 Two   Center Integrals retained         ...          0 (  0.0%)
 Three Center Integrals retained         ...          0 (  0.0%)
 Four  Center Integrals retained         ...          0 (  0.0%)

Storage statistics:
 Number of char integrals                ...          0 (  0.0%)
 Number of short int integrals           ...          0 (  0.0%)
 Number of double/float integrals        ...    1464616 (100.0%)
 Amount of memory used                   ...         18 MB
 Amount of memory estimated              ...         17 MB ( 96.2%)

Prescreening statistics:
 Total number of shell quadruples        ...      22155 
 Number of skipped shell quadruples      ...          0 (  0.0%)
 # of negligible batches done            ...          0 (  0.0%)

Timings:
 Total evaluation time               ...    26.524 sec (   0.442 min)
 One electron matrix time            ...     0.025 sec (   0.000 min) =  0.1%
 Schwartz matrix evaluation time     ...     0.773 sec (   0.013 min) =  2.9%
 Statistics run                      ...     0.011 sec (   0.000 min) =  0.0%
 Repulsion integral time             ...    25.619 sec (   0.427 min) = 96.6%

-------------------------------------------------------------------------------
                                 ORCA SCF
-------------------------------------------------------------------------------

------------
SCF SETTINGS
------------
Hamiltonian:
 Ab initio Hamiltonian  Method          .... Hartree-Fock(GTOs)


General Settings:
 Integral files         IntName         .... 39_Y_atom39
 Hartree-Fock type      HFTyp           .... ROHF
 Total Charge           Charge          ....    0
 Multiplicity           Mult            ....    2
 Number of Electrons    NEL             ....   11
 Basis Dimension        Dim             ....   58
 Nuclear Repulsion      ENuc            ....      0.0000000000 Eh

Convergence Acceleration:
 DIIS                   CNVDIIS         .... on
   Start iteration      DIISMaxIt       ....    12
   Startup error        DIISStart       ....  0.200000
   # of expansion vecs  DIISMaxEq       ....     5
   Bias factor          DIISBfac        ....   1.050
   Max. coefficient     DIISMaxC        ....  10.000
 Newton-Raphson         CNVNR           .... off
 SOSCF                  CNVSOSCF        .... off
 Level Shifting         CNVShift        .... on
   Level shift para.    LevelShift      ....    0.6000
   Turn off err/grad.   ShiftErr        ....    0.0010
 Zerner damping         CNVZerner       .... off
 Static damping         CNVDamp         .... on
   Fraction old density DampFac         ....    0.7000
   Max. Damping (<1)    DampMax         ....    0.9800
   Min. Damping (>=0)   DampMin         ....    0.0000
   Turn off err/grad.   DampErr         ....    0.1000
 Fernandez-Rico         CNVRico         .... off

SCF Procedure:
 Maximum # iterations   MaxIter         ....  1000
 SCF integral mode      SCFMode         .... Conventional
 Integral Threshold     Thresh          ....  1.000e-10 Eh
 Primitive CutOff       TCut            ....  1.000e-11 Eh
 Integral Buffer length BufferLength    .... 1048576
 Integral index format  IndFormat       ....     0
 Integral value format  ValFormat       ....     0
 Integral Storage       Thresh          ....  1.000e-10 Eh

Convergence Tolerance:
 Convergence Check Mode ConvCheckMode   .... Total+1el-Energy
 Convergence forced     ConvForced      .... 0
 Energy Change          TolE            ....  1.000e-06 Eh
 1-El. energy change                    ....  1.000e-03 Eh
 DIIS Error             TolErr          ....  1.000e-06


Diagonalization of the overlap matrix:
Smallest eigenvalue                        ... 9.136e-04
Time for diagonalization                   ...    0.018 sec
Threshold for overlap eigenvalues          ... 1.000e-08
Number of eigenvalues below threshold      ... 0
Time for construction of square roots      ...    0.001 sec
Total time needed                          ...    0.019 sec

--------------------
INITIAL GUESS: HCORE
--------------------
AVERAGE-CONFIGURATION (SAHF) CASE FOUND

-------------------
FINAL ROHF SETTINGS
-------------------
Number of operators             ... 3
  operator   0:   4 orbitals   8 electrons n(mue)= 2.000
  operator   1:   5 orbitals   1 electrons n(mue)= 0.200
  operator   2:   1 orbitals   2 electrons n(mue)= 2.000
Vector coupling coefficients a and b (Zerner convention):
   1.000    1.000    1.000           1.000    1.000    1.000 
   1.000    0.000    1.000           1.000    0.000    1.000 
   1.000    1.000    1.000           1.000    1.000    1.000 

                      -----------------
                      INTIAL GUESS DONE 
                      -----------------

 InCore treatment chosen:
   Memory dedicated               ...    1024 MB
   Memory needed                  ...     18 MB
   Number of tiny    integrals    ...       0
   Number of small   integrals    ...       0
   Number of regular integrals    ... 1464616

--------------
SCF ITERATIONS
--------------
ITER       Energy         Delta-E        Max-DP      RMS-DP      [F,P]     Damp
  0    -34.1948015899   0.000000000000 1.45466862  0.02961649  0.7518115 0.7000
  1    -36.2243117069  -2.029510117061 1.01165924  0.02053482  0.3794834 0.7000
                            ****Activating DIIS****
  2    -36.5657517895  -0.341440082548 2.31780195  0.04657642  0.0867773 0.0000
  3    -36.8590265690  -0.293274779510 0.08223771  0.00150178  0.0655676 0.0000
  4    -36.8894384834  -0.030411914437 0.06192542  0.00102608  0.0382492 0.0000
  5    -36.9008985438  -0.011460060398 0.03493070  0.00058239  0.0449606 0.0000
  6    -36.8932792806   0.007619263191 0.00517802  0.00006768  0.0390699 0.0000
  7    -36.8924538214   0.000825459226 0.27252861  0.00424949  0.0389614 0.0000
  8    -36.9650217216  -0.072567900209 0.01911366  0.00030536  0.1026797 0.7000
  9    -36.9867652425  -0.021743520874 0.04469421  0.00059089  0.1229690 0.7000
 10    -36.9408461210   0.045919121493 0.25772451  0.00332960  0.0602941 0.0000
 11    -36.9232912644   0.017554856566 0.11817856  0.00175060  0.0468436 0.0000
 12    -36.9355214742  -0.012230209788 0.00354172  0.00005160  0.0484010 0.0000
 13    -36.9359072613  -0.000385787071 0.00511945  0.00007349  0.0484340 0.0000
 14    -36.9364678462  -0.000560584851 0.02271848  0.00031275  0.0484856 0.0000
 15    -36.9382819584  -0.001814112248 0.06419362  0.00100931  0.0486104 0.0000
 16    -36.9451648637  -0.006882905306 0.09051461  0.00129503  0.0489061 0.0000
 17    -36.9550337539  -0.009868890218 0.03532400  0.00050188  0.0488435 0.0000
 18    -36.9590076198  -0.003973865885 0.07268818  0.00103054  0.0486453 0.0000
 19    -36.9672216074  -0.008213987551 0.18965649  0.00273866  0.0478843 0.0000
 20    -36.9883197938  -0.021098186432 0.49499843  0.01000594  0.0436972 0.0000
 21    -37.0379686908  -0.049648897000 0.24770536  0.00547365  0.0162373 0.0000
 22    -37.0480095853  -0.010040894526 0.01899329  0.00042471  0.0099204 0.0000
 23    -37.0489805092  -0.000970923866 0.01352405  0.00033169  0.0135884 0.0000
 24    -37.0479867764   0.000993732781 0.02218341  0.00050424  0.0086491 0.0000
 25    -37.0481637076  -0.000176931213 0.04274259  0.00093621  0.0062434 0.0000
 26    -37.0487765806  -0.000612872984 0.02676038  0.00058466  0.0062764 0.0000
 27    -37.0492405710  -0.000463990397 0.04527054  0.00099152  0.0063110 0.0000
 28    -37.0500890973  -0.000848526336 0.03063299  0.00068031  0.0065091 0.0000
 29    -37.0506961399  -0.000607042578 0.02158937  0.00048463  0.0064761 0.0000
 30    -37.0511370563  -0.000440916348 0.01430831  0.00032350  0.0066826 0.0000
 31    -37.0514349620  -0.000297905724 0.01239676  0.00028039  0.0065708 0.0000
 32    -37.0516940130  -0.000259051009 0.01544984  0.00034892  0.0066025 0.0000
 33    -37.0520157739  -0.000321760913 0.01400563  0.00031750  0.0066394 0.0000
 34    -37.0523130766  -0.000297302724 0.00894948  0.00020391  0.0066730 0.0000
 35    -37.0525072697  -0.000194193058 0.00851963  0.00019488  0.0067105 0.0000
 36    -37.0526944791  -0.000187209361 0.00974149  0.00022313  0.0067726 0.0000
 37    -37.0529119760  -0.000217496925 0.00927750  0.00021267  0.0067406 0.0000
 38    -37.0531236173  -0.000211641349 0.00662836  0.00015222  0.0067626 0.0000
 39    -37.0532782800  -0.000154662626 0.00605284  0.00013956  0.0067781 0.0000
 40    -37.0534223073  -0.000144027350 0.00691866  0.00015990  0.0067927 0.0000
 41    -37.0535908168  -0.000168509474 0.00647970  0.00014989  0.0068093 0.0000
 42    -37.0537532953  -0.000162478573 0.00539146  0.00012483  0.0068244 0.0000
 43    -37.0538927045  -0.000139409145 0.00466408  0.00010832  0.0068366 0.0000
 44    -37.0540164392  -0.000123734703 0.00553522  0.00012888  0.0068473 0.0000
 45    -37.0541691723  -0.000152733117 0.00439961  0.00010227  0.0068599 0.0000
 46    -37.0542903029  -0.000121130553 0.00570026  0.00013316  0.0068699 0.0000
 47    -37.0544649419  -0.000174639023 0.00111342  0.00002593  0.0068820 0.0000
 48    -37.0544781400  -0.000013198073 0.01198580  0.00028261  0.0069779 0.0000
 49    -37.0549084874  -0.000430347471 0.01252212  0.00030510  0.0075208 0.0000
 50    -37.0543630288   0.000545458673 0.00980723  0.00022759  0.0068891 0.0000
 51    -37.0545489078  -0.000185879048 0.01323557  0.00030812  0.0069164 0.0000
 52    -37.0547998158  -0.000250907975 0.01481446  0.00034546  0.0069543 0.0000
 53    -37.0550994107  -0.000299594911 0.03731672  0.00086934  0.0069969 0.0000
 54    -37.0559327656  -0.000833354916 0.03267673  0.00076335  0.0070989 0.0000
 55    -37.0567013095  -0.000768543846 0.01886826  0.00044302  0.0071844 0.0000
 56    -37.0571666783  -0.000465368822 0.02038756  0.00047688  0.0072319 0.0000
 57    -37.0567087037   0.000457974596 0.01042620  0.00024412  0.0071758 0.0000
 58    -37.0569483930  -0.000239689366 0.02107310  0.00049343  0.0072042 0.0000
 59    -37.0574469583  -0.000498565208 0.01511673  0.00035582  0.0072598 0.0000
 60    -37.0578401174  -0.000393159191 0.00507681  0.00011981  0.0072965 0.0000
 61    -37.0577395854   0.000100532031 0.00787958  0.00018627  0.0072812 0.0000
 62    -37.0579596415  -0.000220056105 0.00123499  0.00002914  0.0072999 0.0000
 63    -37.0579040049   0.000055636631 0.01678238  0.00039537  0.0072998 0.0000
 64    -37.0583544467  -0.000450441784 0.00542367  0.00013100  0.0073403 0.0000
 65    -37.0585500866  -0.000195639934 0.00897544  0.00021307  0.0073502 0.0000
 66    -37.0582724187   0.000277667944 0.01005761  0.00023793  0.0073305 0.0000
 67    -37.0585636945  -0.000291275796 0.00832756  0.00019767  0.0073540 0.0000
 68    -37.0588281534  -0.000264458895 0.00348583  0.00008189  0.0073720 0.0000
 69    -37.0589176070  -0.000089453609 0.00384958  0.00009591  0.0073806 0.0000
 70    -37.0591029697  -0.000185362771 0.00611952  0.00015590  0.0073858 0.0000
 71    -37.0587915341   0.000311435632 0.01507255  0.00035673  0.0073792 0.0000
 72    -37.0592273945  -0.000435860367 0.02496932  0.00059375  0.0074149 0.0000
 73    -37.0600520621  -0.000824667598 0.05322869  0.00126512  0.0075451 0.0000
 74    -37.0584129306   0.001639131497 0.00741702  0.00018163  0.0073446 0.0000
 75    -37.0581559424   0.000256988136 0.00294331  0.00008378  0.0073283 0.0000
 76    -37.0580257766   0.000130165843 0.00503172  0.00011830  0.0073244 0.0000
 77    -37.0581275098  -0.000101733178 0.00600932  0.00014110  0.0073394 0.0000
 78    -37.0582680807  -0.000140570971 0.02146173  0.00050832  0.0074514 0.0000
 79    -37.0588182638  -0.000550183058 0.01790418  0.00042298  0.0074105 0.0000
 80    -37.0592727147  -0.000454450856 0.00597461  0.00014077  0.0074569 0.0000
 81    -37.0591249477   0.000147766944 0.00910303  0.00021497  0.0074412 0.0000
 82    -37.0593538376  -0.000228889864 0.01089329  0.00025811  0.0074652 0.0000
 83    -37.0596378713  -0.000284033683 0.01518240  0.00036097  0.0074929 0.0000
 84    -37.0600537692  -0.000415897932 0.00242448  0.00005792  0.0075296 0.0000
 85    -37.0599847384   0.000069030796 0.00640912  0.00015284  0.0075237 0.0000
 86    -37.0601664972  -0.000181758850 0.00852028  0.00020254  0.0075390 0.0000
 87    -37.0604023016  -0.000235804306 0.00778794  0.00018560  0.0075597 0.0000
 88    -37.0606280337  -0.000225732152 0.00477927  0.00011423  0.0075780 0.0000
 89    -37.0607749246  -0.000146890941 0.00028123  0.00000690  0.0075885 0.0000
 90    -37.0607785844  -0.000003659796 0.01233423  0.00029588  0.0075895 0.0000
 91    -37.0611805222  -0.000401937802 0.00457749  0.00011393  0.0076160 0.0000
 92    -37.0609878093   0.000192712949 0.01063815  0.00025499  0.0076091 0.0000
 93    -37.0613302479  -0.000342438625 0.00608250  0.00014875  0.0076322 0.0000
 94    -37.0615794877  -0.000249239748 0.00581584  0.00014684  0.0076424 0.0000
 95    -37.0613018923   0.000277595398 0.01169992  0.00027974  0.0076354 0.0000
 96    -37.0616596490  -0.000357756754 0.01171780  0.00028344  0.0076626 0.0000
 97    -37.0621019178  -0.000442268813 0.01473667  0.00035545  0.0076850 0.0000
 98    -37.0615783334   0.000523584452 0.00539550  0.00012864  0.0076539 0.0000
 99    -37.0617383205  -0.000159987070 0.00200131  0.00004828  0.0076667 0.0000
100    -37.0617662077  -0.000027887215 0.01110944  0.00026578  0.0076733 0.0000
101    -37.0621248769  -0.000358669223 0.01256793  0.00030779  0.0076977 0.0000
102    -37.0626853863  -0.000560509382 0.02819842  0.00069018  0.0081094 0.0000
103    -37.0615235625   0.001161823730 0.00853098  0.00020593  0.0076712 0.0000
104    -37.0617087043  -0.000185141738 0.01089918  0.00026176  0.0076990 0.0000
105    -37.0619824017  -0.000273697439 0.01095454  0.00026273  0.0077319 0.0000
106    -37.0622744029  -0.000292001197 0.00717100  0.00017230  0.0077630 0.0000
107    -37.0624691716  -0.000194768729 0.02534619  0.00060904  0.0077833 0.0000
108    -37.0631766314  -0.000707459738 0.00302075  0.00007635  0.0078480 0.0000
109    -37.0632783609  -0.000101729499 0.00277920  0.00006713  0.0078523 0.0000
110    -37.0631969753   0.000081385575 0.01132666  0.00027288  0.0078455 0.0000
111    -37.0635196647  -0.000322689406 0.01075818  0.00025954  0.0078744 0.0000
112    -37.0638313990  -0.000311734308 0.01229664  0.00029722  0.0079012 0.0000
113    -37.0642024491  -0.000371050060 0.00331453  0.00008024  0.0079299 0.0000
114    -37.0641133964   0.000089052642 0.00818156  0.00019812  0.0079204 0.0000
115    -37.0643647375  -0.000251341091 0.00680015  0.00016456  0.0079698 0.0000
116    -37.0645739126  -0.000209175068 0.00783122  0.00019006  0.0080020 0.0000
117    -37.0648290039  -0.000255091348 0.00255754  0.00006226  0.0080288 0.0000
118    -37.0649193143  -0.000090310361 0.00276872  0.00006803  0.0080343 0.0000
119    -37.0650242606  -0.000104946314 0.00788633  0.00019177  0.0080411 0.0000
120    -37.0652926475  -0.000268386849 0.00207577  0.00005009  0.0080588 0.0000
121    -37.0653581747  -0.000065527199 0.00929898  0.00022874  0.0080625 0.0000
122    -37.0657403532  -0.000382178505 0.00876519  0.00022013  0.0080762 0.0000
123    -37.0653292952   0.000411058011 0.00856759  0.00020832  0.0080628 0.0000
124    -37.0656174232  -0.000288128034 0.01062293  0.00025849  0.0080804 0.0000
125    -37.0659812961  -0.000363872946 0.00767617  0.00019378  0.0081015 0.0000
126    -37.0663820034  -0.000400707220 0.01670153  0.00041825  0.0081087 0.0000
127    -37.0655958907   0.000786112690 0.00337005  0.00008909  0.0080728 0.0000
128    -37.0656273273  -0.000031436605 0.01228611  0.00029934  0.0080526 0.0000
129    -37.0659589581  -0.000331630816 0.01177126  0.00028737  0.0081469 0.0000
130    -37.0662893586  -0.000330400470 0.00874452  0.00021378  0.0081815 0.0000
131    -37.0665434176  -0.000254058998 0.02903435  0.00070917  0.0082064 0.0000
132    -37.0674315184  -0.000888100820 0.00924469  0.00022920  0.0082716 0.0000
133    -37.0677497478  -0.000318229440 0.02284073  0.00055956  0.0082843 0.0000
134    -37.0670423467   0.000707401171 0.01377637  0.00033729  0.0082321 0.0000
135    -37.0674668814  -0.000424534789 0.01404733  0.00034445  0.0082639 0.0000
136    -37.0679154555  -0.000448574024 0.01220161  0.00029970  0.0082930 0.0000
137    -37.0683262883  -0.000410832829 0.00764037  0.00018770  0.0083144 0.0000
138    -37.0680954783   0.000230809984 0.00322458  0.00007996  0.0082958 0.0000
139    -37.0682170689  -0.000121590616 0.01666738  0.00040986  0.0083000 0.0000
140    -37.0687764434  -0.000559374523 0.00291620  0.00007231  0.0083323 0.0000
141    -37.0686748510   0.000101592486 0.01060216  0.00026379  0.0083265 0.0000
142    -37.0691118767  -0.000437025759 0.01148558  0.00028679  0.0083379 0.0000
143    -37.0686290051   0.000482871641 0.00963984  0.00023773  0.0083266 0.0000
144    -37.0689744504  -0.000345445320 0.01186604  0.00029293  0.0083425 0.0000
145    -37.0694127162  -0.000438265786 0.00154074  0.00004446  0.0083613 0.0000
146    -37.0694281547  -0.000015438535 0.00260576  0.00006682  0.0083511 0.0000
147    -37.0694610233  -0.000032868556 0.00444919  0.00011310  0.0083621 0.0000
148    -37.0696904059  -0.000229382600 0.00595673  0.00014691  0.0083630 0.0000
149    -37.0699051176  -0.000214711706 0.00693168  0.00017617  0.0083735 0.0000
150    -37.0702920265  -0.000386908888 0.01174924  0.00030251  0.0084842 0.0000
151    -37.0696173701   0.000674656363 0.00666733  0.00016572  0.0083757 0.0000
152    -37.0697773330  -0.000159962915 0.01089937  0.00026977  0.0083962 0.0000
153    -37.0700800961  -0.000302763095 0.01258977  0.00031338  0.0084260 0.0000
154    -37.0704286394  -0.000348543238 0.03382325  0.00083900  0.0084633 0.0000
155    -37.0715000540  -0.001071414605 0.03127598  0.00077732  0.0085466 0.0000
156    -37.0725584330  -0.001058379014 0.01486396  0.00037236  0.0086092 0.0000
157    -37.0731024198  -0.000543986777 0.03827756  0.00095319  0.0086307 0.0000
158    -37.0718397587   0.001262661062 0.01233172  0.00030715  0.0085456 0.0000
159    -37.0722456913  -0.000405932581 0.02542617  0.00063333  0.0085732 0.0000
160    -37.0731087374  -0.000863046134 0.01223002  0.00030631  0.0086262 0.0000
161    -37.0735810107  -0.000472273260 0.01639902  0.00040938  0.0086472 0.0000
162    -37.0730334203   0.000547590392 0.00169307  0.00004620  0.0086078 0.0000
163    -37.0731456499  -0.000112229610 0.02288229  0.00057169  0.0086058 0.0000
164    -37.0739387667  -0.000793116824 0.00213464  0.00005434  0.0086577 0.0000
165    -37.0738627598   0.000076006867 0.01060403  0.00027134  0.0086523 0.0000
166    -37.0744066216  -0.000543861779 0.02413030  0.00061057  0.0086618 0.0000
167    -37.0733125026   0.001094119052 0.00713052  0.00017783  0.0086295 0.0000
168    -37.0735462011  -0.000233698502 0.00920787  0.00023069  0.0086469 0.0000
169    -37.0738280065  -0.000281805461 0.00478975  0.00012171  0.0086724 0.0000
170    -37.0739596903  -0.000131683777 0.00702022  0.00017679  0.0086885 0.0000
171    -37.0741846935  -0.000225003167 0.02992954  0.00075019  0.0087088 0.0000
172    -37.0752474154  -0.001062721891 0.02003297  0.00050448  0.0087743 0.0000
173    -37.0760017716  -0.000754356199 0.03200680  0.00080437  0.0088111 0.0000
174    -37.0748806921   0.001121079463 0.01105181  0.00027785  0.0087372 0.0000
175    -37.0752724793  -0.000391787161 0.01754664  0.00044131  0.0087623 0.0000
176    -37.0759124295  -0.000639950251 0.02127803  0.00053522  0.0087992 0.0000
177    -37.0767101628  -0.000797733338 0.01778494  0.00044879  0.0088403 0.0000
178    -37.0761219259   0.000588236979 0.00818620  0.00020709  0.0087957 0.0000
179    -37.0764528699  -0.000330943980 0.02083831  0.00052521  0.0088102 0.0000
180    -37.0771965323  -0.000743662469 0.00533334  0.00013752  0.0088556 0.0000
181    -37.0770687116   0.000127820690 0.02043917  0.00051684  0.0088375 0.0000
182    -37.0779232650  -0.000854553365 0.04200392  0.00106295  0.0088707 0.0000
183    -37.0762091902   0.001714074826 0.00234746  0.00005859  0.0087969 0.0000
184    -37.0763129187  -0.000103728557 0.00194301  0.00005192  0.0087988 0.0000
185    -37.0762431590   0.000069759695 0.01695662  0.00043280  0.0087922 0.0000
186    -37.0756417022   0.000601456805 0.01954092  0.00049919  0.0087496 0.0000
187    -37.0749031473   0.000738554894 0.06884304  0.00175364  0.0087030 0.0000
188    -37.0777461430  -0.002842995677 0.08791304  0.00224881  0.0088389 0.0000
189    -37.0739682861   0.003777856950 0.02928896  0.00075829  0.0086740 0.0000
190    -37.0727608282   0.001207457838 0.01545288  0.00040780  0.0086141 0.0000
191    -37.0721111007   0.000649727485 0.00217437  0.00005317  0.0085876 0.0000
192    -37.0721509717  -0.000039871013 0.01074028  0.00026820  0.0085956 0.0000
193    -37.0725237684  -0.000372796645 0.01802230  0.00045710  0.0086205 0.0000
194    -37.0731763561  -0.000652587727 0.01220609  0.00030419  0.0086526 0.0000
195    -37.0735977740  -0.000421417898 0.00117312  0.00002912  0.0086776 0.0000
196    -37.0736303912  -0.000032617218 0.00948546  0.00023642  0.0086817 0.0000
197    -37.0739599789  -0.000329587712 0.01077727  0.00027038  0.0087029 0.0000
198    -37.0743451817  -0.000385202702 0.01063616  0.00026791  0.0087269 0.0000
199    -37.0747299400  -0.000384758311 0.00843434  0.00021183  0.0087508 0.0000
200    -37.0750345770  -0.000304636993 0.00620908  0.00015591  0.0087702 0.0000
201    -37.0752611027  -0.000226525743 0.00849400  0.00021361  0.0087854 0.0000
202    -37.0755753559  -0.000314253223 0.00693242  0.00017475  0.0088061 0.0000
203    -37.0758353680  -0.000260012117 0.00694045  0.00017516  0.0088226 0.0000
204    -37.0760975052  -0.000262137118 0.00642720  0.00016225  0.0088385 0.0000
205    -37.0763452941  -0.000247788896 0.00526732  0.00013319  0.0088537 0.0000
206    -37.0765547012  -0.000209407127 0.00562735  0.00014238  0.0088669 0.0000
207    -37.0767812793  -0.000226578127 0.00456441  0.00011557  0.0088807 0.0000
208    -37.0769657717  -0.000184492410 0.00573199  0.00014546  0.0088914 0.0000
209    -37.0772066769  -0.000240905188 0.00346592  0.00008793  0.0089052 0.0000
210    -37.0773556706  -0.000148993661 0.00522720  0.00013333  0.0089138 0.0000
211    -37.0775949128  -0.000239242204 0.00203968  0.00005145  0.0089272 0.0000
212    -37.0776726636  -0.000077750824 0.00778103  0.00019993  0.0089314 0.0000
213    -37.0780657775  -0.000393113856 0.00370937  0.00010077  0.0089516 0.0000
214    -37.0778196699   0.000246107518 0.00817646  0.00020898  0.0089397 0.0000
215    -37.0782113933  -0.000391723322 0.00758047  0.00019932  0.0089604 0.0000
216    -37.0786899191  -0.000478525870 0.00969821  0.00026698  0.0089815 0.0000
217    -37.0779929574   0.000696961737 0.00877371  0.00022220  0.0089498 0.0000
218    -37.0782897259  -0.000296768556 0.00852366  0.00021747  0.0089664 0.0000
219    -37.0785639341  -0.000274208156 0.01295959  0.00032883  0.0089809 0.0000
220    -37.0790408437  -0.000476909592 0.02501836  0.00063560  0.0090063 0.0000
221    -37.0800104851  -0.000969641386 0.01091831  0.00028329  0.0090575 0.0000
222    -37.0805183894  -0.000507904332 0.02816221  0.00071852  0.0090887 0.0000
223    -37.0793892577   0.001129131727 0.00693162  0.00017614  0.0090255 0.0000
224    -37.0796518235  -0.000262565861 0.01212115  0.00030849  0.0090397 0.0000
225    -37.0801409751  -0.000489151584 0.01301561  0.00033268  0.0090666 0.0000
226    -37.0807097087  -0.000568733587 0.00726031  0.00018708  0.0090978 0.0000
227    -37.0804661417   0.000243566987 0.00166232  0.00004259  0.0090838 0.0000
228    -37.0805445120  -0.000078370307 0.01265702  0.00032398  0.0090874 0.0000
229    -37.0810831224  -0.000538610404 0.00116977  0.00002747  0.0091173 0.0000
230    -37.0810591219   0.000024000502 0.01209584  0.00031578  0.0091139 0.0000
231    -37.0817708413  -0.000711719375 0.02054963  0.00054105  0.0091484 0.0000
232    -37.0805725211   0.001198320173 0.00640360  0.00016437  0.0090842 0.0000
233    -37.0807842832  -0.000211762103 0.00912775  0.00023348  0.0090896 0.0000
234    -37.0811209858  -0.000336702577 0.00692761  0.00017867  0.0090992 0.0000
235    -37.0814141429  -0.000293157045 0.00462779  0.00011876  0.0091051 0.0000
236    -37.0816201064  -0.000205963580 0.01108438  0.00029220  0.0091108 0.0000
237    -37.0821944706  -0.000574364200 0.01422544  0.00037311  0.0091438 0.0000
238    -37.0814380841   0.000756386558 0.00992851  0.00025393  0.0091110 0.0000
239    -37.0818385129  -0.000400428824 0.00933173  0.00023883  0.0091222 0.0000
240    -37.0822367400  -0.000398227086 0.01505722  0.00038529  0.0091333 0.0000
241    -37.0829028698  -0.000666129827 0.00670768  0.00017433  0.0091544 0.0000
242    -37.0826154669   0.000287402889 0.00156424  0.00004489  0.0091524 0.0000
243    -37.0825781235   0.000037343458 0.01166604  0.00030041  0.0091542 0.0000
244    -37.0831161120  -0.000537988532 0.00200835  0.00005172  0.0091647 0.0000
245    -37.0831715061  -0.000055394048 0.01160316  0.00030221  0.0091682 0.0000
246    -37.0838342783  -0.000662772249 0.01778493  0.00046564  0.0091863 0.0000
247    -37.0828227615   0.001011516772 0.00545077  0.00013985  0.0091660 0.0000
248    -37.0830338684  -0.000211106908 0.00865941  0.00022148  0.0091785 0.0000
249    -37.0833669751  -0.000333106623 0.00676729  0.00017489  0.0091948 0.0000
250    -37.0836396044  -0.000272629319 0.00630928  0.00016335  0.0092114 0.0000
251    -37.0839223738  -0.000282769458 0.01275541  0.00033306  0.0092274 0.0000
252    -37.0845890032  -0.000666629366 0.01791209  0.00046734  0.0092488 0.0000
253    -37.0836681578   0.000920845408 0.00828267  0.00021199  0.0092069 0.0000
254    -37.0839967784  -0.000328620638 0.00801703  0.00020525  0.0092215 0.0000
255    -37.0843205931  -0.000323814659 0.00762036  0.00019499  0.0092354 0.0000
256    -37.0846293785  -0.000308785435 0.02177595  0.00055758  0.0092461 0.0000
257    -37.0855296412  -0.000900262681 0.01457519  0.00037682  0.0092777 0.0000
258    -37.0862096140  -0.000679972748 0.03094253  0.00079396  0.0093038 0.0000
259    -37.0848840806   0.001325533396 0.01084883  0.00027832  0.0092570 0.0000
260    -37.0853524183  -0.000468337755 0.01204370  0.00030932  0.0092751 0.0000
261    -37.0858864671  -0.000534048735 0.01375988  0.00035377  0.0092940 0.0000
262    -37.0865149086  -0.000628441575 0.01267437  0.00032554  0.0093154 0.0000
263    -37.0859884050   0.000526503581 0.00054586  0.00001159  0.0092984 0.0000
264    -37.0860043103  -0.000015905204 0.01909078  0.00049150  0.0092993 0.0000
265    -37.0869111169  -0.000906806653 0.00891478  0.00023254  0.0093292 0.0000
266    -37.0864219048   0.000489212061 0.00621715  0.00016308  0.0093128 0.0000
267    -37.0867854276  -0.000363522804 0.00155634  0.00002883  0.0093248 0.0000
268    -37.0868953767  -0.000109949062 0.01047047  0.00027050  0.0093281 0.0000
269    -37.0874310323  -0.000535655628 0.00518224  0.00014696  0.0093443 0.0000
270    -37.0869849290   0.000446103304 0.00198722  0.00005097  0.0093312 0.0000
271    -37.0870394831  -0.000054554046 0.01052969  0.00027051  0.0093326 0.0000
272    -37.0875541472  -0.000514664099 0.02283296  0.00058776  0.0093484 0.0000
273    -37.0887309778  -0.001176830588 0.04708156  0.00120875  0.0093810 0.0000
274    -37.0864696921   0.002261285639 0.01441625  0.00037247  0.0093153 0.0000
275    -37.0857703534   0.000699338769 0.01227534  0.00031859  0.0092920 0.0000
276    -37.0852103961   0.000559957264 0.00841083  0.00022137  0.0092723 0.0000
277    -37.0848817262   0.000328669932 0.00187047  0.00004889  0.0092598 0.0000
278    -37.0848685349   0.000013191270 0.02998636  0.00077510  0.0092586 0.0000
279    -37.0863026985  -0.001434163590 0.01920495  0.00050686  0.0093122 0.0000
280    -37.0851837751   0.001118923371 0.00174941  0.00003729  0.0092694 0.0000
281    -37.0852019892  -0.000018214110 0.00691577  0.00017908  0.0092682 0.0000
282    -37.0855187361  -0.000316746862 0.00780042  0.00020031  0.0092779 0.0000
283    -37.0858589864  -0.000340250333 0.00403168  0.00010359  0.0092894 0.0000
284    -37.0860317203  -0.000172733894 0.00911679  0.00024236  0.0092951 0.0000
285    -37.0865293419  -0.000497621628 0.00995453  0.00026406  0.0093167 0.0000
286    -37.0860073987   0.000521943238 0.01161280  0.00030126  0.0092932 0.0000
287    -37.0866137865  -0.000606387826 0.00342326  0.00009819  0.0093112 0.0000
288    -37.0867434188  -0.000129632282 0.00586810  0.00015494  0.0093211 0.0000
289    -37.0870947840  -0.000351365166 0.00423662  0.00011254  0.0093295 0.0000
290    -37.0868394237   0.000255360301 0.00224475  0.00006151  0.0093233 0.0000
291    -37.0869625913  -0.000123167628 0.01439289  0.00037751  0.0093245 0.0000
292    -37.0878747532  -0.000912161860 0.01426075  0.00039046  0.0093502 0.0000
293    -37.0868072607   0.001067492487 0.00614504  0.00015942  0.0093231 0.0000
294    -37.0870222884  -0.000215027766 0.00719798  0.00018736  0.0093298 0.0000
295    -37.0873033200  -0.000281031561 0.00851944  0.00021960  0.0093388 0.0000
296    -37.0876709721  -0.000367652086 0.00715896  0.00018513  0.0093505 0.0000
297    -37.0880045461  -0.000333574057 0.01194975  0.00031261  0.0093619 0.0000
298    -37.0886291001  -0.000624553913 0.01568976  0.00040904  0.0093847 0.0000
299    -37.0878231759   0.000805924141 0.00733166  0.00018894  0.0093550 0.0000
300    -37.0881383303  -0.000315154401 0.00813538  0.00020928  0.0093646 0.0000
301    -37.0885014487  -0.000363118428 0.00689340  0.00017739  0.0093759 0.0000
302    -37.0888157497  -0.000314300913 0.01482441  0.00038257  0.0093857 0.0000
303    -37.0895285725  -0.000712822874 0.01965385  0.00050599  0.0094081 0.0000
304    -37.0886299244   0.000898648090 0.00937649  0.00024228  0.0093813 0.0000
305    -37.0890829662  -0.000453041714 0.01118153  0.00028923  0.0093959 0.0000
306    -37.0896492784  -0.000566312240 0.00137031  0.00004039  0.0094135 0.0000
307    -37.0895405937   0.000108684703 0.00589460  0.00015692  0.0094090 0.0000
308    -37.0899174531  -0.000376859421 0.00752073  0.00019699  0.0094213 0.0000
309    -37.0894852540   0.000432199152 0.01218467  0.00031704  0.0094079 0.0000
310    -37.0901624947  -0.000677240748 0.00341959  0.00009344  0.0094284 0.0000
311    -37.0903591002  -0.000196605496 0.00230917  0.00006203  0.0094335 0.0000
312    -37.0902214437   0.000137656540 0.00651398  0.00017622  0.0094295 0.0000
313    -37.0907251177  -0.000503674027 0.00584646  0.00017703  0.0094436 0.0000
314    -37.0901411284   0.000583989245 0.01281463  0.00033124  0.0094255 0.0000
315    -37.0907856787  -0.000644550284 0.01836723  0.00047752  0.0094429 0.0000
316    -37.0918386575  -0.001052978726 0.02140843  0.00056096  0.0094691 0.0000
317    -37.0907534491   0.001085208345 0.00382493  0.00009924  0.0094419 0.0000
318    -37.0909479424  -0.000194493329 0.00212735  0.00005759  0.0094469 0.0000
319    -37.0909009948   0.000046947635 0.01574122  0.00041289  0.0094455 0.0000
320    -37.0919537415  -0.001052746677 0.01003244  0.00029783  0.0094717 0.0000
321    -37.0908887269   0.001065014602 0.00329303  0.00006265  0.0094422 0.0000
322    -37.0907866579   0.000102068958 0.00984489  0.00025615  0.0094327 0.0000
323    -37.0911653742  -0.000378716305 0.00967975  0.00025001  0.0094351 0.0000
324    -37.0915858666  -0.000420492346 0.00737264  0.00019000  0.0094406 0.0000
325    -37.0919179912  -0.000332124671 0.01892173  0.00048854  0.0094460 0.0000
326    -37.0928328697  -0.000914878488 0.01020218  0.00026477  0.0094676 0.0000
327    -37.0923853316   0.000447538097 0.00440850  0.00011429  0.0094638 0.0000
328    -37.0925793521  -0.000194020500 0.00908603  0.00023470  0.0094659 0.0000
329    -37.0930181686  -0.000438816422 0.00431939  0.00011238  0.0094733 0.0000
330    -37.0932499109  -0.000231742308 0.00670589  0.00017644  0.0094795 0.0000
331    -37.0936497736  -0.000399862720 0.00898015  0.00023531  0.0094903 0.0000
332    -37.0931243226   0.000525450989 0.00749617  0.00019394  0.0094777 0.0000
333    -37.0935044767  -0.000380154100 0.00905463  0.00023534  0.0094844 0.0000
334    -37.0940120242  -0.000507547511 0.00136844  0.00003127  0.0094947 0.0000
335    -37.0940913843  -0.000079360050 0.00102320  0.00002825  0.0094994 0.0000
336    -37.0940749998   0.000016384415 0.00167809  0.00004340  0.0094967 0.0000
337    -37.0941659202  -0.000090920307 0.01233700  0.00032586  0.0094983 0.0000
338    -37.0950259969  -0.000860076740 0.01224025  0.00033609  0.0095150 0.0000
339    -37.0940453601   0.000980636746 0.00441488  0.00011708  0.0094933 0.0000
340    -37.0942069142  -0.000161554051 0.00630299  0.00016490  0.0094945 0.0000
341    -37.0944611925  -0.000254278282 0.00775669  0.00020139  0.0094957 0.0000
342    -37.0948384414  -0.000377248929 0.00593854  0.00015422  0.0095006 0.0000
343    -37.0951554180  -0.000316976632 0.00824912  0.00022665  0.0095058 0.0000
344    -37.0957217787  -0.000566360672 0.01471572  0.00039382  0.0095229 0.0000
345    -37.0947603269   0.000961451798 0.00841103  0.00021780  0.0094960 0.0000
346    -37.0951506294  -0.000390302466 0.00895234  0.00023127  0.0094985 0.0000
347    -37.0955935218  -0.000442892456 0.00564744  0.00014547  0.0095027 0.0000
348    -37.0958741185  -0.000280596651 0.00748761  0.00019402  0.0095055 0.0000
349    -37.0962821137  -0.000407995216 0.00721200  0.00019214  0.0095123 0.0000
350    -37.0959468105   0.000335303163 0.00886348  0.00023083  0.0095151 0.0000
351    -37.0964199538  -0.000473143251 0.00438933  0.00011389  0.0095189 0.0000
352    -37.0966326583  -0.000212704549 0.00504555  0.00013441  0.0095188 0.0000
353    -37.0969746764  -0.000342018100 0.00290765  0.00007866  0.0095267 0.0000
354    -37.0967631760   0.000211500446 0.00379367  0.00010628  0.0095240 0.0000
355    -37.0970711313  -0.000307955301 0.00906552  0.00024372  0.0095325 0.0000
356    -37.0976405765  -0.000569445184 0.00678359  0.00017367  0.0095323 0.0000
357    -37.0971804180   0.000460158449 0.00762522  0.00020639  0.0095327 0.0000
358    -37.0978037674  -0.000623349353 0.00450948  0.00011301  0.0095452 0.0000
359    -37.0975539314   0.000249836013 0.00824977  0.00022133  0.0095321 0.0000
360    -37.0982315469  -0.000677615535 0.00639138  0.00014366  0.0095434 0.0000
361    -37.0977068652   0.000524681689 0.00444551  0.00012172  0.0095384 0.0000
362    -37.0979833451  -0.000276479905 0.00890557  0.00023321  0.0095434 0.0000
363    -37.0986171684  -0.000633823276 0.00566640  0.00013443  0.0095519 0.0000
364    -37.0984471145   0.000170053882 0.00462109  0.00013463  0.0095467 0.0000
365    -37.0988462112  -0.000399096649 0.00462704  0.00015743  0.0095554 0.0000
366    -37.0981182566   0.000727954571 0.01023505  0.00026474  0.0095404 0.0000
367    -37.0986086508  -0.000490394210 0.01142574  0.00029419  0.0095435 0.0000
368    -37.0991229035  -0.000514252731 0.01854348  0.00048200  0.0095445 0.0000
369    -37.1003019228  -0.001179019220 0.02034921  0.00052968  0.0095562 0.0000
370    -37.0991736362   0.001128286598 0.00433242  0.00009111  0.0095481 0.0000
371    -37.0994455125  -0.000271876390 0.00737340  0.00020430  0.0098171 0.0000
372    -37.0995853319  -0.000139819403 0.01109387  0.00028813  0.0095542 0.0000
373    -37.1003230940  -0.000737762101 0.00349982  0.00009548  0.0105469 0.0000
374    -37.1001853395   0.000137754519 0.00217779  0.00005102  0.0107084 0.0000
375    -37.1004058675  -0.000220527961 0.00453156  0.00011682  0.0118726 0.0000
376    -37.1002993037   0.000106563839 0.01037931  0.00027730  0.0106982 0.0000
377    -37.1011412514  -0.000841947784 0.00946609  0.00016416  0.0119190 0.0000
378    -37.1017656546  -0.000624403124 0.01463780  0.00046152  0.0149086 0.0000
379    -37.0998110065   0.001954648054 0.00432289  0.00012441  0.0095508 0.0000
380    -37.1001343108  -0.000323304286 0.00781376  0.00020897  0.0095509 0.0000
381    -37.1008196835  -0.000685372750 0.00146949  0.00003716  0.0095585 0.0000
382    -37.1008964839  -0.000076800353 0.00082948  0.00002177  0.0095581 0.0000
383    -37.1008459643   0.000050519556 0.00582835  0.00009893  0.0095589 0.0000
384    -37.1006798434   0.000166120919 0.01045959  0.00029382  0.0097427 0.0000
385    -37.1018729127  -0.001193069259 0.01235705  0.00031640  0.0108168 0.0000
386    -37.1002708655   0.001602047135 0.00629698  0.00018715  0.0095323 0.0000
387    -37.1003416283  -0.000070762710 0.00886567  0.00023382  0.0095054 0.0000
388    -37.1007344179  -0.000392789629 0.00590596  0.00015267  0.0094853 0.0000
389    -37.1010459956  -0.000311577689 0.00642322  0.00017227  0.0094763 0.0000
390    -37.1014985478  -0.000452552275 0.00507667  0.00009161  0.0094668 0.0000
391    -37.1015832985  -0.000084750621 0.00545285  0.00015137  0.0094911 0.0000
392    -37.1012125496   0.000370748861 0.01044176  0.00027023  0.0094806 0.0000
393    -37.1018447667  -0.000632217090 0.00276366  0.00007948  0.0094650 0.0000
394    -37.1020536709  -0.000208904170 0.00167268  0.00003754  0.0094716 0.0000
395    -37.1021682331  -0.000114562203 0.00228421  0.00005210  0.0094690 0.0000
396    -37.1021374710   0.000030762114 0.00267530  0.00007677  0.0094768 0.0000
397    -37.1023355480  -0.000198077079 0.01150667  0.00030608  0.0094652 0.0000
398    -37.1033722972  -0.001036749173 0.01638803  0.00046367  0.0101685 0.0000
399    -37.1017470717   0.001625225479 0.00610256  0.00016532  0.0094922 0.0000
400    -37.1020104006  -0.000263328859 0.00745717  0.00019485  0.0095038 0.0000
401    -37.1024234113  -0.000413010745 0.00394453  0.00010156  0.0095119 0.0000
402    -37.1026460054  -0.000222594046 0.00300369  0.00007876  0.0095140 0.0000
403    -37.1028432823  -0.000197276942 0.00447170  0.00010121  0.0095170 0.0000
404    -37.1030566602  -0.000213377876 0.00473630  0.00009412  0.0095023 0.0000
405    -37.1030589812  -0.000002321020 0.00964273  0.00025309  0.0095191 0.0000
406    -37.1037598270  -0.000700845772 0.00933895  0.00026020  0.0095239 0.0000
407    -37.1029756911   0.000784135934 0.00601690  0.00015510  0.0095038 0.0000
408    -37.1032993938  -0.000323702770 0.00702476  0.00018112  0.0094974 0.0000
409    -37.1037034013  -0.000404007467 0.00268377  0.00006889  0.0094895 0.0000
410    -37.1038389184  -0.000135517137 0.00753187  0.00019932  0.0094875 0.0000
411    -37.1044196289  -0.000580710512 0.01373257  0.00036615  0.0094893 0.0000
412    -37.1034430480   0.000976580955 0.00660583  0.00016825  0.0095021 0.0000
413    -37.1037860484  -0.000343000429 0.00662762  0.00017032  0.0095010 0.0000
414    -37.1041640758  -0.000378027390 0.00433525  0.00011435  0.0095029 0.0000
415    -37.1044692115  -0.000305135695 0.00271638  0.00003911  0.0095075 0.0000
416    -37.1045617367  -0.000092525221 0.00372444  0.00010899  0.0095066 0.0000
417    -37.1041906400   0.000371096677 0.00957157  0.00024541  0.0095009 0.0000
418    -37.1047567994  -0.000566159375 0.01099598  0.00029001  0.0095029 0.0000
419    -37.1056334327  -0.000876633315 0.02089641  0.00055078  0.0095101 0.0000
420    -37.1040804161   0.001553016686 0.00302465  0.00007130  0.0094904 0.0000
421    -37.1041186575  -0.000038241464 0.00418303  0.00011319  0.0094753 0.0000
422    -37.1043034219  -0.000184764388 0.00673464  0.00017268  0.0094606 0.0000
423    -37.1046710010  -0.000367579127 0.00308876  0.00008088  0.0094492 0.0000
424    -37.1048712349  -0.000200233873 0.00811927  0.00021869  0.0094438 0.0000
425    -37.1053902912  -0.000519056292 0.00965126  0.00025878  0.0094562 0.0000
426    -37.1047227374   0.000667553777 0.00798572  0.00020602  0.0094487 0.0000
427    -37.1051799896  -0.000457252134 0.00766907  0.00019717  0.0094311 0.0000
428    -37.1056654771  -0.000485487540 0.00263253  0.00004425  0.0094195 0.0000
429    -37.1056859400  -0.000020462860 0.00208227  0.00005439  0.0094322 0.0000
430    -37.1057939663  -0.000108026386 0.00051875  0.00001407  0.0094262 0.0000
431    -37.1057590173   0.000034948987 0.01188646  0.00030874  0.0094255 0.0000
432    -37.1066381609  -0.000879143582 0.01045277  0.00028723  0.0094029 0.0000
433    -37.1057287392   0.000909421716 0.00475964  0.00012891  0.0094343 0.0000
434    -37.1059683748  -0.000239635603 0.00523173  0.00013514  0.0094430 0.0000
435    -37.1062476421  -0.000279267315 0.00461951  0.00011906  0.0094455 0.0000
436    -37.1065308914  -0.000283249268 0.00452817  0.00011639  0.0094464 0.0000
437    -37.1068283453  -0.000297453924 0.00462201  0.00010823  0.0094447 0.0000
438    -37.1067707621   0.000057583222 0.00523418  0.00014772  0.0094231 0.0000
439    -37.1070784896  -0.000307727503 0.00196866  0.00004931  0.0094358 0.0000
440    -37.1070912317  -0.000012742083 0.01085822  0.00028620  0.0094388 0.0000
441    -37.1080127759  -0.000921544198 0.01547233  0.00042474  0.0094334 0.0000
442    -37.1066774324   0.001335343503 0.00614079  0.00016430  0.0094196 0.0000
443    -37.1070265211  -0.000349088669 0.00432827  0.00011072  0.0093968 0.0000
444    -37.1072533693  -0.000226848239 0.00374594  0.00009535  0.0093865 0.0000
445    -37.1074781367  -0.000224767408 0.00395365  0.00010688  0.0093784 0.0000
446    -37.1078204669  -0.000342330240 0.00622528  0.00013067  0.0093671 0.0000
447    -37.1075626240   0.000257842989 0.00654386  0.00016989  0.0094025 0.0000
448    -37.1079709407  -0.000408316760 0.00422536  0.00012202  0.0093835 0.0000
449    -37.1083228102  -0.000351869512 0.00357728  0.00010031  0.0093609 0.0000
450    -37.1080221570   0.000300653207 0.00733569  0.00019931  0.0093837 0.0000
451    -37.1087048676  -0.000682710565 0.00608902  0.00019917  0.0093794 0.0000
452    -37.1080077707   0.000697096850 0.01005734  0.00026059  0.0093712 0.0000
453    -37.1087098631  -0.000702092400 0.00535427  0.00014751  0.0093402 0.0000
454    -37.1091631361  -0.000453272968 0.01201859  0.00031806  0.0093386 0.0000
455    -37.1081726611   0.000990475032 0.00349144  0.00009065  0.0093761 0.0000
456    -37.1082749576  -0.000102296572 0.00331741  0.00006716  0.0093724 0.0000
457    -37.1082525809   0.000022376742 0.00871056  0.00022275  0.0093784 0.0000
458    -37.1086867105  -0.000434129612 0.00552120  0.00014648  0.0093743 0.0000
459    -37.1090519442  -0.000365233674 0.00843546  0.00022288  0.0093757 0.0000
460    -37.1096069385  -0.000554994307 0.01787443  0.00045874  0.0093544 0.0000
461    -37.1084457466   0.001161191941 0.00358459  0.00009548  0.0093733 0.0000
462    -37.1085815130  -0.000135766446 0.00696930  0.00017658  0.0093708 0.0000
463    -37.1089125786  -0.000331065628 0.00549245  0.00013892  0.0093632 0.0000
464    -37.1091820078  -0.000269429162 0.00414498  0.00010533  0.0093552 0.0000
465    -37.1093928679  -0.000210860093 0.01289993  0.00032368  0.0093468 0.0000
466    -37.1100713504  -0.000678482537 0.01134877  0.00028522  0.0093301 0.0000
467    -37.1094890290   0.000582321377 0.00628898  0.00015783  0.0093484 0.0000
468    -37.1098052885  -0.000316259417 0.00647296  0.00016202  0.0093403 0.0000
469    -37.1101406753  -0.000335386799 0.00641281  0.00016036  0.0093307 0.0000
470    -37.1104844958  -0.000343820564 0.00121146  0.00002365  0.0093212 0.0000
471    -37.1104835256   0.000000970225 0.00142690  0.00003587  0.0093231 0.0000
472    -37.1105624978  -0.000078972162 0.00650839  0.00016249  0.0093218 0.0000
473    -37.1109052453  -0.000342747494 0.00235861  0.00005922  0.0093125 0.0000
474    -37.1110352313  -0.000129986097 0.00460863  0.00011615  0.0093081 0.0000
475    -37.1113112401  -0.000276008740 0.00431817  0.00010843  0.0093029 0.0000
476    -37.1110523522   0.000258887858 0.00661871  0.00016501  0.0093082 0.0000
477    -37.1114298587  -0.000377506495 0.00672445  0.00016782  0.0092997 0.0000
478    -37.1118283015  -0.000398442756 0.00838322  0.00021097  0.0092901 0.0000
479    -37.1113107729   0.000517528583 0.00377052  0.00009561  0.0092992 0.0000
480    -37.1115265342  -0.000215761347 0.00224035  0.00005943  0.0092928 0.0000
481    -37.1116525685  -0.000126034300 0.00774643  0.00019491  0.0092871 0.0000
482    -37.1121400507  -0.000487482199 0.00338244  0.00009280  0.0092724 0.0000
483    -37.1123408788  -0.000200828038 0.01217139  0.00030780  0.0092718 0.0000
484    -37.1115391286   0.000801750222 0.00370851  0.00009562  0.0092868 0.0000
485    -37.1117141752  -0.000175046667 0.00450392  0.00011847  0.0092756 0.0000
486    -37.1119309504  -0.000216775204 0.00620031  0.00015919  0.0092590 0.0000
487    -37.1122749292  -0.000343978750 0.00322821  0.00008395  0.0092370 0.0000
488    -37.1124793632  -0.000204433995 0.01112089  0.00027959  0.0092241 0.0000
489    -37.1131985603  -0.000719197147 0.01763179  0.00044854  0.0092038 0.0000
490    -37.1120058823   0.001192678008 0.00408404  0.00010389  0.0092550 0.0000
491    -37.1121781376  -0.000172255307 0.00619380  0.00015400  0.0092457 0.0000
492    -37.1124692353  -0.000291097726 0.00637709  0.00015728  0.0092326 0.0000
493    -37.1127842313  -0.000314995941 0.00587923  0.00014463  0.0092203 0.0000
494    -37.1130848826  -0.000300651306 0.01282238  0.00031194  0.0092104 0.0000
495    -37.1137405418  -0.000655659203 0.00639256  0.00015789  0.0091804 0.0000
496    -37.1134160401   0.000324501652 0.00483628  0.00011829  0.0091930 0.0000
497    -37.1136597881  -0.000243747959 0.00703205  0.00017118  0.0091819 0.0000
498    -37.1140252628  -0.000365474743 0.00436100  0.00010570  0.0091660 0.0000
499    -37.1142542037  -0.000228940900 0.00381026  0.00009338  0.0091554 0.0000
500    -37.1144560218  -0.000201818093 0.00200351  0.00004857  0.0091441 0.0000
501    -37.1143481291   0.000107892702 0.00801345  0.00019423  0.0091493 0.0000
502    -37.1147820884  -0.000433959251 0.00203297  0.00004923  0.0091275 0.0000
503    -37.1148875191  -0.000105430711 0.00475888  0.00011555  0.0091235 0.0000
504    -37.1151561088  -0.000268589687 0.00209303  0.00005151  0.0091083 0.0000
505    -37.1150280678   0.000128041027 0.00481591  0.00011666  0.0091153 0.0000
506    -37.1153043977  -0.000276329929 0.00705260  0.00017093  0.0091003 0.0000
507    -37.1157219676  -0.000417569863 0.00734647  0.00018200  0.0090782 0.0000
508    -37.1152518877   0.000470079807 0.00519095  0.00012579  0.0091059 0.0000
509    -37.1155338083  -0.000281920585 0.00352174  0.00008525  0.0090911 0.0000
510    -37.1157245302  -0.000190721849 0.01051724  0.00025390  0.0090817 0.0000
511    -37.1163557662  -0.000631236052 0.01645528  0.00040161  0.0090585 0.0000
512    -37.1153785915   0.000977174774 0.00159668  0.00004981  0.0091030 0.0000
513    -37.1152899589   0.000088632560 0.00462999  0.00011798  0.0091140 0.0000
514    -37.1155631505  -0.000273191627 0.00484103  0.00012003  0.0091081 0.0000
515    -37.1158802421  -0.000317091603 0.00289810  0.00007198  0.0090976 0.0000
516    -37.1160856606  -0.000205418442 0.00417773  0.00010291  0.0090873 0.0000
517    -37.1161286298  -0.000042969248 0.00324318  0.00005932  0.0090720 0.0000
518    -37.1161946599  -0.000066030062 0.00669321  0.00016199  0.0090793 0.0000
519    -37.1166335523  -0.000438892464 0.00315345  0.00008134  0.0090610 0.0000
520    -37.1163777911   0.000255761248 0.00670999  0.00016282  0.0090679 0.0000
521    -37.1168079896  -0.000430198554 0.00218053  0.00006275  0.0090744 0.0000
522    -37.1166405606   0.000167429027 0.00621176  0.00016483  0.0090602 0.0000
523    -37.1172226873  -0.000582126643 0.00566948  0.00011538  0.0090783 0.0000
524    -37.1170068338   0.000215853484 0.00229584  0.00005615  0.0091012 0.0000
525    -37.1171658824  -0.000159048592 0.00721317  0.00017894  0.0091108 0.0000
526    -37.1177441572  -0.000578274795 0.01463071  0.00036696  0.0091437 0.0000
527    -37.1166112205   0.001132936620 0.00358847  0.00009752  0.0090651 0.0000
528    -37.1167098264  -0.000098605824 0.00406342  0.00011574  0.0090674 0.0000
529    -37.1168660746  -0.000156248200 0.00687477  0.00017014  0.0090728 0.0000
530    -37.1173002367  -0.000434162103 0.00298502  0.00007607  0.0090708 0.0000
531    -37.1175356364  -0.000235399754 0.00669886  0.00016645  0.0090743 0.0000
532    -37.1179049713  -0.000369334895 0.01148987  0.00027846  0.0091134 0.0000
533    -37.1171334970   0.000771474343 0.00576748  0.00014229  0.0090734 0.0000
534    -37.1174594013  -0.000325904353 0.00765105  0.00018493  0.0090857 0.0000
535    -37.1179589169  -0.000499515583 0.00544769  0.00013078  0.0091044 0.0000
536    -37.1183109206  -0.000352003721 0.00654353  0.00016217  0.0091246 0.0000
537    -37.1178330240   0.000477896657 0.00095935  0.00001917  0.0091138 0.0000
538    -37.1177828615   0.000050162519 0.00679131  0.00016158  0.0091172 0.0000
539    -37.1181977544  -0.000414892896 0.00718768  0.00017322  0.0091374 0.0000
540    -37.1187146511  -0.000516896731 0.00678415  0.00016612  0.0091601 0.0000
541    -37.1182180725   0.000496578636 0.00056725  0.00001284  0.0091356 0.0000
542    -37.1181856722   0.000032400277 0.00404772  0.00009578  0.0091387 0.0000
543    -37.1184191593  -0.000233487079 0.00761238  0.00018430  0.0091515 0.0000
544    -37.1189638835  -0.000544724218 0.00393995  0.00006811  0.0091683 0.0000
545    -37.1189616096   0.000002273836 0.00069292  0.00001389  0.0091728 0.0000
546    -37.1189190493   0.000042560363 0.00427007  0.00010455  0.0091707 0.0000
547    -37.1192199760  -0.000300926767 0.00233667  0.00005508  0.0091794 0.0000
548    -37.1193765204  -0.000156544409 0.00655892  0.00017150  0.0091867 0.0000
549    -37.1201307319  -0.000754211469 0.01203025  0.00034547  0.0109775 0.0000
550    -37.1186647024   0.001466029535 0.00536554  0.00014086  0.0092049 0.0000
551    -37.1188028781  -0.000138175696 0.00819849  0.00019428  0.0092508 0.0000
552    -37.1191699874  -0.000367109289 0.00577328  0.00013467  0.0093031 0.0000
553    -37.1194576029  -0.000287615511 0.00304827  0.00007117  0.0093370 0.0000
554    -37.1196194754  -0.000161872515 0.00803872  0.00019189  0.0093542 0.0000
555    -37.1200706132  -0.000451137782 0.01094726  0.00025530  0.0093732 0.0000
556    -37.1194569109   0.000613702266 0.00786953  0.00018302  0.0093288 0.0000
557    -37.1198439507  -0.000387039778 0.00629258  0.00014479  0.0093749 0.0000
558    -37.1201681387  -0.000324188046 0.00677642  0.00015602  0.0094076 0.0000
559    -37.1205298064  -0.000361667680 0.00557216  0.00013062  0.0094355 0.0000
560    -37.1202353449   0.000294461511 0.00018760  0.00000446  0.0093995 0.0000
561    -37.1202350135   0.000000331408 0.00915118  0.00021001  0.0093990 0.0000
562    -37.1207147075  -0.000479693999 0.00346120  0.00007994  0.0094461 0.0000
563    -37.1209130984  -0.000198390918 0.00141157  0.00003851  0.0094624 0.0000
564    -37.1208303389   0.000082759507 0.00166022  0.00003965  0.0094482 0.0000
565    -37.1209293073  -0.000098968426 0.00585136  0.00013479  0.0094518 0.0000
566    -37.1212628148  -0.000333507453 0.00169172  0.00004042  0.0094828 0.0000
567    -37.1213321738  -0.000069358991 0.00465177  0.00011204  0.0094944 0.0000
568    -37.1216560225  -0.000323848713 0.00779817  0.00018851  0.0095078 0.0000
569    -37.1211052343   0.000550788164 0.00514078  0.00011731  0.0094768 0.0000
570    -37.1213450343  -0.000239799956 0.00726604  0.00016700  0.0095015 0.0000
571    -37.1216963524  -0.000351318151 0.01076267  0.00024367  0.0095409 0.0000
572    -37.1222721692  -0.000575816718 0.01250830  0.00029239  0.0095919 0.0000
573    -37.1216698473   0.000602321830 0.00237805  0.00004568  0.0095227 0.0000
574    -37.1217075026  -0.000037655249 0.00772675  0.00017600  0.0095141 0.0000
575    -37.1220705771  -0.000363074491 0.00784105  0.00017833  0.0095525 0.0000
576    -37.1224712685  -0.000400691474 0.00919478  0.00021133  0.0095925 0.0000
577    -37.1219726718   0.000498596778 0.00462571  0.00008154  0.0095417 0.0000
578    -37.1221874541  -0.000214782328 0.00807739  0.00018440  0.0095306 0.0000
579    -37.1226885754  -0.000501121359 0.00800221  0.00013723  0.0095695 0.0000
580    -37.1223113676   0.000377207805 0.00385685  0.00008793  0.0095840 0.0000
581    -37.1224868915  -0.000175523906 0.00191805  0.00004869  0.0096005 0.0000
582    -37.1225685241  -0.000081632550 0.00717580  0.00016156  0.0096104 0.0000
583    -37.1229702638  -0.000401739683 0.00287276  0.00004670  0.0096413 0.0000
584    -37.1230371924  -0.000066928606 0.00621608  0.00015785  0.0096430 0.0000
585    -37.1225911154   0.000446076999 0.00647367  0.00015400  0.0096081 0.0000
586    -37.1229494903  -0.000358374941 0.00625204  0.00014395  0.0096320 0.0000
587    -37.1233490469  -0.000399556581 0.00401586  0.00008112  0.0096570 0.0000
588    -37.1234367649  -0.000087718039 0.00888017  0.00020262  0.0096675 0.0000
589    -37.1228984136   0.000538351331 0.00193974  0.00005030  0.0096354 0.0000
590    -37.1228063162   0.000092097378 0.00667125  0.00016523  0.0096319 0.0000
591    -37.1232678031  -0.000461486891 0.00345880  0.00008143  0.0096679 0.0000
592    -37.1235142575  -0.000246454366 0.00330156  0.00008570  0.0096896 0.0000
593    -37.1236628539  -0.000148596390 0.00823144  0.00019839  0.0096951 0.0000
594    -37.1230490124   0.000613841476 0.00149914  0.00003830  0.0096567 0.0000
595    -37.1230821014  -0.000033089011 0.00579318  0.00013107  0.0096664 0.0000
596    -37.1233090910  -0.000226989595 0.00666028  0.00016000  0.0096980 0.0000
597    -37.1235717351  -0.000262644119 0.00780469  0.00018248  0.0097364 0.0000
598    -37.1239882937  -0.000416558596 0.01278863  0.00028285  0.0097789 0.0000
599    -37.1246706811  -0.000682387397 0.01610626  0.00036692  0.0098447 0.0000
600    -37.1238096438   0.000861037321 0.00071258  0.00001770  0.0097500 0.0000
601    -37.1238411915  -0.000031547697 0.00239873  0.00005302  0.0097514 0.0000
602    -37.1239476865  -0.000106494997 0.00615448  0.00013569  0.0097612 0.0000
603    -37.1242617568  -0.000314070291 0.00740855  0.00016639  0.0097874 0.0000
604    -37.1246960601  -0.000434303322 0.01681673  0.00037707  0.0098261 0.0000
605    -37.1237434100   0.000952650126 0.00164252  0.00005021  0.0097428 0.0000
606    -37.1237931191  -0.000049709115 0.00444277  0.00010657  0.0097441 0.0000
607    -37.1240047826  -0.000211663526 0.00555618  0.00012633  0.0097568 0.0000
608    -37.1243021001  -0.000297317436 0.00266916  0.00006025  0.0097755 0.0000
609    -37.1244540270  -0.000151926915 0.00958318  0.00021090  0.0097849 0.0000
610    -37.1249381390  -0.000484112046 0.01086306  0.00024167  0.0098268 0.0000
611    -37.1243295563   0.000608582772 0.00431717  0.00009764  0.0097865 0.0000
612    -37.1245509087  -0.000221352457 0.00558815  0.00012346  0.0098013 0.0000
613    -37.1248422210  -0.000291312269 0.00426690  0.00009290  0.0098221 0.0000
614    -37.1250531933  -0.000210972278 0.00952221  0.00020864  0.0098391 0.0000
615    -37.1255857377  -0.000532544403 0.01060304  0.00023598  0.0098749 0.0000
616    -37.1249897239   0.000596013756 0.00492930  0.00010995  0.0098388 0.0000
617    -37.1252704924  -0.000280768541 0.00674405  0.00014911  0.0098560 0.0000
618    -37.1256727667  -0.000402274254 0.00083476  0.00001659  0.0098802 0.0000
619    -37.1256341285   0.000038638207 0.00523546  0.00011702  0.0098825 0.0000
620    -37.1259744077  -0.000340279248 0.00702144  0.00015587  0.0099023 0.0000
621    -37.1255274538   0.000446953898 0.00705134  0.00015714  0.0098784 0.0000
622    -37.1259731400  -0.000445686119 0.00648287  0.00014386  0.0099032 0.0000
623    -37.1264161304  -0.000442990414 0.00703146  0.00016888  0.0099261 0.0000
624    -37.1258349553   0.000581175084 0.00380627  0.00008336  0.0099056 0.0000
625    -37.1260223256  -0.000187370332 0.00167177  0.00003888  0.0099233 0.0000
626    -37.1260758173  -0.000053491633 0.00781469  0.00016894  0.0099329 0.0000
627    -37.1265028535  -0.000427036247 0.00276847  0.00005472  0.0099637 0.0000
628    -37.1266004598  -0.000097606267 0.00335425  0.00008685  0.0099534 0.0000
629    -37.1262875430   0.000312916798 0.00743491  0.00016128  0.0099499 0.0000
630    -37.1266998611  -0.000412318155 0.00292438  0.00006122  0.0099808 0.0000
631    -37.1269041065  -0.000204245326 0.00294885  0.00007429  0.0099785 0.0000
632    -37.1269592940  -0.000055187510 0.00294243  0.00005354  0.0099953 0.0000
633    -37.1271149989  -0.000155704934 0.00421543  0.00007771  0.0099892 0.0000
634    -37.1269376577   0.000177341150 0.01122451  0.00025024  0.0100008 0.0000
635    -37.1277594698  -0.000821812042 0.01897105  0.00042289  0.0100390 0.0000
636    -37.1265500862   0.001209383634 0.00215164  0.00005294  0.0099667 0.0000
637    -37.1265649236  -0.000014837406 0.00480587  0.00011085  0.0099746 0.0000
638    -37.1268758263  -0.000310902752 0.00159633  0.00003636  0.0099952 0.0000
639    -37.1269891444  -0.000113318136 0.00397005  0.00010394  0.0100020 0.0000
640    -37.1274530582  -0.000463913708 0.00578990  0.00011585  0.0100138 0.0000
641    -37.1271074022   0.000345655909 0.00304350  0.00006444  0.0100218 0.0000
642    -37.1272328544  -0.000125452183 0.00711319  0.00015134  0.0100358 0.0000
643    -37.1276261476  -0.000393293205 0.00587236  0.00014283  0.0100650 0.0000
644    -37.1282149160  -0.000588768333 0.01545419  0.00034621  0.0100838 0.0000
645    -37.1270295557   0.001185360273 0.00339271  0.00007305  0.0100288 0.0000
646    -37.1269984046   0.000031151046 0.00525557  0.00011750  0.0100441 0.0000
647    -37.1271808159  -0.000182411219 0.00592532  0.00012747  0.0100716 0.0000
648    -37.1274281959  -0.000247380058 0.00417901  0.00008902  0.0100998 0.0000
649    -37.1276132090  -0.000185013044 0.01447804  0.00030339  0.0101187 0.0000
650    -37.1282864623  -0.000673253362 0.00448689  0.00010004  0.0101751 0.0000
651    -37.1281031949   0.000183267421 0.00232128  0.00005034  0.0101526 0.0000
652    -37.1281992946  -0.000096099701 0.00564513  0.00011888  0.0101634 0.0000
653    -37.1284596913  -0.000260396667 0.00362870  0.00007634  0.0101869 0.0000
654    -37.1286424907  -0.000182799380 0.00602004  0.00012749  0.0101995 0.0000
655    -37.1289604849  -0.000317994291 0.00638928  0.00013476  0.0102195 0.0000
656    -37.1286218991   0.000338585843 0.00530646  0.00011120  0.0101982 0.0000
657    -37.1288816260  -0.000259726905 0.00680957  0.00014300  0.0102184 0.0000
658    -37.1292448732  -0.000363247194 0.00121863  0.00003029  0.0102419 0.0000
659    -37.1291922004   0.000052672854 0.00470316  0.00009948  0.0102371 0.0000
660    -37.1294648520  -0.000272651674 0.00463790  0.00010435  0.0102521 0.0000
661    -37.1291585651   0.000306286947 0.00815506  0.00017149  0.0102415 0.0000
662    -37.1296099280  -0.000451362912 0.00457978  0.00010479  0.0102694 0.0000
[...]
782    -37.1378765377  -0.000213220125 0.00101350  0.00001879  0.0111374 0.0000
783    -37.1379226876  -0.000046149908 0.00403822  0.00007740  0.0111405 0.0000
784    -37.1381661761  -0.000243488505 0.00529478  0.00010538  0.0111525 0.0000
785    -37.1385403714  -0.000374195297 0.01332344  0.00028330  0.0111704 0.0000
786    -37.1375368207   0.001003550702 0.00375960  0.00009200  0.0111499 0.0000
787    -37.1376301709  -0.000093350194 0.00506263  0.00010690  0.0111673 0.0000
788    -37.1378515514  -0.000221380495 0.00358871  0.00006815  0.0111961 0.0000
789    -37.1380223081  -0.000170756626 0.00076059  0.00001411  0.0112132 0.0000
790    -37.1380556604  -0.000033352385 0.00668802  0.00014114  0.0112170 0.0000
791    -37.1383661450  -0.000310484577 0.00878897  0.00018498  0.0112217 0.0000
792    -37.1379602970   0.000405847968 0.00938428  0.00018371  0.0112142 0.0000
793    -37.1385235579  -0.000563260833 0.00403317  0.00007591  0.0112565 0.0000
794    -37.1384058716   0.000117686250 0.00237025  0.00004659  0.0112417 0.0000
795    -37.1385450241  -0.000139152491 0.00131152  0.00002770  0.0112512 0.0000
796    -37.1386281188  -0.000083094639 0.00115109  0.00002612  0.0112575 0.0000
797    -37.1385637333   0.000064385438 0.01234040  0.00023724  0.0112590 0.0000
798    -37.1393750152  -0.000811281913 0.01714936  0.00036822  0.0112966 0.0000
799    -37.1381191548   0.001255860474 0.00373436  0.00008469  0.0112441 0.0000
800    -37.1382357073  -0.000116552544 0.00454138  0.00008721  0.0112675 0.0000
801    -37.1384225486  -0.000186841321 0.00360764  0.00006656  0.0112910 0.0000
802    -37.1385785681  -0.000156019467 0.00358526  0.00006682  0.0113071 0.0000
803    -37.1387436049  -0.000165036777 0.00323878  0.00006033  0.0113182 0.0000
804    -37.1387511304  -0.000007525556 0.00275401  0.00006843  0.0113162 0.0000
805    -37.1388861777  -0.000135047280 0.00351196  0.00006452  0.0113335 0.0000
806    -37.1390459460  -0.000159768273 0.00179748  0.00003428  0.0113489 0.0000
807    -37.1391192900  -0.000073343981 0.00307390  0.00005621  0.0113528 0.0000
808    -37.1392573706  -0.000138080595 0.00102646  0.00002181  0.0113629 0.0000
809    -37.1391974724   0.000059898197 0.00633636  0.00012543  0.0113620 0.0000
810    -37.1395540870  -0.000356614684 0.00340784  0.00008447  0.0113913 0.0000
811    -37.1393185507   0.000235536299 0.00543928  0.00010011  0.0113694 0.0000
812    -37.1395724862  -0.000253935459 0.00347182  0.00007332  0.0113858 0.0000
813    -37.1397440921  -0.000171605884 0.00406695  0.00007611  0.0114059 0.0000
814    -37.1395772435   0.000166848581 0.00687404  0.00012723  0.0113892 0.0000
815    -37.1399328486  -0.000355605048 0.00809809  0.00015666  0.0114111 0.0000
816    -37.1395368395   0.000396009027 0.00566190  0.00010654  0.0113980 0.0000
817    -37.1398324545  -0.000295614997 0.00342237  0.00006614  0.0114284 0.0000
818    -37.1400375058  -0.000205051301 0.00291234  0.00007659  0.0114479 0.0000
819    -37.1400537436  -0.000016237814 0.00376643  0.00007880  0.0114304 0.0000
820    -37.1401513837  -0.000097640025 0.00315905  0.00006162  0.0114534 0.0000
821    -37.1400349837   0.000116399942 0.00981591  0.00019036  0.0114363 0.0000
822    -37.1406909882  -0.000656004511 0.01645751  0.00032885  0.0114842 0.0000
823    -37.1395749690   0.001116019266 0.00451966  0.00008643  0.0114164 0.0000
824    -37.1395167385   0.000058230439 0.00441199  0.00009538  0.0114175 0.0000
825    -37.1396944853  -0.000177746784 0.00553606  0.00010389  0.0114396 0.0000
826    -37.1399628591  -0.000268373770 0.00086558  0.00001555  0.0114607 0.0000
827    -37.1400011647  -0.000038305577 0.00747710  0.00013637  0.0114646 0.0000
828    -37.1402861526  -0.000284987992 0.00980380  0.00017726  0.0114927 0.0000
829    -37.1398492726   0.000436880047 0.00580136  0.00011277  0.0114546 0.0000
830    -37.1401435514  -0.000294278767 0.00593552  0.00010976  0.0114809 0.0000
831    -37.1404625489  -0.000318997505 0.00183304  0.00003834  0.0115048 0.0000
832    -37.1404214076   0.000041141250 0.00214519  0.00003954  0.0115058 0.0000
833    -37.1405318995  -0.000110491916 0.00237150  0.00004280  0.0115149 0.0000
834    -37.1404206132   0.000111286326 0.00970774  0.00018476  0.0115056 0.0000
835    -37.1410421500  -0.000621536761 0.00667046  0.00015692  0.0115485 0.0000
836    -37.1404592551   0.000582894877 0.00420924  0.00007933  0.0115159 0.0000
837    -37.1405913592  -0.000132104090 0.00362185  0.00006389  0.0115311 0.0000
838    -37.1407272352  -0.000135876054 0.00260090  0.00004576  0.0115443 0.0000
839    -37.1408338996  -0.000106664311 0.00510580  0.00009115  0.0115539 0.0000
840    -37.1410705362  -0.000236636652 0.00816678  0.00015350  0.0115729 0.0000
841    -37.1407983431   0.000272193145 0.00556824  0.00009862  0.0115472 0.0000
842    -37.1410437398  -0.000245396782 0.00571732  0.00010222  0.0115686 0.0000
843    -37.1413315609  -0.000287821064 0.00381284  0.00008632  0.0115896 0.0000
844    -37.1410311887   0.000300372164 0.00247723  0.00004879  0.0115730 0.0000
845    -37.1411711869  -0.000139998181 0.00085588  0.00001956  0.0115844 0.0000
846    -37.1412164506  -0.000045263645 0.00804777  0.00014170  0.0115894 0.0000
847    -37.1415733500  -0.000356899422 0.00485743  0.00008453  0.0116196 0.0000
848    -37.1414284979   0.000144852077 0.00059463  0.00001040  0.0115983 0.0000
849    -37.1414466704  -0.000018172511 0.00713093  0.00013338  0.0116007 0.0000
850    -37.1419132658  -0.000466595361 0.00658784  0.00015373  0.0116325 0.0000
851    -37.1413052268   0.000608038968 0.00609911  0.00011382  0.0116045 0.0000
852    -37.1415155896  -0.000210362762 0.00207180  0.00004326  0.0116238 0.0000
853    -37.1415925652  -0.000076975576 0.00348115  0.00006075  0.0116290 0.0000
854    -37.1417393232  -0.000146758087 0.00260924  0.00004586  0.0116420 0.0000
855    -37.1418539393  -0.000114616056 0.00610387  0.00012279  0.0116524 0.0000
856    -37.1418557515  -0.000001812243 0.01015999  0.00019573  0.0116417 0.0000
857    -37.1422080314  -0.000352279827 0.01303287  0.00024422  0.0116701 0.0000
858    -37.1414845290   0.000723502333 0.00190401  0.00005941  0.0116364 0.0000
859    -37.1414882562  -0.000003727217 0.00468469  0.00010074  0.0116572 0.0000
860    -37.1416650697  -0.000176813469 0.00595150  0.00010870  0.0116965 0.0000
861    -37.1419350432  -0.000269973499 0.00159590  0.00002735  0.0117365 0.0000
862    -37.1420256843  -0.000090641088 0.00787129  0.00014356  0.0117428 0.0000
863    -37.1423901223  -0.000364437972 0.01203719  0.00022743  0.0117709 0.0000
864    -37.1416896326   0.000700489699 0.00472527  0.00008803  0.0117043 0.0000
865    -37.1418615597  -0.000171927118 0.00559561  0.00009847  0.0117356 0.0000
866    -37.1420698671  -0.000208307380 0.00365737  0.00006400  0.0117685 0.0000
867    -37.1421985165  -0.000128649451 0.00246914  0.00004368  0.0117888 0.0000
868    -37.1422902308  -0.000091714257 0.00827394  0.00015266  0.0118036 0.0000
869    -37.1427354060  -0.000445175197 0.01005512  0.00018310  0.0118564 0.0000
870    -37.1422025603   0.000532845640 0.00488555  0.00008473  0.0117844 0.0000
871    -37.1423823334  -0.000179773045 0.00423979  0.00007267  0.0118112 0.0000
872    -37.1425384046  -0.000156071263 0.00384882  0.00006559  0.0118332 0.0000
873    -37.1426856336  -0.000147229000 0.00354312  0.00006046  0.0118529 0.0000
874    -37.1428260049  -0.000140371238 0.00320749  0.00007804  0.0118700 0.0000
875    -37.1431072119  -0.000281207048 0.00349009  0.00009311  0.0119051 0.0000
876    -37.1427805028   0.000326709184 0.00615975  0.00010551  0.0118656 0.0000
877    -37.1430280528  -0.000247550010 0.00548043  0.00009459  0.0119002 0.0000
878    -37.1432772860  -0.000249233219 0.00344559  0.00007190  0.0119341 0.0000
879    -37.1435343464  -0.000257060402 0.00568837  0.00010561  0.0119658 0.0000
880    -37.1431830528   0.000351293621 0.00112090  0.00002430  0.0119202 0.0000
881    -37.1431847944  -0.000001741664 0.00684037  0.00011721  0.0119209 0.0000
882    -37.1434873119  -0.000302517426 0.00493241  0.00008627  0.0119627 0.0000
883    -37.1437450166  -0.000257704712 0.00194737  0.00003854  0.0119970 0.0000
884    -37.1438178339  -0.000072817361 0.00278917  0.00007585  0.0120023 0.0000
885    -37.1435154620   0.000302371961 0.00532748  0.00009193  0.0119666 0.0000
886    -37.1437519776  -0.000236515629 0.00803495  0.00014363  0.0119995 0.0000
887    -37.1442341305  -0.000482152862 0.00634478  0.00012429  0.0120620 0.0000
888    -37.1439624037   0.000271726706 0.00190665  0.00003453  0.0120194 0.0000
889    -37.1440797243  -0.000117320515 0.00097091  0.00001842  0.0120349 0.0000
890    -37.1441075057  -0.000027781408 0.00848786  0.00015812  0.0120400 0.0000
891    -37.1447462832  -0.000638777493 0.00881153  0.00019175  0.0121164 0.0000
892    -37.1439193987   0.000826884442 0.00371818  0.00007359  0.0120109 0.0000
893    -37.1439782705  -0.000058871742 0.00392340  0.00007410  0.0119956 0.0000
894    -37.1442123137  -0.000234043253 0.00273395  0.00004764  0.0120099 0.0000
895    -37.1443744402  -0.000162126509 0.00265992  0.00004866  0.0120266 0.0000
896    -37.1445596572  -0.000185216976 0.00476114  0.00010748  0.0120475 0.0000
897    -37.1444465672   0.000113090049 0.00470157  0.00009645  0.0120699 0.0000
898    -37.1447888792  -0.000342312004 0.00383498  0.00007387  0.0120833 0.0000
899    -37.1446883347   0.000100544461 0.00551405  0.00010249  0.0120602 0.0000
900    -37.1451101359  -0.000421801243 0.00593276  0.00012193  0.0121071 0.0000
901    -37.1450347926   0.000075343319 0.00611905  0.00010371  0.0121182 0.0000
902    -37.1453951676  -0.000360374933 0.00743103  0.00015138  0.0121514 0.0000
903    -37.1454922612  -0.000097093607 0.00719818  0.00015570  0.0120987 0.0000
904    -37.1455772189  -0.000084957737 0.00690654  0.00012371  0.0121683 0.0000
905    -37.1465359621  -0.000958743174 0.01616415  0.00033867  0.0141828 0.0000
906    -37.1443854788   0.002150483284 0.00837894  0.00016729  0.0120635 0.0000
907    -37.1444491747  -0.000063695882 0.00727185  0.00012413  0.0120602 0.0000
908    -37.1446601973  -0.000211022598 0.00587252  0.00010222  0.0120747 0.0000
909    -37.1448915529  -0.000231355633 0.00114033  0.00001914  0.0121109 0.0000
910    -37.1449365902  -0.000045037270 0.00594029  0.00010694  0.0121167 0.0000
911    -37.1451945199  -0.000257929698 0.00574054  0.00010134  0.0121552 0.0000
912    -37.1449280132   0.000266506685 0.00742429  0.00012300  0.0121147 0.0000
913    -37.1452021381  -0.000274124874 0.00800869  0.00013588  0.0121456 0.0000
914    -37.1455599545  -0.000357816453 0.00807764  0.00013816  0.0121940 0.0000
915    -37.1452080347   0.000351919775 0.00433210  0.00007341  0.0121533 0.0000
916    -37.1453886040  -0.000180569308 0.00135677  0.00002198  0.0121768 0.0000
917    -37.1454335569  -0.000044952829 0.00717027  0.00012091  0.0121815 0.0000
918    -37.1457609704  -0.000327413491 0.00195302  0.00003388  0.0122231 0.0000
919    -37.1456706714   0.000090298982 0.00058174  0.00001398  0.0122136 0.0000
920    -37.1456985151  -0.000027843743 0.00666683  0.00011528  0.0122182 0.0000
921    -37.1460534974  -0.000354982261 0.00375140  0.00007957  0.0122610 0.0000
922    -37.1457779729   0.000275524523 0.00626813  0.00010775  0.0122248 0.0000
923    -37.1460971694  -0.000319196532 0.00197546  0.00004540  0.0122646 0.0000
924    -37.1462380748  -0.000140905442 0.00173095  0.00003783  0.0122837 0.0000
925    -37.1461161244   0.000121950456 0.00623787  0.00010761  0.0122667 0.0000
926    -37.1464661341  -0.000350009692 0.00585831  0.00010465  0.0123061 0.0000
927    -37.1461498181   0.000316315979 0.00763305  0.00013841  0.0122737 0.0000
928    -37.1466644425  -0.000514624366 0.00388128  0.00008195  0.0123343 0.0000
929    -37.1463638682   0.000300574248 0.00287488  0.00005109  0.0122910 0.0000
930    -37.1464789867  -0.000115118491 0.00494616  0.00008747  0.0122994 0.0000
931    -37.1467958543  -0.000316867616 0.00374748  0.00009924  0.0123329 0.0000
932    -37.1467060123   0.000089842039 0.00738206  0.00013626  0.0123390 0.0000
933    -37.1471860191  -0.000480006795 0.00931127  0.00021543  0.0123816 0.0000
934    -37.1462719534   0.000914065688 0.00401868  0.00008384  0.0122712 0.0000
935    -37.1463165985  -0.000044645133 0.00491400  0.00009242  0.0122614 0.0000
936    -37.1464424697  -0.000125871225 0.00307504  0.00005561  0.0122582 0.0000
937    -37.1465485559  -0.000106086150 0.00406324  0.00007596  0.0122588 0.0000
938    -37.1467653100  -0.000216754057 0.00529883  0.00010488  0.0122686 0.0000
939    -37.1469128874  -0.000147577447 0.00549320  0.00013172  0.0123194 0.0000
940    -37.1466111935   0.000301693854 0.00819522  0.00013615  0.0122590 0.0000
941    -37.1469703028  -0.000359109250 0.00209466  0.00005354  0.0122782 0.0000
942    -37.1470631157  -0.000092812861 0.00074509  0.00001945  0.0123017 0.0000
943    -37.1471207545  -0.000057638801 0.00116499  0.00002794  0.0123006 0.0000
944    -37.1471337866  -0.000013032125 0.00235856  0.00005243  0.0123108 0.0000
945    -37.1472557336  -0.000121946968 0.00784641  0.00013306  0.0122991 0.0000
946    -37.1476552741  -0.000399540508 0.01291113  0.00022885  0.0123353 0.0000
947    -37.1469143335   0.000740940534 0.00150368  0.00004450  0.0123007 0.0000
948    -37.1468097003   0.000104633184 0.00258564  0.00006704  0.0123067 0.0000
949    -37.1467970380   0.000012662365 0.00368980  0.00007266  0.0123279 0.0000
950    -37.1469329012  -0.000135863186 0.00392197  0.00006930  0.0123552 0.0000
951    -37.1471235693  -0.000190668109 0.00887056  0.00014894  0.0123832 0.0000
952    -37.1474905472  -0.000366977963 0.01152648  0.00019887  0.0124177 0.0000
953    -37.1469445198   0.000546027462 0.00118567  0.00002803  0.0123457 0.0000
954    -37.1469596773  -0.000015157555 0.00362121  0.00005882  0.0123513 0.0000
955    -37.1470621631  -0.000102485795 0.00407978  0.00006661  0.0123647 0.0000
956    -37.1471794027  -0.000117239616 0.00402072  0.00006784  0.0123745 0.0000
957    -37.1473050092  -0.000125606483 0.01153707  0.00018450  0.0123813 0.0000
958    -37.1477308399  -0.000425830650 0.01114072  0.00018062  0.0124321 0.0000
959    -37.1473636108   0.000367229070 0.00439949  0.00006961  0.0124008 0.0000
960    -37.1475089787  -0.000145367915 0.00536887  0.00008541  0.0124168 0.0000
961    -37.1476957569  -0.000186778137 0.00570261  0.00009125  0.0124355 0.0000
962    -37.1479108989  -0.000215142051 0.00161152  0.00003487  0.0124571 0.0000
963    -37.1479651408  -0.000054241929 0.00294873  0.00004877  0.0124698 0.0000
964    -37.1478338959   0.000131244980 0.00732364  0.00011773  0.0124542 0.0000
965    -37.1481324076  -0.000298511774 0.00286958  0.00004597  0.0124871 0.0000
966    -37.1482469598  -0.000114552156 0.00215816  0.00003803  0.0124985 0.0000
967    -37.1483616424  -0.000114682620 0.00110188  0.00002050  0.0125124 0.0000
968    -37.1483248881   0.000036754313 0.00358553  0.00005915  0.0125105 0.0000
969    -37.1484958306  -0.000170942484 0.00568791  0.00009289  0.0125282 0.0000
970    -37.1487648269  -0.000268996336 0.00487862  0.00008494  0.0125549 0.0000
971    -37.1485005396   0.000264287297 0.00413342  0.00007416  0.0125290 0.0000
972    -37.1487509491  -0.000250409511 0.00375888  0.00006529  0.0125571 0.0000
973    -37.1489798079  -0.000228858773 0.00222357  0.00004472  0.0125802 0.0000
974    -37.1488627253   0.000117082602 0.00472509  0.00008025  0.0125643 0.0000
975    -37.1491335140  -0.000270788667 0.00419820  0.00008053  0.0125918 0.0000
976    -37.1489775283   0.000155985710 0.00927111  0.00016347  0.0125813 0.0000
977    -37.1496134232  -0.000635894904 0.00918726  0.00021875  0.0126402 0.0000
978    -37.1487439626   0.000869460578 0.00318994  0.00007896  0.0125459 0.0000
979    -37.1488292152  -0.000085252618 0.00437631  0.00007400  0.0125387 0.0000
980    -37.1490197721  -0.000190556862 0.00142319  0.00002355  0.0125481 0.0000
981    -37.1490843200  -0.000064547890 0.00486091  0.00008536  0.0125518 0.0000
982    -37.1493666611  -0.000282341125 0.00571330  0.00013608  0.0125740 0.0000
983    -37.1490939369   0.000272724141 0.00436751  0.00007503  0.0125797 0.0000
984    -37.1492631893  -0.000169252368 0.00609881  0.00010188  0.0125880 0.0000
985    -37.1495776353  -0.000314446019 0.00536575  0.00009609  0.0126122 0.0000
986    -37.1493117044   0.000265930879 0.00407191  0.00008027  0.0125823 0.0000
987    -37.1495603160  -0.000248611547 0.00179873  0.00004272  0.0126130 0.0000
988    -37.1496609882  -0.000100672207 0.00543020  0.00011016  0.0126283 0.0000
989    -37.1499301718  -0.000269183647 0.00520038  0.00011270  0.0126326 0.0000
990    -37.1496664454   0.000263726442 0.00126133  0.00003193  0.0126301 0.0000
991    -37.1497834678  -0.000117022429 0.00987474  0.00017614  0.0126405 0.0000
992    -37.1504844399  -0.000700972106 0.01432474  0.00031457  0.0126964 0.0000
993    -37.1492790621   0.001205377811 0.00331572  0.00008154  0.0125781 0.0000
994    -37.1493108349  -0.000031772766 0.00202884  0.00005527  0.0125591 0.0000
995    -37.1494441743  -0.000133339365 0.00409442  0.00006962  0.0125517 0.0000
996    -37.1496804390  -0.000236264702 0.00308648  0.00005528  0.0125621 0.0000
997    -37.1498628787  -0.000182439732 0.00512799  0.00010992  0.0125754 0.0000
998    -37.1495969955   0.000265883165 0.00294766  0.00005548  0.0125931 0.0000
999    -37.1497286373  -0.000131641825 0.00587377  0.00009950  0.0125912 0.0000

               *****************************************************
               *                      ERROR                        *
               *        SCF NOT CONVERGED AFTER 1000 CYCLES         *
               *****************************************************


---------------
SCF CONVERGENCE
---------------

  Last Energy change         ...   -1.3164e-04  Tolerance :   1.0000e-06
  Last MAX-Density change    ...    5.8738e-03  Tolerance :   1.0000e-05
  Last RMS-Density change    ...    9.9505e-05  Tolerance :   1.0000e-06
  Last DIIS Error            ...    1.2591e-02  Tolerance :   1.0000e-06

             **** DENSITY FILE WAS UPDATED (39_Y_atom39.scfp) ****
             **** ENERGY FILE WAS UPDATED (39_Y_atom39.en.tmp) ****

     --------------------------------------------------------------------
                                      WARNING
     The wavefunction IS NOT YET CONVERGED! It shows however signs of
     convergence. Therefore the wavefunction will be stored and can be
     used as input for another calculation. 
     DO NOT USE THIS WAVEFUNCTION  FOR ANYHTING ELSE. It is NOT RELIABLE
     --------------------------------------------------------------------

-------
TIMINGS
-------

Total SCF time: 0 days 0 hours 1 min 0 sec 

Total time                  ....      60.577 sec
Sum of individual times     ....      59.935 sec  ( 98.9%)

Fock matrix formation       ....      57.200 sec  ( 94.4%)
Diagonalization             ....       2.417 sec  (  4.0%)
Density matrix formation    ....       0.077 sec  (  0.1%)
Population analysis         ....       0.000 sec  (  0.0%)
Initial guess               ....       0.001 sec  (  0.0%)
Orbital Transformation      ....       0.000 sec  (  0.0%)
Orbital Orthonormalization  ....       0.000 sec  (  0.0%)
DIIS solution               ....       0.240 sec  (  0.4%)

-------------------------   --------------------
FINAL SINGLE POINT ENERGY       -37.149728637348   (Wavefunction not fully converged!)
-------------------------   --------------------



     ------------------------------------------------------------------------------
                                      ERROR
     This wavefunction IS NOT FULLY CONVERGED! 
     You can't use it for properties or numerical calculations !
     Aborting the run ...
     Please restart calculation (with larger maxiter/different convergence flags)
     ------------------------------------------------------------------------------


