
                                 *****************
                                 * O   R   C   A *
                                 *****************

           --- An Ab Initio, DFT and Semiempirical electronic structure package ---

                  #######################################################
                  #                        -***-                        #
                  #          Department of theory and spectroscopy      #
                  #               Directorship: Frank Neese             #
                  #        Max Planck Institute fuer Kohlenforschung    #
                  #                Kaiser Wilhelm Platz 1               #
                  #                 D-45470 Muelheim/Ruhr               #
                  #                      Germany                        #
                  #                                                     #
                  #                  All rights reserved                #
                  #                        -***-                        #
                  #######################################################


                         Program Version 4.2.0 -  RELEASE  -


 With contributions from (in alphabetic order):
   Daniel Aravena         : Magnetic Suceptibility
   Michael Atanasov       : Ab Initio Ligand Field Theory (pilot matlab implementation)
   Alexander A. Auer      : GIAO ZORA, VPT2
   Ute Becker             : Parallelization
   Giovanni Bistoni       : ED, misc. LED, open-shell LED, HFLED
   Martin Brehm           : Molecular dynamics
   Dmytro Bykov           : SCF Hessian
   Vijay G. Chilkuri      : MRCI spin determinant printing, contributions to CSF-ICE
   Dipayan Datta          : RHF DLPNO-CCSD density
   Achintya Kumar Dutta   : EOM-CC, STEOM-CC
   Dmitry Ganyushin       : Spin-Orbit,Spin-Spin,Magnetic field MRCI
   Miquel Garcia          : C-PCM Hessian, Gaussian charge scheme
   Yang Guo               : DLPNO-NEVPT2, CIM, IAO-localization
   Andreas Hansen         : Spin unrestricted coupled pair/coupled cluster methods
   Benjamin Helmich-Paris : CASSCF linear response (MC-RPA)
   Lee Huntington         : MR-EOM, pCC
   Robert Izsak           : Overlap fitted RIJCOSX, COSX-SCS-MP3, EOM
   Christian Kollmar      : KDIIS, OOCD, Brueckner-CCSD(T), CCSD density
   Simone Kossmann        : Meta GGA functionals, TD-DFT gradient, OOMP2, MP2 Hessian
   Martin Krupicka        : AUTO-CI
   Lucas Lang             : DCDCAS
   Dagmar Lenk            : GEPOL surface, SMD
   Dimitrios Liakos       : Extrapolation schemes; Compound Job, initial MDCI parallelization
   Dimitrios Manganas     : Further ROCIS development; embedding schemes
   Dimitrios Pantazis     : SARC Basis sets
   Taras Petrenko         : DFT Hessian,TD-DFT gradient, ASA, ECA, R-Raman, ABS, FL, XAS/XES, NRVS
   Peter Pinski           : DLPNO-MP2, DLPNO-MP2 Gradient
   Christoph Reimann      : Effective Core Potentials
   Marius Retegan         : Local ZFS, SOC
   Christoph Riplinger    : Optimizer, TS searches, QM/MM, DLPNO-CCSD(T), (RO)-DLPNO pert. Triples
   Tobias Risthaus        : Range-separated hybrids, TD-DFT gradient, RPA, STAB
   Michael Roemelt        : Original ROCIS implementation
   Masaaki Saitow         : Open-shell DLPNO-CCSD energy and density
   Barbara Sandhoefer     : DKH picture change effects
   Avijit Sen             : IP-ROCIS
   Kantharuban Sivalingam : CASSCF convergence, NEVPT2, FIC-MRCI
   Bernardo de Souza      : ESD, SOC TD-DFT
   Georgi Stoychev        : AutoAux, RI-MP2 NMR
   Willem Van den Heuvel  : Paramagnetic NMR
   Boris Wezisla          : Elementary symmetry handling
   Frank Wennmohs         : Technical directorship


 We gratefully acknowledge several colleagues who have allowed us to
 interface, adapt or use parts of their codes:
   Stefan Grimme, W. Hujo, H. Kruse,             : VdW corrections, initial TS optimization,
                  C. Bannwarth                     DFT functionals, gCP, sTDA/sTD-DF
   Ed Valeev, F. Pavosevic, A. Kumar             : LibInt (2-el integral package), F12 methods
   Garnet Chan, S. Sharma, J. Yang, R. Olivares  : DMRG
   Ulf Ekstrom                                   : XCFun DFT Library
   Mihaly Kallay                                 : mrcc  (arbitrary order and MRCC methods)
   Andreas Klamt, Michael Diedenhofen            : otool_cosmo (COSMO solvation model)
   Jiri Pittner, Ondrej Demel                    : Mk-CCSD
   Frank Weinhold                                : gennbo (NPA and NBO analysis)
   Christopher J. Cramer and Donald G. Truhlar   : smd solvation model
   Lars Goerigk                                  : TD-DFT with DH, B97 family of functionals
   V. Asgeirsson, H. Jonsson                     : NEB implementation
   FAccTs GmbH                                   : IRC, NEB, NEB-TS, Multilevel, MM, QM/MM, CI optimization
   S Lehtola, MJT Oliveira, MAL Marques          : LibXC Library


 Your calculation uses the libint2 library for the computation of 2-el integrals
 For citations please refer to: http://libint.valeyev.net

 Your ORCA version has been built with support for libXC version: 4.2.3
 For citations please refer to: https://tddft.org/programs/libxc/

 This ORCA versions uses:
   CBLAS   interface :  Fast vector & matrix operations
   LAPACKE interface :  Fast linear algebra routines
   SCALAPACK package :  Parallel linear algebra routines


----- Orbital basis set information -----
Your calculation utilizes the basis: aug-cc-pVQZ-PP 
       Ca, Sr, Ba, Ra : Obtained from the Peterson Research Group Website (tyr0.chem.wsu.edu/~kipeters) Feb. 2017
                        H. Li, H. Feng, W. Sun, Y. Zhang, Q. Fan, K. A. Peterson, Y. Xie, H. F. Schaefer III, Mol. Phys. 111, 2292 (2013)
  Cu-Zn, Ag-Cd, Au-Hg : Obtained from the ccRepo (grant-hill.group.shef.ac.uk/ccrepo) Feb. 2017
                        K. A. Peterson, C. Puzzarini, Theor. Chem. Acc. 114, 283 (2005)
  Ga-Kr, In-Xe, Tl-Rn : Obtained from the ccRepo (grant-hill.group.shef.ac.uk/ccrepo) Feb. 2017
                        K. A. Peterson, J. Chem. Phys. 119, 11099 (2003)
                        K. A. Peterson, D. Figgen, E. Goll, H. Stoll, M. Dolg, J. Chem. Phys. 119, 11113 (2003)
                 Y-Pd : Obtained from the ccRepo (grant-hill.group.shef.ac.uk/ccrepo) Feb. 2017
                        K. A. Peterson, D. Figgen, M. Dolg, H. Stoll, J. Chem. Phys. 126, 124101 (2007)
                Hf-Pt : Obtained from the ccRepo (grant-hill.group.shef.ac.uk/ccrepo) Feb. 2017
                        D. Figgen, K. A. Peterson, M. Dolg, H. Stoll, J. Chem. Phys. 130, 164108 (2009)

cite the ECPs for Zr [SK MCDHF RSC] as follows:
O: B. Metz and H. Stoll, private communication (KAP)
Tl: B. Metz, M. Schweizer, H. Stoll, M. Dolg, W. Liu, Theor. Chem. Acc. 104, 22 (2000)
Ga-As, In-Sb, Pb-Bi: B. Metz, H. Stoll, M. Dolg, J. Chem. Phys. 113, 2563 (2000)
Se-Kr, Te-Xe, Po-Rn: K.A. Peterson, D. Figgen, E. Goll, H. Stoll, and M. Dolg, J. Chem. Phys., in press (2003)
Cu-Zn, Ag-Cd, Au-Hg: D. Figgen, G. Rauhut, M. Dolg, and H. Stoll, Chem. Phys. 311, 227 (2005)
Y-Pd: K.A. Peterson, D. Figgen, M. Dolg, H. Stoll, J. Chem. Phys. 126, 124101 (2007)
I: K. A. Peterson, B. C. Shepler, D. Figgen, H. Stoll, J. Phys. Chem. A 110, 13877 (2006)
Hf-Pt: D. Figgen, K.A. Peterson, M. Dolg, H. Stoll, J. Chem. Phys. 130, 164108 (2009)
Ca, Sr, Ba, Ra: I.S. Lim, H. Stoll, P. Schwerdtfeger, J. Chem. Phys. 124, 034107 (2006)

ECP parameters for Zr [SK MCDHF RSC] have been obtained from:
cc-pVDZ-PP  EMSL  Basis Set Exchange Library   4/7/16 5:27 AM
Ca, Sr, Ba, Ra: http://www.tc.uni-koeln.de/PP/index.en.html 3/16/17 1:54 PM

================================================================================
                                        WARNINGS
                       Please study these warnings very carefully!
================================================================================


WARNING: your system is open-shell and RHF/RKS was chosen
  ===> : WILL SWITCH to UHF/UKS


WARNING: MDCI localization with Augmented Hessian Foster-Boys
  ===> : Switching off randomization!

WARNING: Post HF methods need fully converged wavefunctions
  ===> : Setting SCFConvForced true
         You can overwrite this default with %scf ConvForced false 


INFO   : the flag for use of LIBINT has been found!

================================================================================
                                       INPUT FILE
================================================================================
NAME = 40_Zr.in
|  1> #
|  2> # 40_Zr CCSD(T)/aug-cc-pVQZ-PP
|  3> #
|  4> ! CCSD(T) aug-cc-pVQZ-PP verytightscf slowconv kdiis
|  5> 
|  6> *xyz 0 3
|  7>  Zr 0.0 0.0 0.0
|  8> *
|  9> 
| 10> %maxcore 5000 
| 11> 
| 12> %pal
| 13> nprocs 24
| 14> end
| 15> 
| 16> %mdci
| 17> maxiter 100
| 18> maxdiis 25
| 19> end
| 20> 
| 21> 
| 22>                          ****END OF INPUT****
================================================================================

                       ****************************
                       * Single Point Calculation *
                       ****************************

---------------------------------
CARTESIAN COORDINATES (ANGSTROEM)
---------------------------------
  Zr     0.000000    0.000000    0.000000

----------------------------
CARTESIAN COORDINATES (A.U.)
----------------------------
  NO LB      ZA    FRAG     MASS         X           Y           Z
   0 Zr   12.0000*   0    91.220    0.000000    0.000000    0.000000
* core charge reduced due to ECP

--------------------------------
INTERNAL COORDINATES (ANGSTROEM)
--------------------------------
 Zr     0   0   0     0.000000000000     0.00000000     0.00000000

---------------------------
INTERNAL COORDINATES (A.U.)
---------------------------
 Zr     0   0   0     0.000000000000     0.00000000     0.00000000

---------------------
BASIS SET INFORMATION
---------------------
There are 1 groups of distinct atoms

 Group   1 Type Zr  : 67s52p38d4f3g2h contracted to 7s7p6d4f3g2h pattern {131313131311/101010101011/999911/1111/111/11}

Atom   0Zr   basis set group =>   1
-------------------------
ECP PARAMETER INFORMATION
-------------------------

 Group 1, Type Zr ECP SK MCDHF RSC (replacing 28 core electrons, lmax=4)

Atom   0Zr   ECP group =>   1



           ************************************************************
           *        Program running with 24 parallel MPI-processes    *
           *              working on a common directory               *
           ************************************************************
------------------------------------------------------------------------------
                           ORCA GTO INTEGRAL CALCULATION
------------------------------------------------------------------------------

                         BASIS SET STATISTICS AND STARTUP INFO

 # of primitive gaussian shells          ...  166
 # of primitive gaussian functions       ...  490
 # of contracted shells                  ...   29
 # of contracted basis functions         ...  135
 Highest angular momentum                ...    5
 Maximum contraction depth               ...   13
 Integral package used                   ... LIBINT
 Integral threshhold            Thresh   ...  1.000e-12
 Primitive cut-off              TCut     ...  1.000e-14


------------------------------ INTEGRAL EVALUATION ----------------------------


 * One electron integrals 

   ECP integrals                         ... done
 Pre-screening matrix                    ... done
 Shell pair data                         ... done (   0.000 sec)



           ************************************************************
           *        Program running with 24 parallel MPI-processes    *
           *              working on a common directory               *
           ************************************************************
-------------------------------------------------------------------------------
                                 ORCA SCF
-------------------------------------------------------------------------------

------------
SCF SETTINGS
------------
Hamiltonian:
 Ab initio Hamiltonian  Method          .... Hartree-Fock(GTOs)


General Settings:
 Integral files         IntName         .... 40_Zr
 Hartree-Fock type      HFTyp           .... UHF
 Total Charge           Charge          ....    0
 Multiplicity           Mult            ....    3
 Number of Electrons    NEL             ....   12
 Basis Dimension        Dim             ....  135
 Nuclear Repulsion      ENuc            ....      0.0000000000 Eh

Convergence Acceleration:
 DIIS                   CNVDIIS         .... off
 Newton-Raphson         CNVNR           .... off
 SOSCF                  CNVSOSCF        .... off
 Level Shifting         CNVShift        .... off
 Zerner damping         CNVZerner       .... off
 Static damping         CNVDamp         .... off
 Fernandez-Rico         CNVRico         .... off

SCF Procedure:
 Maximum # iterations   MaxIter         ....   125
 SCF integral mode      SCFMode         .... Direct
   Integral package                     .... LIBINT
 Reset frequency        DirectResetFreq ....    20
 Integral Threshold     Thresh          ....  1.000e-12 Eh
 Primitive CutOff       TCut            ....  1.000e-14 Eh

Convergence Tolerance:
 Convergence Check Mode ConvCheckMode   .... Total+1el-Energy
 Convergence forced     ConvForced      .... 1
 Energy Change          TolE            ....  1.000e-09 Eh
 1-El. energy change                    ....  1.000e-06 Eh


Diagonalization of the overlap matrix:
Smallest eigenvalue                        ... 1.822e-04
Time for diagonalization                   ...    0.005 sec
Threshold for overlap eigenvalues          ... 1.000e-08
Number of eigenvalues below threshold      ... 0
Time for construction of square roots      ...    0.003 sec
Total time needed                          ...    0.008 sec

-------------------
DFT GRID GENERATION
-------------------

General Integration Accuracy     IntAcc      ...  4.340
Radial Grid Type                 RadialGrid  ... Gauss-Chebyshev
Angular Grid (max. acc.)         AngularGrid ... Lebedev-110
Angular grid pruning method      GridPruning ... 3 (G Style)
Weight generation scheme         WeightScheme... Becke
Basis function cutoff            BFCut       ...    1.0000e-12
Integration weight cutoff        WCut        ...    1.0000e-14
Grids for H and He will be reduced by one unit

# of grid points (after initial pruning)     ...   3280 (   0.0 sec)
# of grid points (after weights+screening)   ...   3280 (   0.0 sec)
Grid point division into batches done        ...    0.0 sec
Reduced shell lists constructed in    0.0 sec

Total number of grid points                  ...     3280
Total number of batches                      ...       52
Average number of points per batch           ...       63
Average number of grid points per atom       ...     3280
Average number of shells per batch           ...    18.75 (64.66%)
Average number of basis functions per batch  ...    75.75 (56.11%)
Average number of large shells per batch     ...    17.25 (92.00%)
Average number of large basis fcns per batch ...    68.25 (90.10%)
Maximum spatial batch extension              ...  23.83, 37.49, 37.49 au
Average spatial batch extension              ...   1.37,  1.91,  2.16 au

Time for grid setup =    0.023 sec

------------------------------
INITIAL GUESS: MODEL POTENTIAL
------------------------------
Loading Hartree-Fock densities                     ... done
  calling /sw/apps/orca/orca_4_2_0_linux_x86-64_openmpi314/orca 40_Zr_atom40.inp > 40_Zr_atom40.out in order to generate an atomic fitting density for atom 0 (Zr with ECP) on-the-fly... 
    atom 0 (Zr), assumed electronic state with S=3: 1s2 2s2 2p6 3s2 3p6 4s2 3d10 4p6 4d2 5s2           ... done
Calculating cut-offs                               ... done
Setting up the integral package                    ... done
Initializing the effective Hamiltonian             ... done
Starting the Coulomb interaction                   ... done (   0.0 sec)
Reading the grid                                   ... done
Mapping shells                                     ... done
Starting the XC term evaluation                    ... done (   0.0 sec)
Transforming the Hamiltonian                       ... done (   0.0 sec)
Diagonalizing the Hamiltonian                      ... done (   0.0 sec)
Back transforming the eigenvectors                 ... done (   0.0 sec)
Now organizing SCF variables                       ... done
                      ------------------
                      INITIAL GUESS DONE (  35.1 sec)
                      ------------------
--------------
SCF ITERATIONS
--------------
ITER       Energy         Delta-E        Max-DP      RMS-DP      [F,P]   Gradient Norm
               ***  Starting incremental Fock matrix formation  ***
                             ****Resetting KDIIS****
                             ****Turning on KDIIS(Cayley)****
  0    -46.2368243543   0.000000000000 0.07031882  0.00185045  0.1415089   0.112399346
  1    -46.2457843230  -0.008959968664 0.11695633  0.00314280  0.1285913   0.101983660
  2    -46.2639925412  -0.018208218162 0.18858982  0.00423401  0.1033084   0.082231345
  3    -46.2875661773  -0.023573636132 0.27866569  0.00507460  0.0613562   0.048840861
  4    -46.3027669737  -0.015200796436 0.07217954  0.00054195  0.0088334   0.003751415
  5    -46.3042332440  -0.001466270228 0.04973674  0.00040666  0.0066806   0.005526007
  6    -46.3053282809  -0.001095036905 0.04537818  0.00040132  0.0044235   0.001945315
  7    -46.3058593742  -0.000531093314 0.01671249  0.00016939  0.0023031   0.001222509
  8    -46.3060284553  -0.000169081155 0.02484821  0.00023545  0.0017294   0.000897675
  9    -46.3061965739  -0.000168118574 0.00871111  0.00010170  0.0008984   0.000761041
 10    -46.3062714786  -0.000074904673 0.01502499  0.00016996  0.0009359   0.000552607
 11    -46.3063610417  -0.000089563109 0.02043125  0.00023248  0.0006793   0.000427011
 12    -46.3064318665  -0.000070824796 0.00773689  0.00008106  0.0003429   0.000239157
 13    -46.3064418771  -0.000010010624 0.00250346  0.00003378  0.0002685   0.000167871
 14    -46.3064453053  -0.000003428202 0.00203813  0.00002642  0.0002147   0.000123428
 15    -46.3064476180  -0.000002312714 0.00195122  0.00002357  0.0001549   0.000087030
 16    -46.3064488072  -0.000001189166 0.00063883  0.00000878  0.0000988   0.000047394
 17    -46.3064489287  -0.000000121520 0.00034569  0.00000402  0.0000757   0.000036902
 18    -46.3064490005  -0.000000071776 0.00051583  0.00000544  0.0000591   0.000031024
 19    -46.3064491403  -0.000000139812 0.00035889  0.00000438  0.0000321   0.000024674
               *** Restarting incremental Fock matrix formation ***
                             ****Resetting KDIIS****
 20    -46.3064492296  -0.000000089251 0.00000862  0.00000009  0.0000328   0.000017058
 21    -46.3064492312  -0.000000001638 0.00008352  0.00000082  0.0000326   0.000016897
 22    -46.3064492463  -0.000000015146 0.00030671  0.00000294  0.0000306   0.000015867
 23    -46.3064492953  -0.000000048951 0.00100406  0.00000966  0.0000242   0.000012660
 24    -46.3064493863  -0.000000090987 0.00031136  0.00000320  0.0000095   0.000005519
 25    -46.3064493956  -0.000000009371 0.00003589  0.00000038  0.0000029   0.000002317
 26    -46.3064493961  -0.000000000477 0.00002360  0.00000027  0.0000025   0.000001657
 27    -46.3064493965  -0.000000000386 0.00002417  0.00000027  0.0000018   0.000001137
 28    -46.3064493968  -0.000000000259 0.00001600  0.00000017  0.0000007   0.000000664
 29    -46.3064493968  -0.000000000038 0.00000170  0.00000002  0.0000002   0.000000236
                 **** Energy Check signals convergence ****
                    *** KDIIS BlockDiag (171.235 sec) ***

               *****************************************************
               *                     SUCCESS                       *
               *           SCF CONVERGED AFTER  30 CYCLES          *
               *****************************************************


----------------
TOTAL SCF ENERGY
----------------

Total Energy       :          -46.30644940 Eh           -1260.06255 eV

Components:
Nuclear Repulsion  :            0.00000000 Eh               0.00000 eV
Electronic Energy  :          -46.30644940 Eh           -1260.06255 eV
One Electron Energy:          -77.57341027 Eh           -2110.87981 eV
Two Electron Energy:           31.26696087 Eh             850.81726 eV

Virial components:
Potential Energy   :          -61.39298856 Eh           -1670.58815 eV
Kinetic Energy     :           15.08653917 Eh             410.52560 eV
Virial Ratio       :            4.06938847


---------------
SCF CONVERGENCE
---------------

  Last Energy change         ...   -1.1227e-12  Tolerance :   1.0000e-09
  Last MAX-Density change    ...    5.5077e-07  Tolerance :   1.0000e-08
  Last RMS-Density change    ...    9.5777e-09  Tolerance :   1.0000e-09

             **** THE GBW FILE WAS UPDATED (40_Zr.gbw) ****
             **** DENSITY FILE WAS UPDATED (40_Zr.scfp) ****
             **** ENERGY FILE WAS UPDATED (40_Zr.en.tmp) ****
----------------------
UHF SPIN CONTAMINATION
----------------------

Expectation value of <S**2>     :     2.016962
Ideal value S*(S+1) for S=1.0   :     2.000000
Deviation                       :     0.016962

             **** THE GBW FILE WAS UPDATED (40_Zr.gbw) ****
             **** DENSITY FILE WAS UPDATED (40_Zr.scfp) ****
----------------
ORBITAL ENERGIES
----------------
                 SPIN UP ORBITALS
  NO   OCC          E(Eh)            E(eV) 
   0   1.0000      -2.539077       -69.0918 
   1   1.0000      -1.547157       -42.1003 
   2   1.0000      -1.547157       -42.1003 
   3   1.0000      -1.547156       -42.1003 
   4   1.0000      -0.326089        -8.8733 
   5   1.0000      -0.326089        -8.8733 
   6   1.0000      -0.231095        -6.2884 
   7   0.0000       0.011225         0.3055 
   8   0.0000       0.011225         0.3055 
   9   0.0000       0.011225         0.3055 
  10   0.0000       0.023143         0.6298 
  11   0.0000       0.034133         0.9288 
  12   0.0000       0.034133         0.9288 
  13   0.0000       0.034133         0.9288 
  14   0.0000       0.035298         0.9605 
  15   0.0000       0.035298         0.9605 
  16   0.0000       0.037684         1.0254 
  17   0.0000       0.037684         1.0254 
  18   0.0000       0.037684         1.0254 
  19   0.0000       0.069893         1.9019 
  20   0.0000       0.069894         1.9019 
  21   0.0000       0.069894         1.9019 
  22   0.0000       0.109506         2.9798 
  23   0.0000       0.109506         2.9798 
  24   0.0000       0.124395         3.3850 
  25   0.0000       0.124396         3.3850 
  26   0.0000       0.124396         3.3850 
  27   0.0000       0.130269         3.5448 
  28   0.0000       0.130269         3.5448 
  29   0.0000       0.130269         3.5448 
  30   0.0000       0.164184         4.4677 
  31   0.0000       0.185197         5.0395 
  32   0.0000       0.185197         5.0395 
  33   0.0000       0.185197         5.0395 
  34   0.0000       0.185468         5.0468 
  35   0.0000       0.185468         5.0468 
  36   0.0000       0.185468         5.0468 
  37   0.0000       0.185764         5.0549 
  38   0.0000       0.291768         7.9394 
  39   0.0000       0.291768         7.9394 
  40   0.0000       0.322456         8.7745 
  41   0.0000       0.322456         8.7745 
  42   0.0000       0.322456         8.7745 
  43   0.0000       0.359351         9.7784 
  44   0.0000       0.359351         9.7784 
  45   0.0000       0.359351         9.7784 
  46   0.0000       0.431547        11.7430 
  47   0.0000       0.431547        11.7430 
  48   0.0000       0.431547        11.7430 
  49   0.0000       0.431893        11.7524 
  50   0.0000       0.431893        11.7524 
  51   0.0000       0.431976        11.7547 
  52   0.0000       0.431976        11.7547 
  53   0.0000       0.431976        11.7547 
  54   0.0000       0.432123        11.7587 
  55   0.0000       0.531590        14.4653 
  56   0.0000       0.531590        14.4653 
  57   0.0000       0.531590        14.4653 
  58   0.0000       0.540282        14.7018 
  59   0.0000       0.540282        14.7018 
  60   0.0000       0.540282        14.7018 
  61   0.0000       0.550466        14.9789 
  62   0.0000       0.657952        17.9038 
  63   0.0000       0.802660        21.8415 
  64   0.0000       0.802660        21.8415 
  65   0.0000       0.837811        22.7980 
  66   0.0000       0.837811        22.7980 
  67   0.0000       0.837811        22.7980 
  68   0.0000       1.009025        27.4570 
  69   0.0000       1.009025        27.4570 
  70   0.0000       1.009025        27.4570 
  71   0.0000       1.009273        27.4637 
  72   0.0000       1.009273        27.4637 
  73   0.0000       1.009343        27.4656 
  74   0.0000       1.009343        27.4656 
  75   0.0000       1.009343        27.4656 
  76   0.0000       1.010510        27.4974 
  77   0.0000       1.010510        27.4974 
  78   0.0000       1.010510        27.4974 
  79   0.0000       1.012762        27.5587 
  80   0.0000       1.012762        27.5587 
  81   0.0000       1.012762        27.5587 
  82   0.0000       1.269760        34.5519 
  83   0.0000       1.270743        34.5787 
  84   0.0000       1.270743        34.5787 
  85   0.0000       1.270743        34.5787 
  86   0.0000       1.271730        34.6055 
  87   0.0000       1.271730        34.6055 
  88   0.0000       1.273597        34.6563 
  89   0.0000       1.273597        34.6563 
  90   0.0000       1.273597        34.6563 
  91   0.0000       1.351217        36.7685 
  92   0.0000       1.351218        36.7685 
  93   0.0000       1.351218        36.7685 
  94   0.0000       1.374002        37.3885 
  95   0.0000       1.374003        37.3885 
  96   0.0000       1.374003        37.3885 
  97   0.0000       1.402494        38.1638 
  98   0.0000       2.235653        60.8352 
  99   0.0000       2.374759        64.6205 
 100   0.0000       2.374759        64.6205 
 101   0.0000       2.401981        65.3612 
 102   0.0000       2.401982        65.3612 
 103   0.0000       2.401982        65.3612 
 104   0.0000       2.860377        77.8348 
 105   0.0000       2.860377        77.8348 
 106   0.0000       2.860377        77.8348 
 107   0.0000       3.013066        81.9897 
 108   0.0000       3.013067        81.9897 
 109   0.0000       3.013067        81.9897 
 110   0.0000       3.013407        81.9990 
 111   0.0000       3.013407        81.9990 
 112   0.0000       3.015402        82.0533 
 113   0.0000       3.015402        82.0533 
 114   0.0000       3.015402        82.0533 
 115   0.0000       3.016054        82.0710 
 116   0.0000       3.016054        82.0710 
 117   0.0000       3.016054        82.0710 
 118   0.0000       3.606225        98.1304 
 119   0.0000       3.606225        98.1304 
 120   0.0000       3.606225        98.1304 
 121   0.0000       3.614893        98.3662 
 122   0.0000       3.614893        98.3662 
 123   0.0000       3.614893        98.3662 
 124   0.0000       3.616063        98.3981 
 125   0.0000       3.618678        98.4692 
 126   0.0000       3.618678        98.4692 
 127   0.0000       3.618678        98.4692 
 128   0.0000       3.620893        98.5295 
 129   0.0000       3.620893        98.5295 
 130   0.0000       3.625545        98.6561 
 131   0.0000       3.626154        98.6727 
 132   0.0000       3.626154        98.6727 
 133   0.0000       3.626154        98.6727 
 134   0.0000      24.071960       655.0313 

                 SPIN DOWN ORBITALS
  NO   OCC          E(Eh)            E(eV) 
   0   1.0000      -2.461848       -66.9903 
   1   1.0000      -1.439006       -39.1573 
   2   1.0000      -1.439005       -39.1573 
   3   1.0000      -1.439005       -39.1573 
   4   1.0000      -0.196803        -5.3553 
   5   0.0000       0.012476         0.3395 
   6   0.0000       0.012476         0.3395 
   7   0.0000       0.012476         0.3395 
   8   0.0000       0.024986         0.6799 
   9   0.0000       0.034299         0.9333 
  10   0.0000       0.034299         0.9333 
  11   0.0000       0.034299         0.9333 
  12   0.0000       0.034548         0.9401 
  13   0.0000       0.034548         0.9401 
  14   0.0000       0.041897         1.1401 
  15   0.0000       0.041897         1.1401 
  16   0.0000       0.041897         1.1401 
  17   0.0000       0.081791         2.2257 
  18   0.0000       0.081792         2.2257 
  19   0.0000       0.081792         2.2257 
  20   0.0000       0.089343         2.4311 
  21   0.0000       0.089343         2.4311 
  22   0.0000       0.133126         3.6226 
  23   0.0000       0.133127         3.6226 
  24   0.0000       0.133127         3.6226 
  25   0.0000       0.141355         3.8465 
  26   0.0000       0.141355         3.8465 
  27   0.0000       0.141355         3.8465 
  28   0.0000       0.154795         4.2122 
  29   0.0000       0.154795         4.2122 
  30   0.0000       0.176086         4.7915 
  31   0.0000       0.184936         5.0324 
  32   0.0000       0.185644         5.0516 
  33   0.0000       0.185644         5.0516 
  34   0.0000       0.185644         5.0516 
  35   0.0000       0.186233         5.0676 
  36   0.0000       0.186233         5.0676 
  37   0.0000       0.186233         5.0676 
  38   0.0000       0.328733         8.9453 
  39   0.0000       0.328733         8.9453 
  40   0.0000       0.328733         8.9453 
  41   0.0000       0.339159         9.2290 
  42   0.0000       0.339159         9.2290 
  43   0.0000       0.374828        10.1996 
  44   0.0000       0.374828        10.1996 
  45   0.0000       0.374828        10.1996 
  46   0.0000       0.431669        11.7463 
  47   0.0000       0.431669        11.7463 
  48   0.0000       0.431669        11.7463 
  49   0.0000       0.432993        11.7823 
  50   0.0000       0.432993        11.7823 
  51   0.0000       0.433429        11.7942 
  52   0.0000       0.433429        11.7942 
  53   0.0000       0.433429        11.7942 
  54   0.0000       0.434073        11.8117 
  55   0.0000       0.553571        15.0634 
  56   0.0000       0.559481        15.2243 
  57   0.0000       0.559481        15.2243 
  58   0.0000       0.559481        15.2243 
  59   0.0000       0.564422        15.3587 
  60   0.0000       0.564422        15.3587 
  61   0.0000       0.564422        15.3587 
  62   0.0000       0.680434        18.5156 
  63   0.0000       0.847721        23.0677 
  64   0.0000       0.847721        23.0677 
  65   0.0000       0.847721        23.0677 
  66   0.0000       0.863650        23.5011 
  67   0.0000       0.863650        23.5011 
  68   0.0000       1.011224        27.5168 
  69   0.0000       1.011224        27.5168 
  70   0.0000       1.011224        27.5168 
  71   0.0000       1.011779        27.5319 
  72   0.0000       1.011779        27.5319 
  73   0.0000       1.014843        27.6153 
  74   0.0000       1.014843        27.6153 
  75   0.0000       1.014843        27.6153 
  76   0.0000       1.016091        27.6492 
  77   0.0000       1.016091        27.6492 
  78   0.0000       1.016091        27.6492 
  79   0.0000       1.033006        28.1095 
  80   0.0000       1.033007        28.1095 
  81   0.0000       1.033007        28.1096 
  82   0.0000       1.284022        34.9400 
  83   0.0000       1.284022        34.9400 
  84   0.0000       1.284022        34.9400 
  85   0.0000       1.291861        35.1533 
  86   0.0000       1.291861        35.1533 
  87   0.0000       1.294465        35.2242 
  88   0.0000       1.294465        35.2242 
  89   0.0000       1.294465        35.2242 
  90   0.0000       1.298425        35.3319 
  91   0.0000       1.408265        38.3208 
  92   0.0000       1.424478        38.7620 
  93   0.0000       1.424479        38.7620 
  94   0.0000       1.424479        38.7621 
  95   0.0000       1.437899        39.1272 
  96   0.0000       1.437899        39.1272 
  97   0.0000       1.437900        39.1272 
  98   0.0000       2.259004        61.4706 
  99   0.0000       2.412218        65.6398 
 100   0.0000       2.412218        65.6398 
 101   0.0000       2.412218        65.6398 
 102   0.0000       2.433045        66.2065 
 103   0.0000       2.433045        66.2065 
 104   0.0000       2.882278        78.4308 
 105   0.0000       2.882279        78.4308 
 106   0.0000       2.882279        78.4308 
 107   0.0000       3.026759        82.3623 
 108   0.0000       3.026759        82.3623 
 109   0.0000       3.026759        82.3623 
 110   0.0000       3.028961        82.4222 
 111   0.0000       3.028961        82.4222 
 112   0.0000       3.041016        82.7503 
 113   0.0000       3.041016        82.7503 
 114   0.0000       3.041016        82.7503 
 115   0.0000       3.046060        82.8875 
 116   0.0000       3.046060        82.8875 
 117   0.0000       3.046060        82.8875 
 118   0.0000       3.626794        98.6901 
 119   0.0000       3.643247        99.1378 
 120   0.0000       3.643247        99.1378 
 121   0.0000       3.643248        99.1378 
 122   0.0000       3.645648        99.2031 
 123   0.0000       3.645648        99.2031 
 124   0.0000       3.645649        99.2031 
 125   0.0000       3.656728        99.5046 
 126   0.0000       3.656728        99.5046 
 127   0.0000       3.656728        99.5046 
 128   0.0000       3.662640        99.6655 
 129   0.0000       3.662640        99.6655 
 130   0.0000       3.668313        99.8199 
 131   0.0000       3.668313        99.8199 
 132   0.0000       3.668313        99.8199 
 133   0.0000       3.676712       100.0484 
 134   0.0000      24.077163       655.1729 

                    ********************************
                    * MULLIKEN POPULATION ANALYSIS *
                    ********************************

--------------------------------------------
MULLIKEN ATOMIC CHARGES AND SPIN POPULATIONS
--------------------------------------------
   0 Zr:   -0.000000    2.000000
Sum of atomic charges         :   -0.0000000
Sum of atomic spin populations:    2.0000000

-----------------------------------------------------
MULLIKEN REDUCED ORBITAL CHARGES AND SPIN POPULATIONS
-----------------------------------------------------
CHARGE
  0 Zrs       :     3.999696  s :     3.999696
      pz      :     1.998986  p :     5.996959
      px      :     1.998986
      py      :     1.998986
      dz2     :     0.217441  d :     1.999708
      dxz     :     0.514000
      dyz     :     0.529204
      dx2y2   :     0.022586
      dxy     :     0.716477
      f0      :     0.000123  f :     0.003003
      f+1     :     0.000538
      f-1     :     0.000551
      f+2     :     0.000083
      f-2     :     0.000957
      f+3     :     0.000365
      f-3     :     0.000387
      g0      :     0.000094  g :     0.000596
      g+1     :     0.000018
      g-1     :     0.000018
      g+2     :     0.000019
      g-2     :     0.000191
      g+3     :     0.000073
      g-3     :     0.000070
      g+4     :     0.000108
      g-4     :     0.000006
      h0      :     0.000001  h :     0.000037
      h+1     :     0.000002
      h-1     :     0.000002
      h+2     :     0.000000
      h-2     :     0.000009
      h+3     :     0.000006
      h-3     :     0.000007
      h+4     :     0.000003
      h-4     :     0.000001
      h+5     :     0.000003
      h-5     :     0.000003

SPIN
  0 Zrs       :    -0.000077  s :    -0.000077
      pz      :    -0.000895  p :    -0.002686
      px      :    -0.000895
      py      :    -0.000895
      dz2     :     0.217441  d :     1.999708
      dxz     :     0.514000
      dyz     :     0.529204
      dx2y2   :     0.022586
      dxy     :     0.716477
      f0      :     0.000110  f :     0.002692
      f+1     :     0.000482
      f-1     :     0.000494
      f+2     :     0.000074
      f-2     :     0.000858
      f+3     :     0.000327
      f-3     :     0.000347
      g0      :     0.000082  g :     0.000369
      g+1     :     0.000015
      g-1     :     0.000015
      g+2     :     0.000019
      g-2     :     0.000053
      g+3     :     0.000061
      g-3     :     0.000057
      g+4     :     0.000062
      g-4     :     0.000006
      h0      :    -0.000000  h :    -0.000006
      h+1     :    -0.000000
      h-1     :    -0.000000
      h+2     :     0.000000
      h-2     :    -0.000002
      h+3     :    -0.000001
      h-3     :    -0.000001
      h+4     :    -0.000000
      h-4     :    -0.000000
      h+5     :    -0.000001
      h-5     :    -0.000001


                     *******************************
                     * LOEWDIN POPULATION ANALYSIS *
                     *******************************

-------------------------------------------
LOEWDIN ATOMIC CHARGES AND SPIN POPULATIONS
-------------------------------------------
   0 Zr:   -0.000000    2.000000

----------------------------------------------------
LOEWDIN REDUCED ORBITAL CHARGES AND SPIN POPULATIONS
----------------------------------------------------
CHARGE
  0 Zrs       :     3.999696  s :     3.999696
      pz      :     1.998986  p :     5.996959
      px      :     1.998986
      py      :     1.998986
      dz2     :     0.217441  d :     1.999708
      dxz     :     0.514000
      dyz     :     0.529204
      dx2y2   :     0.022586
      dxy     :     0.716477
      f0      :     0.000123  f :     0.003003
      f+1     :     0.000538
      f-1     :     0.000551
      f+2     :     0.000083
      f-2     :     0.000957
      f+3     :     0.000365
      f-3     :     0.000387
      g0      :     0.000094  g :     0.000596
      g+1     :     0.000018
      g-1     :     0.000018
      g+2     :     0.000019
      g-2     :     0.000191
      g+3     :     0.000073
      g-3     :     0.000070
      g+4     :     0.000108
      g-4     :     0.000006
      h0      :     0.000001  h :     0.000037
      h+1     :     0.000002
      h-1     :     0.000002
      h+2     :     0.000000
      h-2     :     0.000009
      h+3     :     0.000006
      h-3     :     0.000007
      h+4     :     0.000003
      h-4     :     0.000001
      h+5     :     0.000003
      h-5     :     0.000003

SPIN
  0 Zrs       :    -0.000077  s :    -0.000077
      pz      :    -0.000895  p :    -0.002686
      px      :    -0.000895
      py      :    -0.000895
      dz2     :     0.217441  d :     1.999708
      dxz     :     0.514000
      dyz     :     0.529204
      dx2y2   :     0.022586
      dxy     :     0.716477
      f0      :     0.000110  f :     0.002692
      f+1     :     0.000482
      f-1     :     0.000494
      f+2     :     0.000074
      f-2     :     0.000858
      f+3     :     0.000327
      f-3     :     0.000347
      g0      :     0.000082  g :     0.000369
      g+1     :     0.000015
      g-1     :     0.000015
      g+2     :     0.000019
      g-2     :     0.000053
      g+3     :     0.000061
      g-3     :     0.000057
      g+4     :     0.000062
      g-4     :     0.000006
      h0      :    -0.000000  h :    -0.000006
      h+1     :    -0.000000
      h-1     :    -0.000000
      h+2     :     0.000000
      h-2     :    -0.000002
      h+3     :    -0.000001
      h-3     :    -0.000001
      h+4     :    -0.000000
      h-4     :    -0.000000
      h+5     :    -0.000001
      h-5     :    -0.000001


                      *****************************
                      * MAYER POPULATION ANALYSIS *
                      *****************************

  NA   - Mulliken gross atomic population
  ZA   - Total nuclear charge
  QA   - Mulliken gross atomic charge
  VA   - Mayer's total valence
  BVA  - Mayer's bonded valence
  FA   - Mayer's free valence

  ATOM       NA         ZA         QA         VA         BVA        FA
  0 Zr    12.0000    12.0000    -0.0000     2.0339     0.0000     2.0339

  Mayer bond orders larger than 0.100000


-------
TIMINGS
-------

Total SCF time: 0 days 0 hours 2 min 51 sec 

Total time                  ....     171.253 sec
Sum of individual times     ....     170.942 sec  ( 99.8%)

Fock matrix formation       ....     135.689 sec  ( 79.2%)
Diagonalization             ....       0.113 sec  (  0.1%)
Density matrix formation    ....       0.015 sec  (  0.0%)
Population analysis         ....       0.006 sec  (  0.0%)
Initial guess               ....      35.096 sec  ( 20.5%)
Orbital Transformation      ....       0.000 sec  (  0.0%)
Orbital Orthonormalization  ....       0.000 sec  (  0.0%)
DIIS solution               ....       0.000 sec  (  0.0%)


           ************************************************************
           *        Program running with 24 parallel MPI-processes    *
           *              working on a common directory               *
           ************************************************************


------------------------------------------------------------------------------- 
                              ORCA-MATRIX DRIVEN CI                            
------------------------------------------------------------------------------- 

--------------------------------
AUTOMATIC CHOICE OF INCORE LEVEL
--------------------------------

Memory available                           ...   2500.00 MB
Memory needed for S+T                      ...     10.50 MB
Memory needed for J+K                      ...     21.05 MB
Memory needed for DIIS                     ...    525.00 MB
Memory needed for 3-ext                    ...    112.00 MB
Memory needed for 4-ext                    ...   1032.00 MB
Memory needed for triples                  ...     80.00 MB
 -> Final InCoreLevel    ... 5
 -> check shows that triples correction can be computed


Wavefunction type
-----------------
Correlation treatment                      ...      CCSD     
Single excitations                         ... ON
Orbital optimization                       ... OFF
Calculation of Z vector                    ... OFF
Calculation of Brueckner orbitals          ... OFF
Perturbative triple excitations            ... ON
Calculation of F12 correction              ... OFF
Frozen core treatment                      ... chemical core (0 el)
Reference Wavefunction                     ... UHF
  Alpha-MOs occ    :     0 ...    6 (  7 MO's/  7 electrons)
  Beta-MOs occ     :     0 ...    4 (  5 MO's/  5 electrons)
  Alpha-MOs virt   :     7 ...  134 (128 MO's              )
  Beta-MOs virt    :     5 ...  134 (130 MO's              )
Number of AO's                             ...    135
Number of electrons                        ...     12
Number of correlated electrons             ...     12

Algorithmic settings
--------------------
Integral transformation                    ... AO direct full transformation
K(C) Formation                             ... FULL-MO TRAFO
Maximum number of iterations               ...       100
Convergence tolerance (max. residuum)      ... 1.000e-06
Level shift for amplitude update           ... 2.000e-01
Maximum number of DIIS vectors             ...        25
DIIS turned on at iteration                ...         0
Damping before turning on DIIS             ...     0.500
Damping after turning on DIIS              ...     0.000
Pair specific amplitude update             ... OFF
Natural orbital iterations                 ... OFF
Perturbative natural orbital generation    ... OFF
Printlevel                                 ... 2

Memory handling:
----------------
Maximum memory for working arrays          ...   2500 MB
Data storage in matrix containers          ... UNCOMPRESSED
Data type for integral storage             ... DOUBLE
In-Core Storage of quantities:
   Amplitudes+Sigma Vector      ... YES
   J+K operators                ... YES
   DIIS vectors                 ... YES
   3-external integrals         ... YES
   4-external integrals         ... YES


Initializing the integral package          ... done
Warning: reference  - re-canonicalizations have been set to INT 1 VIRT 1

--------------------------
UNRESTRICTED FOCK OPERATOR
--------------------------

<ss|ss>:          406 b            0 skpd (  0.0%)    0.013 s ( 0.033 ms/b)
<ss|sp>:         1372 b            0 skpd (  0.0%)    0.133 s ( 0.097 ms/b)
<ss|sd>:         1176 b            0 skpd (  0.0%)    0.122 s ( 0.104 ms/b)
<ss|sf>:          784 b            0 skpd (  0.0%)    0.009 s ( 0.011 ms/b)
<ss|sg>:          588 b            0 skpd (  0.0%)    0.007 s ( 0.012 ms/b)
<ss|sh>:          392 b            0 skpd (  0.0%)    0.010 s ( 0.025 ms/b)
<ss|pp>:          784 b            0 skpd (  0.0%)    0.096 s ( 0.123 ms/b)
<ss|pd>:         1176 b            0 skpd (  0.0%)    0.104 s ( 0.089 ms/b)
<ss|pf>:          784 b            0 skpd (  0.0%)    0.010 s ( 0.013 ms/b)
<ss|pg>:          588 b            0 skpd (  0.0%)    0.008 s ( 0.014 ms/b)
<ss|ph>:          392 b            0 skpd (  0.0%)    0.012 s ( 0.030 ms/b)
<ss|dd>:          588 b            0 skpd (  0.0%)    0.064 s ( 0.108 ms/b)
<ss|df>:          672 b            0 skpd (  0.0%)    0.007 s ( 0.011 ms/b)
<ss|dg>:          504 b            0 skpd (  0.0%)    0.011 s ( 0.021 ms/b)
<ss|dh>:          336 b            0 skpd (  0.0%)    0.016 s ( 0.046 ms/b)
<ss|ff>:          280 b            0 skpd (  0.0%)    0.001 s ( 0.004 ms/b)
<ss|fg>:          336 b            0 skpd (  0.0%)    0.002 s ( 0.005 ms/b)
<ss|fh>:          224 b            0 skpd (  0.0%)    0.003 s ( 0.011 ms/b)
<ss|gg>:          168 b            0 skpd (  0.0%)    0.003 s ( 0.015 ms/b)
<ss|gh>:          168 b            0 skpd (  0.0%)    0.004 s ( 0.022 ms/b)
<ss|hh>:           84 b            0 skpd (  0.0%)    0.005 s ( 0.060 ms/b)
<sp|sp>:         1225 b            0 skpd (  0.0%)    0.126 s ( 0.103 ms/b)
<sp|sd>:         2058 b            0 skpd (  0.0%)    0.180 s ( 0.088 ms/b)
<sp|sf>:         1372 b            0 skpd (  0.0%)    0.017 s ( 0.012 ms/b)
<sp|sg>:         1029 b            0 skpd (  0.0%)    0.014 s ( 0.014 ms/b)
<sp|sh>:          686 b            0 skpd (  0.0%)    0.021 s ( 0.030 ms/b)
<sp|pp>:         1372 b            0 skpd (  0.0%)    0.143 s ( 0.104 ms/b)
<sp|pd>:         2058 b            0 skpd (  0.0%)    0.178 s ( 0.087 ms/b)
<sp|pf>:         1372 b            0 skpd (  0.0%)    0.026 s ( 0.019 ms/b)
<sp|pg>:         1029 b            0 skpd (  0.0%)    0.019 s ( 0.019 ms/b)
<sp|ph>:          686 b            0 skpd (  0.0%)    0.028 s ( 0.040 ms/b)
<sp|dd>:         1029 b            0 skpd (  0.0%)    0.137 s ( 0.133 ms/b)
<sp|df>:         1176 b            0 skpd (  0.0%)    0.019 s ( 0.016 ms/b)
<sp|dg>:          882 b            0 skpd (  0.0%)    0.027 s ( 0.031 ms/b)
<sp|dh>:          588 b            0 skpd (  0.0%)    0.039 s ( 0.066 ms/b)
<sp|ff>:          490 b            0 skpd (  0.0%)    0.003 s ( 0.007 ms/b)
<sp|fg>:          588 b            0 skpd (  0.0%)    0.005 s ( 0.008 ms/b)
<sp|fh>:          392 b            0 skpd (  0.0%)    0.007 s ( 0.018 ms/b)
<sp|gg>:          294 b            0 skpd (  0.0%)    0.007 s ( 0.024 ms/b)
<sp|gh>:          294 b            0 skpd (  0.0%)    0.010 s ( 0.034 ms/b)
<sp|hh>:          147 b            0 skpd (  0.0%)    0.013 s ( 0.090 ms/b)
<sd|sd>:          903 b            0 skpd (  0.0%)    0.097 s ( 0.108 ms/b)
<sd|sf>:         1176 b            0 skpd (  0.0%)    0.027 s ( 0.023 ms/b)
<sd|sg>:          882 b            0 skpd (  0.0%)    0.021 s ( 0.024 ms/b)
<sd|sh>:          588 b            0 skpd (  0.0%)    0.046 s ( 0.078 ms/b)
<sd|pp>:         1176 b            0 skpd (  0.0%)    0.168 s ( 0.143 ms/b)
<sd|pd>:         1764 b            1 skpd (  0.1%)    0.255 s ( 0.145 ms/b)
<sd|pf>:         1176 b            0 skpd (  0.0%)    0.042 s ( 0.036 ms/b)
<sd|pg>:          882 b            0 skpd (  0.0%)    0.036 s ( 0.041 ms/b)
<sd|ph>:          588 b            0 skpd (  0.0%)    0.057 s ( 0.098 ms/b)
<sd|dd>:          882 b            0 skpd (  0.0%)    0.202 s ( 0.229 ms/b)
<sd|df>:         1008 b            2 skpd (  0.2%)    0.038 s ( 0.037 ms/b)
<sd|dg>:          756 b            0 skpd (  0.0%)    0.061 s ( 0.081 ms/b)
<sd|dh>:          504 b            1 skpd (  0.2%)    0.094 s ( 0.188 ms/b)
<sd|ff>:          420 b            0 skpd (  0.0%)    0.008 s ( 0.020 ms/b)
<sd|fg>:          504 b            0 skpd (  0.0%)    0.011 s ( 0.022 ms/b)
<sd|fh>:          336 b            0 skpd (  0.0%)    0.016 s ( 0.048 ms/b)
<sd|gg>:          252 b            0 skpd (  0.0%)    0.016 s ( 0.064 ms/b)
<sd|gh>:          252 b            0 skpd (  0.0%)    0.022 s ( 0.087 ms/b)
<sd|hh>:          126 b            0 skpd (  0.0%)    0.029 s ( 0.234 ms/b)
<sf|sf>:          406 b            0 skpd (  0.0%)    0.003 s ( 0.008 ms/b)
<sf|sg>:          588 b            0 skpd (  0.0%)    0.005 s ( 0.008 ms/b)
<sf|sh>:          392 b            0 skpd (  0.0%)    0.010 s ( 0.026 ms/b)
<sf|pp>:          784 b            0 skpd (  0.0%)    0.033 s ( 0.042 ms/b)
<sf|pd>:         1176 b            0 skpd (  0.0%)    0.053 s ( 0.045 ms/b)
<sf|pf>:          784 b            0 skpd (  0.0%)    0.010 s ( 0.013 ms/b)
<sf|pg>:          588 b            0 skpd (  0.0%)    0.010 s ( 0.016 ms/b)
<sf|ph>:          392 b            0 skpd (  0.0%)    0.016 s ( 0.040 ms/b)
<sf|dd>:          588 b            0 skpd (  0.0%)    0.046 s ( 0.078 ms/b)
<sf|df>:          672 b            0 skpd (  0.0%)    0.010 s ( 0.015 ms/b)
<sf|dg>:          504 b            0 skpd (  0.0%)    0.016 s ( 0.031 ms/b)
<sf|dh>:          336 b            0 skpd (  0.0%)    0.023 s ( 0.069 ms/b)
<sf|ff>:          280 b            0 skpd (  0.0%)    0.002 s ( 0.009 ms/b)
<sf|fg>:          336 b            0 skpd (  0.0%)    0.003 s ( 0.010 ms/b)
<sf|fh>:          224 b            0 skpd (  0.0%)    0.005 s ( 0.021 ms/b)
<sf|gg>:          168 b            0 skpd (  0.0%)    0.005 s ( 0.030 ms/b)
<sf|gh>:          168 b            0 skpd (  0.0%)    0.007 s ( 0.041 ms/b)
<sf|hh>:           84 b            0 skpd (  0.0%)    0.009 s ( 0.111 ms/b)
<sg|sg>:          231 b            0 skpd (  0.0%)    0.007 s ( 0.031 ms/b)
<sg|sh>:          294 b            0 skpd (  0.0%)    0.016 s ( 0.053 ms/b)
<sg|pp>:          588 b            0 skpd (  0.0%)    0.048 s ( 0.081 ms/b)
<sg|pd>:          882 b            0 skpd (  0.0%)    0.080 s ( 0.090 ms/b)
<sg|pf>:          588 b            0 skpd (  0.0%)    0.015 s ( 0.026 ms/b)
<sg|pg>:          441 b            0 skpd (  0.0%)    0.015 s ( 0.034 ms/b)
<sg|ph>:          294 b            0 skpd (  0.0%)    0.025 s ( 0.085 ms/b)
<sg|dd>:          441 b            0 skpd (  0.0%)    0.068 s ( 0.153 ms/b)
<sg|df>:          504 b            0 skpd (  0.0%)    0.015 s ( 0.030 ms/b)
<sg|dg>:          378 b            0 skpd (  0.0%)    0.025 s ( 0.066 ms/b)
<sg|dh>:          252 b            0 skpd (  0.0%)    0.038 s ( 0.151 ms/b)
<sg|ff>:          210 b            0 skpd (  0.0%)    0.003 s ( 0.016 ms/b)
<sg|fg>:          252 b            0 skpd (  0.0%)    0.005 s ( 0.021 ms/b)
<sg|fh>:          168 b            0 skpd (  0.0%)    0.007 s ( 0.042 ms/b)
<sg|gg>:          126 b            0 skpd (  0.0%)    0.008 s ( 0.062 ms/b)
<sg|gh>:          126 b            0 skpd (  0.0%)    0.011 s ( 0.086 ms/b)
<sg|hh>:           63 b            0 skpd (  0.0%)    0.014 s ( 0.223 ms/b)
<sh|sh>:          105 b            0 skpd (  0.0%)    0.019 s ( 0.178 ms/b)
<sh|pp>:          392 b            0 skpd (  0.0%)    0.064 s ( 0.162 ms/b)
<sh|pd>:          588 b            0 skpd (  0.0%)    0.111 s ( 0.189 ms/b)
<sh|pf>:          392 b            0 skpd (  0.0%)    0.021 s ( 0.053 ms/b)
<sh|pg>:          294 b            0 skpd (  0.0%)    0.020 s ( 0.068 ms/b)
<sh|ph>:          196 b            0 skpd (  0.0%)    0.031 s ( 0.159 ms/b)
<sh|dd>:          294 b            0 skpd (  0.0%)    0.094 s ( 0.320 ms/b)
<sh|df>:          336 b            0 skpd (  0.0%)    0.020 s ( 0.061 ms/b)
<sh|dg>:          252 b            0 skpd (  0.0%)    0.032 s ( 0.129 ms/b)
<sh|dh>:          168 b            0 skpd (  0.0%)    0.049 s ( 0.289 ms/b)
<sh|ff>:          140 b            0 skpd (  0.0%)    0.004 s ( 0.030 ms/b)
<sh|fg>:          168 b            0 skpd (  0.0%)    0.006 s ( 0.037 ms/b)
<sh|fh>:          112 b            0 skpd (  0.0%)    0.009 s ( 0.079 ms/b)
<sh|gg>:           84 b            0 skpd (  0.0%)    0.009 s ( 0.108 ms/b)
<sh|gh>:           84 b            0 skpd (  0.0%)    0.013 s ( 0.150 ms/b)
<sh|hh>:           42 b            0 skpd (  0.0%)    0.017 s ( 0.413 ms/b)
<pp|pp>:          406 b            0 skpd (  0.0%)    0.065 s ( 0.160 ms/b)
<pp|pd>:         1176 b            0 skpd (  0.0%)    0.170 s ( 0.145 ms/b)
<pp|pf>:          784 b            0 skpd (  0.0%)    0.028 s ( 0.035 ms/b)
<pp|pg>:          588 b            0 skpd (  0.0%)    0.024 s ( 0.040 ms/b)
<pp|ph>:          392 b            0 skpd (  0.0%)    0.042 s ( 0.107 ms/b)
<pp|dd>:          588 b            0 skpd (  0.0%)    0.135 s ( 0.229 ms/b)
<pp|df>:          672 b            0 skpd (  0.0%)    0.026 s ( 0.038 ms/b)
<pp|dg>:          504 b            0 skpd (  0.0%)    0.039 s ( 0.078 ms/b)
<pp|dh>:          336 b            0 skpd (  0.0%)    0.061 s ( 0.182 ms/b)
<pp|ff>:          280 b            0 skpd (  0.0%)    0.006 s ( 0.020 ms/b)
<pp|fg>:          336 b            0 skpd (  0.0%)    0.008 s ( 0.022 ms/b)
<pp|fh>:          224 b            0 skpd (  0.0%)    0.010 s ( 0.046 ms/b)
<pp|gg>:          168 b            0 skpd (  0.0%)    0.012 s ( 0.069 ms/b)
<pp|gh>:          168 b            0 skpd (  0.0%)    0.015 s ( 0.087 ms/b)
<pp|hh>:           84 b            0 skpd (  0.0%)    0.022 s ( 0.257 ms/b)
<pd|pd>:          903 b            0 skpd (  0.0%)    0.259 s ( 0.287 ms/b)
<pd|pf>:         1176 b            0 skpd (  0.0%)    0.077 s ( 0.066 ms/b)
<pd|pg>:          882 b            0 skpd (  0.0%)    0.072 s ( 0.082 ms/b)
<pd|ph>:          588 b            0 skpd (  0.0%)    0.118 s ( 0.201 ms/b)
<pd|dd>:          882 b            0 skpd (  0.0%)    0.373 s ( 0.423 ms/b)
<pd|df>:         1008 b            0 skpd (  0.0%)    0.081 s ( 0.080 ms/b)
<pd|dg>:          756 b            0 skpd (  0.0%)    0.122 s ( 0.162 ms/b)
<pd|dh>:          504 b            0 skpd (  0.0%)    0.185 s ( 0.367 ms/b)
<pd|ff>:          420 b            0 skpd (  0.0%)    0.016 s ( 0.037 ms/b)
<pd|fg>:          504 b            0 skpd (  0.0%)    0.024 s ( 0.047 ms/b)
<pd|fh>:          336 b            0 skpd (  0.0%)    0.033 s ( 0.099 ms/b)
<pd|gg>:          252 b            0 skpd (  0.0%)    0.034 s ( 0.137 ms/b)
<pd|gh>:          252 b            0 skpd (  0.0%)    0.046 s ( 0.183 ms/b)
<pd|hh>:          126 b            0 skpd (  0.0%)    0.063 s ( 0.498 ms/b)
<pf|pf>:          406 b            0 skpd (  0.0%)    0.009 s ( 0.022 ms/b)
<pf|pg>:          588 b            0 skpd (  0.0%)    0.016 s ( 0.028 ms/b)
<pf|ph>:          392 b            0 skpd (  0.0%)    0.027 s ( 0.069 ms/b)
<pf|dd>:          588 b            0 skpd (  0.0%)    0.073 s ( 0.124 ms/b)
<pf|df>:          672 b            0 skpd (  0.0%)    0.017 s ( 0.026 ms/b)
<pf|dg>:          504 b            0 skpd (  0.0%)    0.028 s ( 0.055 ms/b)
<pf|dh>:          336 b            0 skpd (  0.0%)    0.043 s ( 0.127 ms/b)
<pf|ff>:          280 b            0 skpd (  0.0%)    0.005 s ( 0.017 ms/b)
<pf|fg>:          336 b            0 skpd (  0.0%)    0.007 s ( 0.021 ms/b)
<pf|fh>:          224 b            0 skpd (  0.0%)    0.009 s ( 0.042 ms/b)
<pf|gg>:          168 b            0 skpd (  0.0%)    0.010 s ( 0.058 ms/b)
<pf|gh>:          168 b            0 skpd (  0.0%)    0.013 s ( 0.080 ms/b)
<pf|hh>:           84 b            0 skpd (  0.0%)    0.018 s ( 0.214 ms/b)
<pg|pg>:          231 b            0 skpd (  0.0%)    0.023 s ( 0.102 ms/b)
<pg|ph>:          294 b            0 skpd (  0.0%)    0.039 s ( 0.133 ms/b)
<pg|dd>:          441 b            0 skpd (  0.0%)    0.116 s ( 0.263 ms/b)
<pg|df>:          504 b            0 skpd (  0.0%)    0.026 s ( 0.051 ms/b)
<pg|dg>:          378 b            0 skpd (  0.0%)    0.042 s ( 0.111 ms/b)
<pg|dh>:          252 b            0 skpd (  0.0%)    0.059 s ( 0.235 ms/b)
<pg|ff>:          210 b            0 skpd (  0.0%)    0.006 s ( 0.028 ms/b)
<pg|fg>:          252 b            0 skpd (  0.0%)    0.009 s ( 0.037 ms/b)
<pg|fh>:          168 b            0 skpd (  0.0%)    0.012 s ( 0.072 ms/b)
<pg|gg>:          126 b            0 skpd (  0.0%)    0.014 s ( 0.109 ms/b)
<pg|gh>:          126 b            0 skpd (  0.0%)    0.018 s ( 0.142 ms/b)
<pg|hh>:           63 b            0 skpd (  0.0%)    0.024 s ( 0.376 ms/b)
<ph|ph>:          105 b            0 skpd (  0.0%)    0.045 s ( 0.427 ms/b)
<ph|dd>:          294 b            0 skpd (  0.0%)    0.149 s ( 0.505 ms/b)
<ph|df>:          336 b            0 skpd (  0.0%)    0.030 s ( 0.091 ms/b)
<ph|dg>:          252 b            0 skpd (  0.0%)    0.048 s ( 0.191 ms/b)
<ph|dh>:          168 b            0 skpd (  0.0%)    0.069 s ( 0.411 ms/b)
<ph|ff>:          140 b            0 skpd (  0.0%)    0.007 s ( 0.047 ms/b)
<ph|fg>:          168 b            0 skpd (  0.0%)    0.010 s ( 0.060 ms/b)
<ph|fh>:          112 b            0 skpd (  0.0%)    0.014 s ( 0.121 ms/b)
<ph|gg>:           84 b            0 skpd (  0.0%)    0.014 s ( 0.166 ms/b)
<ph|gh>:           84 b            0 skpd (  0.0%)    0.019 s ( 0.227 ms/b)
<ph|hh>:           42 b            0 skpd (  0.0%)    0.027 s ( 0.639 ms/b)
<dd|dd>:          231 b            0 skpd (  0.0%)    0.317 s ( 1.371 ms/b)
<dd|df>:          504 b            0 skpd (  0.0%)    0.071 s ( 0.140 ms/b)
<dd|dg>:          378 b            0 skpd (  0.0%)    0.119 s ( 0.315 ms/b)
<dd|dh>:          252 b            0 skpd (  0.0%)    0.176 s ( 0.700 ms/b)
<dd|ff>:          210 b            0 skpd (  0.0%)    0.015 s ( 0.070 ms/b)
<dd|fg>:          252 b            0 skpd (  0.0%)    0.023 s ( 0.091 ms/b)
<dd|fh>:          168 b            0 skpd (  0.0%)    0.032 s ( 0.188 ms/b)
<dd|gg>:          126 b            0 skpd (  0.0%)    0.033 s ( 0.266 ms/b)
<dd|gh>:          126 b            0 skpd (  0.0%)    0.045 s ( 0.359 ms/b)
<dd|hh>:           63 b            0 skpd (  0.0%)    0.060 s ( 0.957 ms/b)
<df|df>:          300 b            0 skpd (  0.0%)    0.024 s ( 0.081 ms/b)
<df|dg>:          432 b            0 skpd (  0.0%)    0.040 s ( 0.092 ms/b)
<df|dh>:          288 b            0 skpd (  0.0%)    0.059 s ( 0.205 ms/b)
<df|ff>:          240 b            0 skpd (  0.0%)    0.007 s ( 0.030 ms/b)
<df|fg>:          288 b            0 skpd (  0.0%)    0.010 s ( 0.036 ms/b)
<df|fh>:          192 b            0 skpd (  0.0%)    0.014 s ( 0.073 ms/b)
<df|gg>:          144 b            0 skpd (  0.0%)    0.015 s ( 0.103 ms/b)
<df|gh>:          144 b            0 skpd (  0.0%)    0.020 s ( 0.139 ms/b)
<df|hh>:           72 b            0 skpd (  0.0%)    0.027 s ( 0.377 ms/b)
<dg|dg>:          171 b            0 skpd (  0.0%)    0.052 s ( 0.305 ms/b)
<dg|dh>:          216 b            0 skpd (  0.0%)    0.077 s ( 0.356 ms/b)
<dg|ff>:          180 b            0 skpd (  0.0%)    0.008 s ( 0.046 ms/b)
<dg|fg>:          216 b            0 skpd (  0.0%)    0.013 s ( 0.058 ms/b)
<dg|fh>:          144 b            0 skpd (  0.0%)    0.016 s ( 0.114 ms/b)
<dg|gg>:          108 b            0 skpd (  0.0%)    0.019 s ( 0.173 ms/b)
<dg|gh>:          108 b            0 skpd (  0.0%)    0.024 s ( 0.226 ms/b)
<dg|hh>:           54 b            0 skpd (  0.0%)    0.033 s ( 0.609 ms/b)
<dh|dh>:           78 b            0 skpd (  0.0%)    0.081 s ( 1.043 ms/b)
<dh|ff>:          120 b            0 skpd (  0.0%)    0.009 s ( 0.071 ms/b)
<dh|fg>:          144 b            0 skpd (  0.0%)    0.012 s ( 0.086 ms/b)
<dh|fh>:           96 b            0 skpd (  0.0%)    0.017 s ( 0.180 ms/b)
<dh|gg>:           72 b            0 skpd (  0.0%)    0.018 s ( 0.252 ms/b)
<dh|gh>:           72 b            0 skpd (  0.0%)    0.025 s ( 0.354 ms/b)
<dh|hh>:           36 b            0 skpd (  0.0%)    0.035 s ( 0.984 ms/b)
<ff|ff>:           55 b            0 skpd (  0.0%)    0.002 s ( 0.034 ms/b)
<ff|fg>:          120 b            0 skpd (  0.0%)    0.003 s ( 0.027 ms/b)
<ff|fh>:           80 b            0 skpd (  0.0%)    0.004 s ( 0.054 ms/b)
<ff|gg>:           60 b            0 skpd (  0.0%)    0.005 s ( 0.077 ms/b)
<ff|gh>:           60 b            0 skpd (  0.0%)    0.007 s ( 0.109 ms/b)
<ff|hh>:           30 b            0 skpd (  0.0%)    0.009 s ( 0.307 ms/b)
<fg|fg>:           78 b            0 skpd (  0.0%)    0.006 s ( 0.072 ms/b)
<fg|fh>:           96 b            0 skpd (  0.0%)    0.008 s ( 0.084 ms/b)
<fg|gg>:           72 b            0 skpd (  0.0%)    0.009 s ( 0.129 ms/b)
<fg|gh>:           72 b            0 skpd (  0.0%)    0.013 s ( 0.178 ms/b)
<fg|hh>:           36 b            0 skpd (  0.0%)    0.017 s ( 0.467 ms/b)
<fh|fh>:           36 b            0 skpd (  0.0%)    0.008 s ( 0.209 ms/b)
<fh|gg>:           48 b            0 skpd (  0.0%)    0.008 s ( 0.162 ms/b)
<fh|gh>:           48 b            0 skpd (  0.0%)    0.013 s ( 0.262 ms/b)
<fh|hh>:           24 b            0 skpd (  0.0%)    0.017 s ( 0.712 ms/b)
<gg|gg>:           21 b            0 skpd (  0.0%)    0.007 s ( 0.334 ms/b)
<gg|gh>:           36 b            0 skpd (  0.0%)    0.012 s ( 0.321 ms/b)
<gg|hh>:           18 b            0 skpd (  0.0%)    0.015 s ( 0.841 ms/b)
<gh|gh>:           21 b            0 skpd (  0.0%)    0.016 s ( 0.754 ms/b)
<gh|hh>:           18 b            0 skpd (  0.0%)    0.023 s ( 1.289 ms/b)
<hh|hh>:            6 b            0 skpd (  0.0%)    0.021 s ( 3.556 ms/b)
Recanonicalizing the internal orbitals
Recanonicalizing the virtual orbitals
Time needed for Fock operator              ...            9.148 sec
Reference energy                           ...    -46.306449397
Warning: for UHF the TrafoType has to be JK
Warning: for UHF the K(C)-option cannot be MO but must be AOX

-------------------------------
PARTIAL EXCHANGE TRANSFORMATION
-------------------------------

Transformation type                        ... two-operators
Generation of integrals (i,mue|j,nue)      ... ON
Generation of integrals (mue,kappa|nue,tau)... ON
Generation of integrals (i,mue|a,nue)      ... ON
Dimension of the basis                     ...  135
Number of internal alpha-MOs               ...    7 (   0-   6)
Number of internal beta-MOs                ...    5 (   0-   4)
Number of external alpha-MOs               ...  128 (   7- 134)
Number of external beta-MOs                ...  130 (   5- 134)
Pair cutoff                                ... 0.000e+00 Eh
Number of AO pairs in the trafo            ... 9180
Total Number of distinct AO pairs          ... 9180
Memory devoted for trafo                   ... 2500.0 MB 
Max. Number of MO pairs treated together   ... 17979      
Number Format for Storage                  ... Double (8 Byte)
Integral package used                      ... LIBINT

Starting integral evaluation:
    ... done with AO integral generation
Closing buffer AOK[aa] ( 0.00 GB; CompressionRatio= 0.97)
Closing buffer AOK[bb] ( 0.00 GB; CompressionRatio= 0.94)
Closing buffer AOK[ab] ( 0.00 GB; CompressionRatio= 0.96)
Closing buffer AOK[ba] ( 0.00 GB; CompressionRatio= 0.96)
Collecting buffer AOK 
Closing buffer IAAO1[aa] ( 0.00 GB; CompressionRatio= 1.00)
Closing buffer IAAO1[bb] ( 0.00 GB; CompressionRatio= 1.00)
Closing buffer IAAO1[ab] ( 0.00 GB; CompressionRatio= 1.00)
Closing buffer IAAO1[ba] ( 0.00 GB; CompressionRatio= 1.00)
Closing buffer IAAO2[aa] ( 0.00 GB; CompressionRatio= 1.00)
Closing buffer IAAO2[bb] ( 0.00 GB; CompressionRatio= 1.00)
Closing buffer IAAO2[ab] ( 0.00 GB; CompressionRatio= 1.00)
Closing buffer IAAO2[ba] ( 0.00 GB; CompressionRatio= 1.00)
Collecting buffer IAAO 
Closing buffer PRQS    ( 0.01 GB; CompressionRatio= 1.00)
Collecting buffer PRQS 
Number of alpha/alpha MO pairs in trafo    ...   28
Number of beta /beta  MO pairs in trafo    ...   15
Number of alpha/ beta MO pairs in trafo    ...   35
------------------------
SORTING OF (i,mue|j,nue)
------------------------

SORTING OF ALPHA/ALPHA PAIRS
IBATCH = 1 of  1
Closing buffer KAO[aa] ( 0.00 GB; CompressionRatio= 1.00)
Collecting buffer KAO 
SORTING OF BETA /BETA  PAIRS
IBATCH = 1 of  1
Closing buffer KAO[bb] ( 0.00 GB; CompressionRatio= 1.00)
Collecting buffer KAO 
SORTING OF ALPHA/BETA  PAIRS
IBATCH = 1 of  1
Closing buffer KAO[ab] ( 0.00 GB; CompressionRatio= 0.999917702247)
Collecting buffer KAO[ab] 
------------------------
SORTING OF (i,mue|a,nue)
------------------------

Number of alpha/alpha (i,a) pairs in trafo  ...  896
Number of beta /beta  (i,a) pairs in trafo  ...  650
Number of alpha/ beta (i,a) pairs in trafo  ...  910
Number of beta /alpha (i,a) pairs in trafo  ...  640
Setting up the alpha/alpha list             ... done
Setting up the beta /beta  list             ... done
Setting up the alpha/beta  list             ... done
Setting up the beta /alpha list             ... done
    ... Now sorting (i,mue|a,nue)integrals
    ... Integrals (i,b|a,c) will be made on the fly
SORTING OF ALPHA/ALPHA PAIRS
IBATCH = 1 of  1
Closing buffer IPAQ[aa]  0.00 GB; CompressionRatio= 1.00)
SORTING OF BETA /BETA  PAIRS
IBATCH = 1 of  1
Closing buffer IPAQ[bb]( 0.00 GB; CompressionRatio= 1.00)
SORTING OF ALPHA/BETA  PAIRS (NMatSort_ab=38)
IBATCH = 1 of  1
Closing buffer IPAQ[ab]( 0.00 GB; CompressionRatio= 1.00)
SORTING OF BETA/ALPHA  PAIRS
IBATCH = 1 of  1
Closing buffer IPAQ[ba]( 0.00 GB; CompressionRatio= 1.00)
N(AO-Batches) Done                         ...      5046 
N(AO-Batches) Skipped                      ...         0 
N(IJ)-pairs Skipped                        ...         0 
TOTAL TIME for half transformation         ...    38.003 sec
AO-integral generation                     ...     2.387 sec
Half transformation                        ...     0.015 sec
K-integral sorting                         ...     1.492 sec
<ss|**>: 
------------------------------
PARTIAL COULOMB TRANSFORMATION
------------------------------

Transformation type                        ... two-operators
Dimension of the basis                     ...  135
Number of internal alpha-MOs               ...    7 (0-6)
Number of internal beta-MOs                ...    5 (0-4)
Pair cutoff                                ... 0.000e+00 Eh
Number of AO pairs included in the trafo   ... 9180
Total Number of distinct AO pairs          ... 9180
Memory devoted for trafo                   ... 2500.0 MB 
Max. Number of MO pairs treated together   ... 35694      
Max. Number of MOs treated per batch       ...  264      
Number Format for Storage                  ... Double (8 Byte)
AO-integral source                         ... DIRECT
Integral package used                      ... LIBINT

Starting integral evaluation:
       12180 b        0 skpd     0.714 s (  0.059 ms/b)
<sp|**>:        21315 b        0 skpd     1.086 s (  0.051 ms/b)
<sd|**>:        18270 b        0 skpd     1.532 s (  0.084 ms/b)
<sf|**>:        12180 b        0 skpd     0.314 s (  0.026 ms/b)
<sg|**>:         9135 b        0 skpd     0.308 s (  0.034 ms/b)
<sh|**>:         6090 b        0 skpd     0.608 s (  0.100 ms/b)
<pp|**>:        12180 b        0 skpd     1.415 s (  0.116 ms/b)
<pd|**>:        18270 b        0 skpd     2.517 s (  0.138 ms/b)
<pf|**>:        12180 b        0 skpd     0.497 s (  0.041 ms/b)
<pg|**>:         9135 b        0 skpd     0.463 s (  0.051 ms/b)
<ph|**>:         6090 b        0 skpd     0.782 s (  0.128 ms/b)
<dd|**>:         9135 b        0 skpd     2.293 s (  0.251 ms/b)
<df|**>:        10440 b        0 skpd     0.475 s (  0.046 ms/b)
<dg|**>:         7830 b        0 skpd     0.758 s (  0.097 ms/b)
<dh|**>:         5220 b        0 skpd     1.116 s (  0.214 ms/b)
<ff|**>:         4350 b        0 skpd     0.108 s (  0.025 ms/b)
<fg|**>:         5220 b        0 skpd     0.165 s (  0.032 ms/b)
<fh|**>:         3480 b        0 skpd     0.227 s (  0.065 ms/b)
<gg|**>:         2610 b        0 skpd     0.248 s (  0.095 ms/b)
<gh|**>:         2610 b        0 skpd     0.339 s (  0.130 ms/b)
<hh|**>:         1305 b        0 skpd     0.475 s (  0.364 ms/b)
Closing buffer AOJ[aa] ( 0.00 GB; CompressionRatio= 0.95)
Closing buffer AOJ[bb] ( 0.00 GB; CompressionRatio= 0.00)
Collecting buffer AOJ 
    ... done with AO integral generation
Number of Alpha-MO pairs included          ...   28
Number of Beta-MO pairs included           ...   15
    ... Now sorting integrals
SORTING ALPHA/ALPHA PAIRS
IBATCH = 1 of  1
Closing buffer JAO[aa] ( 0.00 GB; CompressionRatio= 1.00)
SORTING BETA/BETA PAIRS
IBATCH = 1 of  1
Closing buffer JAO[bb] ( 0.00 GB; CompressionRatio= 1.00)
Collecting buffer JAO 
TOTAL TIME for half transformation         ...    16.483 sec
AO-integral generation                     ...    16.434 sec
Half transformation                        ...     0.019 sec
J-integral sorting                         ...     0.023 sec

-------------------------- SECOND HALF TRANSFORMATION -------------------------
Formation of (ij|kl),(ij|ka), (ij|ab)      ... ok (     0.049 sec)
Formation of (ik|jl),(ik|ja), (ia|jb)      ... ok (     0.070 sec)


-----------------------
SPIN UNRESTRICTED GUESS
-----------------------

Entering MDCI_UHF_Guess, Tailored=0
Spin-components of the MP2 energy:
EMP2(aa)=     -0.057119484
EMP2(bb)=     -0.033549471
EMP2(ab)=     -0.249736482

Initial guess performed in     0.024 sec
E(0)                                       ...    -46.306449397
E(MP2)                                     ...     -0.340405437
Initial E(tot)                             ...    -46.646854833
<T|T>                                      ...      0.115526363
Number of pairs included                   ... 66

------------------------------------------------
                  UHF COUPLED CLUSTER ITERATIONS
------------------------------------------------

Number of amplitudes to be optimized       ...       839705

Iter       E(tot)           E(Corr)          Delta-E          Residual     Time      <S|S>**1/2
  0    -46.646854833     -0.340405437     -0.000000000      0.019484026    9.32      0.000000600
                           *** Turning on DIIS ***
  1    -46.653973531     -0.347524134     -0.007118697      0.008879705   10.42      0.035956167
  2    -46.661570739     -0.355121342     -0.007597208      0.005696209   10.37      0.052833142
  3    -46.663505379     -0.357055983     -0.001934640      0.002952126   10.40      0.065630770
  4    -46.664700171     -0.358250774     -0.001194791      0.000718108   10.39      0.076589203
  5    -46.664939502     -0.358490106     -0.000239332      0.000174200   10.37      0.079967173
  6    -46.664955771     -0.358506375     -0.000016269      0.000093014   10.42      0.080464996
  7    -46.664953732     -0.358504335      0.000002039      0.000034364   10.44      0.080501217
  8    -46.664951748     -0.358502351      0.000001985      0.000012756   10.45      0.080427431
  9    -46.664952750     -0.358503353     -0.000001003      0.000004242   10.49      0.080395075
 10    -46.664952718     -0.358503321      0.000000032      0.000001768   10.43      0.080383614
 11    -46.664952830     -0.358503433     -0.000000112      0.000000756   10.53      0.080383392
               --- The Coupled-Cluster iterations have converged ---

----------------------
COUPLED CLUSTER ENERGY
----------------------

E(0)                                       ...    -46.306449397
E(CORR)                                    ...     -0.358503433
E(TOT)                                     ...    -46.664952830
Singles norm <S|S>**1/2                    ...      0.080383392 ( 0.037238905, 0.043144486)  
T1 diagnostic                              ...      0.023204686                              

------------------
LARGEST AMPLITUDES
------------------
   4b-> 30b  -1b-> -1b       0.079403
   4b->  8b  -1b-> -1b       0.060573
   6a-> 18a   4b-> 14b       0.043102
   6a-> 16a   4b-> 16b       0.043069
   6a-> 17a   4b-> 15b       0.043065
   6a-> 30a  -1a-> -1a       0.040353
   6a->  9a   4b-> 14b       0.038154
   6a->  7a   4b-> 16b       0.038114
   6a->  8a   4b-> 15b       0.038113
   6a-> 18a   4b-> 22b       0.035964
   6a-> 16a   4b-> 24b       0.035915
   6a-> 17a   4b-> 23b       0.035914
   6a-> 26a   4b-> 14b       0.033628
   6a-> 24a   4b-> 16b       0.033587
   6a-> 25a   4b-> 15b       0.033585
   6a-> 18a   4b->  5b       0.033036

----------------------
UHF TRIPLES CORRECTION (Algorithm 1)
----------------------

Multiplier for the singles contribution    ...      1.000000000

SPIN-CASE Alpha-Alpha-Alpha:
10% done
20% done
30% done
40% done
50% done
60% done
70% done
80% done
90% done


SPIN-CASE Beta-Beta-Beta:
10% done
20% done
30% done
40% done
50% done
60% done
70% done
80% done
90% done


SPIN-CASE Alpha-Alpha-Beta:
10% done
20% done
30% done
40% done
50% done
60% done
70% done
80% done
90% done


SPIN-CASE Beta-Beta-Alpha:
10% done
20% done
30% done
40% done
50% done
60% done
70% done
80% done
90% done


Triples Correction (T)                     ...     -0.015229774
    alpha-alpha-alpha ... -0.000681071 (  4.5%)
    alpha-alpha-beta  ... -0.008821143 ( 57.9%)
    alpha-beta -beta  ... -0.005495646 ( 36.1%)
    beta -beta -beta  ... -0.000231914 (  1.5%)
Scaling of triples based on CCSD energies (Peterson et al. Molecular Physics 113, 1551 (2015))
E(T*) = f*E(T) where f = E(F12-CCSD)/E(CCSD) 
f = CCSD (with F12)/ CCSD (without F12)    ...      1.000000000
Scaled triples correction (T)              ...     -0.015229774

Final correlation energy                   ...     -0.373733207
E(CCSD)                                    ...    -46.664952830
E(CCSD(T))                                 ...    -46.680182604



        !!!!!!!!!!!!!!!!!!!!!!!!!!!!!!!!!!!!!!!!!!!!!!!!!!!!!!!!!!!!!!!!!!!!!!!!!! 
        !  Warning: Densities are linearized densities                           !
        !!!!!!!!!!!!!!!!!!!!!!!!!!!!!!!!!!!!!!!!!!!!!!!!!!!!!!!!!!!!!!!!!!!!!!!!!! 

NORM  =      1.159249140 sqrt=     1.076684327
W(HF) =      0.862627338
------------------------------------------------------------------------------
                           ORCA POPULATION ANALYSIS
------------------------------------------------------------------------------
Input electron density              ... 40_Zr.mdcip
Input spin density                  ... 40_Zr.mdcir
BaseName (.gbw .S,...)              ... 40_Zr

                    ********************************
                    * MULLIKEN POPULATION ANALYSIS *
                    ********************************

------------------------------------------
MULLIKEN ATOMIC CHARGES AND SPIN DENSITIES
------------------------------------------
   0 Zr:   -0.000000    2.000000
Sum of atomic charges       :   -0.0000000
Sum of atomic spin densities:    2.0000000

---------------------------------------------------
MULLIKEN REDUCED ORBITAL CHARGES AND SPIN DENSITIES
---------------------------------------------------
CHARGE
  0 Zrs       :     3.869554  s :     3.869554
      pz      :     2.008603  p :     6.025809
      px      :     2.008603
      py      :     2.008603
      dz2     :     0.235518  d :     2.056880
      dxz     :     0.521286
      dyz     :     0.535935
      dx2y2   :     0.047750
      dxy     :     0.716391
      f0      :     0.005157  f :     0.041056
      f+1     :     0.005826
      f-1     :     0.005877
      f+2     :     0.005269
      f-2     :     0.007777
      f+3     :     0.005567
      f-3     :     0.005581
      g0      :     0.000607  g :     0.005928
      g+1     :     0.000633
      g-1     :     0.000637
      g+2     :     0.000599
      g-2     :     0.000791
      g+3     :     0.000704
      g-3     :     0.000705
      g+4     :     0.000627
      g-4     :     0.000623
      h0      :     0.000064  h :     0.000773
      h+1     :     0.000066
      h-1     :     0.000067
      h+2     :     0.000060
      h-2     :     0.000083
      h+3     :     0.000076
      h-3     :     0.000077
      h+4     :     0.000075
      h-4     :     0.000074
      h+5     :     0.000065
      h-5     :     0.000065

SPIN
  0 Zrs       :     0.019873  s :     0.019873
      pz      :     0.004470  p :     0.013409
      px      :     0.004470
      py      :     0.004470
      dz2     :     0.210977  d :     1.941391
      dxz     :     0.499091
      dyz     :     0.513860
      dx2y2   :     0.021667
      dxy     :     0.695797
      f0      :     0.002486  f :     0.022332
      f+1     :     0.003188
      f-1     :     0.003236
      f+2     :     0.002572
      f-2     :     0.005007
      f+3     :     0.002912
      f-3     :     0.002931
      g0      :     0.000268  g :     0.002611
      g+1     :     0.000270
      g-1     :     0.000272
      g+2     :     0.000248
      g-2     :     0.000361
      g+3     :     0.000332
      g-3     :     0.000331
      g+4     :     0.000268
      g-4     :     0.000261
      h0      :     0.000033  h :     0.000383
      h+1     :     0.000033
      h-1     :     0.000033
      h+2     :     0.000030
      h-2     :     0.000038
      h+3     :     0.000037
      h-3     :     0.000037
      h+4     :     0.000039
      h-4     :     0.000039
      h+5     :     0.000032
      h-5     :     0.000032


                     *******************************
                     * LOEWDIN POPULATION ANALYSIS *
                     *******************************

-----------------------------------------
LOEWDIN ATOMIC CHARGES AND SPIN DENSITIES
-----------------------------------------
   0 Zr:   -0.000000    2.000000

--------------------------------------------------
LOEWDIN REDUCED ORBITAL CHARGES AND SPIN DENSITIES
--------------------------------------------------
CHARGE
  0 Zrs       :     3.869554  s :     3.869554
      pz      :     2.008603  p :     6.025809
      px      :     2.008603
      py      :     2.008603
      dz2     :     0.235518  d :     2.056880
      dxz     :     0.521286
      dyz     :     0.535935
      dx2y2   :     0.047750
      dxy     :     0.716391
      f0      :     0.005157  f :     0.041056
      f+1     :     0.005826
      f-1     :     0.005877
      f+2     :     0.005269
      f-2     :     0.007777
      f+3     :     0.005567
      f-3     :     0.005581
      g0      :     0.000607  g :     0.005928
      g+1     :     0.000633
      g-1     :     0.000637
      g+2     :     0.000599
      g-2     :     0.000791
      g+3     :     0.000704
      g-3     :     0.000705
      g+4     :     0.000627
      g-4     :     0.000623
      h0      :     0.000064  h :     0.000773
      h+1     :     0.000066
      h-1     :     0.000067
      h+2     :     0.000060
      h-2     :     0.000083
      h+3     :     0.000076
      h-3     :     0.000077
      h+4     :     0.000075
      h-4     :     0.000074
      h+5     :     0.000065
      h-5     :     0.000065

SPIN
  0 Zrs       :     0.019873  s :     0.019873
      pz      :     0.004470  p :     0.013409
      px      :     0.004470
      py      :     0.004470
      dz2     :     0.210977  d :     1.941391
      dxz     :     0.499091
      dyz     :     0.513860
      dx2y2   :     0.021667
      dxy     :     0.695797
      f0      :     0.002486  f :     0.022332
      f+1     :     0.003188
      f-1     :     0.003236
      f+2     :     0.002572
      f-2     :     0.005007
      f+3     :     0.002912
      f-3     :     0.002931
      g0      :     0.000268  g :     0.002611
      g+1     :     0.000270
      g-1     :     0.000272
      g+2     :     0.000248
      g-2     :     0.000361
      g+3     :     0.000332
      g-3     :     0.000331
      g+4     :     0.000268
      g-4     :     0.000261
      h0      :     0.000033  h :     0.000383
      h+1     :     0.000033
      h-1     :     0.000033
      h+2     :     0.000030
      h-2     :     0.000038
      h+3     :     0.000037
      h-3     :     0.000037
      h+4     :     0.000039
      h-4     :     0.000039
      h+5     :     0.000032
      h-5     :     0.000032


                      *****************************
                      * MAYER POPULATION ANALYSIS *
                      *****************************

  NA   - Mulliken gross atomic population
  ZA   - Total nuclear charge
  QA   - Mulliken gross atomic charge
  VA   - Mayer's total valence
  BVA  - Mayer's bonded valence
  FA   - Mayer's free valence

  ATOM       NA         ZA         QA         VA         BVA        FA
  0 Zr    12.0000    12.0000    -0.0000     3.0023     0.0000     3.0023





------------------------------------------------------------------------------- 
                                     TIMINGS                                   
------------------------------------------------------------------------------- 


Total execution time                   ...      191.847 sec

Fock Matrix Formation                  ...        9.148 sec (  4.8%)
Initial Guess                          ...        0.024 sec (  0.0%)
DIIS Solver                            ...        1.003 sec (  0.5%)
State Vector Update                    ...        0.040 sec (  0.0%)
Sigma-vector construction              ...      122.981 sec ( 64.1%)
  <0|H|D>                              ...        0.003 sec (  0.0% of sigma)
  <D|H|D>(0-ext Fock)                  ...        0.027 sec (  0.0% of sigma)
  <D|H|D>(0-ext)                       ...        0.061 sec (  0.0% of sigma)
  <D|H|D>(2-ext Fock)                  ...        0.007 sec (  0.0% of sigma)
  <D|H|D>(2-ext)                       ...        0.225 sec (  0.2% of sigma)
  <D|H|D>(4-ext)                       ...       16.764 sec ( 13.6% of sigma)
  <S|H|0>                              ...        0.321 sec (  0.3% of sigma)
  <S|H|S>                              ...        0.002 sec (  0.0% of sigma)
  <S|H|D>(1-ext)                       ...        0.003 sec (  0.0% of sigma)
  <D|H|S>(1-ext)                       ...        0.085 sec (  0.1% of sigma)
  Fock-dressing                        ...      101.922 sec ( 82.9% of sigma)
  (ik|jl)-dressing                     ...        0.063 sec (  0.1% of sigma)
  (ij|ab),(ia|jb)-dressing             ...        2.777 sec (  2.3% of sigma)
  Pair energies                        ...        0.004 sec (  0.0% of sigma)
Total Time for computing (T)           ...        3.479 sec (  1.8% of ALL)
  I/O of integral and amplitudes       ...        0.885 sec ( 25.4% of (T))
  External N**7 contributions          ...        0.933 sec ( 26.8% of (T))
  Internal N**7 contributions          ...        0.284 sec (  8.2% of (T))
  N**6 triples energy contributions    ...        1.166 sec ( 33.5% of (T))


-------------------------   --------------------
FINAL SINGLE POINT ENERGY       -46.680182603714
-------------------------   --------------------


                            ***************************************
                            *     ORCA property calculations      *
                            ***************************************

                                    ---------------------
                                    Active property flags
                                    ---------------------
   (+) Dipole Moment


------------------------------------------------------------------------------
                       ORCA ELECTRIC PROPERTIES CALCULATION
------------------------------------------------------------------------------

Dipole Moment Calculation                       ... on
Quadrupole Moment Calculation                   ... off
Polarizability Calculation                      ... off
GBWName                                         ... 40_Zr.gbw
Electron density file                           ... 40_Zr.scfp
The origin for moment calculation is the CENTER OF MASS  = ( 0.000000,  0.000000  0.000000)

-------------
DIPOLE MOMENT
-------------
                                X             Y             Z
Electronic contribution:      0.00000       0.00000      -0.00000
Nuclear contribution   :      0.00000       0.00000       0.00000
                        -----------------------------------------
Total Dipole Moment    :      0.00000       0.00000      -0.00000
                        -----------------------------------------
Magnitude (a.u.)       :      0.00000
Magnitude (Debye)      :      0.00000



--------------------
Rotational spectrum 
--------------------
 
Rotational constants in cm-1:     0.000000     0.000000     0.000000 
Rotational constants in MHz :     0.000000     0.000000     0.000000 

 Dipole components along the rotational axes: 
x,y,z [a.u.] :     0.000000     0.000000    -0.000000 
x,y,z [Debye]:     0.000000     0.000000    -0.000000 

 

                           *** MDCI DENSITY ***

------------------------------------------------------------------------------
                       ORCA ELECTRIC PROPERTIES CALCULATION
------------------------------------------------------------------------------

Dipole Moment Calculation                       ... on
Quadrupole Moment Calculation                   ... off
Polarizability Calculation                      ... off
GBWName                                         ... 40_Zr.gbw
Electron density file                           ... 40_Zr.mdcip
The origin for moment calculation is the CENTER OF MASS  = ( 0.000000,  0.000000  0.000000)

-------------
DIPOLE MOMENT
-------------
                                X             Y             Z
Electronic contribution:     -0.00000      -0.00000       0.00000
Nuclear contribution   :      0.00000       0.00000       0.00000
                        -----------------------------------------
Total Dipole Moment    :     -0.00000      -0.00000       0.00000
                        -----------------------------------------
Magnitude (a.u.)       :      0.00000
Magnitude (Debye)      :      0.00000



--------------------
Rotational spectrum 
--------------------
 
Rotational constants in cm-1:     0.000000     0.000000     0.000000 
Rotational constants in MHz :     0.000000     0.000000     0.000000 

 Dipole components along the rotational axes: 
x,y,z [a.u.] :    -0.000000    -0.000000     0.000000 
x,y,z [Debye]:    -0.000000    -0.000000     0.000000 

 

Timings for individual modules:

Sum of individual times         ...      366.628 sec (=   6.110 min)
GTO integral calculation        ...        2.199 sec (=   0.037 min)   0.6 %
SCF iterations                  ...      171.692 sec (=   2.862 min)  46.8 %
MDCI module                     ...      192.737 sec (=   3.212 min)  52.6 %
                             ****ORCA TERMINATED NORMALLY****
TOTAL RUN TIME: 0 days 0 hours 6 minutes 7 seconds 235 msec
