
                                 *****************
                                 * O   R   C   A *
                                 *****************

           --- An Ab Initio, DFT and Semiempirical electronic structure package ---

                  #######################################################
                  #                        -***-                        #
                  #          Department of theory and spectroscopy      #
                  #               Directorship: Frank Neese             #
                  #        Max Planck Institute fuer Kohlenforschung    #
                  #                Kaiser Wilhelm Platz 1               #
                  #                 D-45470 Muelheim/Ruhr               #
                  #                      Germany                        #
                  #                                                     #
                  #                  All rights reserved                #
                  #                        -***-                        #
                  #######################################################


                         Program Version 4.2.0 -  RELEASE  -


 With contributions from (in alphabetic order):
   Daniel Aravena         : Magnetic Suceptibility
   Michael Atanasov       : Ab Initio Ligand Field Theory (pilot matlab implementation)
   Alexander A. Auer      : GIAO ZORA, VPT2
   Ute Becker             : Parallelization
   Giovanni Bistoni       : ED, misc. LED, open-shell LED, HFLED
   Martin Brehm           : Molecular dynamics
   Dmytro Bykov           : SCF Hessian
   Vijay G. Chilkuri      : MRCI spin determinant printing, contributions to CSF-ICE
   Dipayan Datta          : RHF DLPNO-CCSD density
   Achintya Kumar Dutta   : EOM-CC, STEOM-CC
   Dmitry Ganyushin       : Spin-Orbit,Spin-Spin,Magnetic field MRCI
   Miquel Garcia          : C-PCM Hessian, Gaussian charge scheme
   Yang Guo               : DLPNO-NEVPT2, CIM, IAO-localization
   Andreas Hansen         : Spin unrestricted coupled pair/coupled cluster methods
   Benjamin Helmich-Paris : CASSCF linear response (MC-RPA)
   Lee Huntington         : MR-EOM, pCC
   Robert Izsak           : Overlap fitted RIJCOSX, COSX-SCS-MP3, EOM
   Christian Kollmar      : KDIIS, OOCD, Brueckner-CCSD(T), CCSD density
   Simone Kossmann        : Meta GGA functionals, TD-DFT gradient, OOMP2, MP2 Hessian
   Martin Krupicka        : AUTO-CI
   Lucas Lang             : DCDCAS
   Dagmar Lenk            : GEPOL surface, SMD
   Dimitrios Liakos       : Extrapolation schemes; Compound Job, initial MDCI parallelization
   Dimitrios Manganas     : Further ROCIS development; embedding schemes
   Dimitrios Pantazis     : SARC Basis sets
   Taras Petrenko         : DFT Hessian,TD-DFT gradient, ASA, ECA, R-Raman, ABS, FL, XAS/XES, NRVS
   Peter Pinski           : DLPNO-MP2, DLPNO-MP2 Gradient
   Christoph Reimann      : Effective Core Potentials
   Marius Retegan         : Local ZFS, SOC
   Christoph Riplinger    : Optimizer, TS searches, QM/MM, DLPNO-CCSD(T), (RO)-DLPNO pert. Triples
   Tobias Risthaus        : Range-separated hybrids, TD-DFT gradient, RPA, STAB
   Michael Roemelt        : Original ROCIS implementation
   Masaaki Saitow         : Open-shell DLPNO-CCSD energy and density
   Barbara Sandhoefer     : DKH picture change effects
   Avijit Sen             : IP-ROCIS
   Kantharuban Sivalingam : CASSCF convergence, NEVPT2, FIC-MRCI
   Bernardo de Souza      : ESD, SOC TD-DFT
   Georgi Stoychev        : AutoAux, RI-MP2 NMR
   Willem Van den Heuvel  : Paramagnetic NMR
   Boris Wezisla          : Elementary symmetry handling
   Frank Wennmohs         : Technical directorship


 We gratefully acknowledge several colleagues who have allowed us to
 interface, adapt or use parts of their codes:
   Stefan Grimme, W. Hujo, H. Kruse,             : VdW corrections, initial TS optimization,
                  C. Bannwarth                     DFT functionals, gCP, sTDA/sTD-DF
   Ed Valeev, F. Pavosevic, A. Kumar             : LibInt (2-el integral package), F12 methods
   Garnet Chan, S. Sharma, J. Yang, R. Olivares  : DMRG
   Ulf Ekstrom                                   : XCFun DFT Library
   Mihaly Kallay                                 : mrcc  (arbitrary order and MRCC methods)
   Andreas Klamt, Michael Diedenhofen            : otool_cosmo (COSMO solvation model)
   Jiri Pittner, Ondrej Demel                    : Mk-CCSD
   Frank Weinhold                                : gennbo (NPA and NBO analysis)
   Christopher J. Cramer and Donald G. Truhlar   : smd solvation model
   Lars Goerigk                                  : TD-DFT with DH, B97 family of functionals
   V. Asgeirsson, H. Jonsson                     : NEB implementation
   FAccTs GmbH                                   : IRC, NEB, NEB-TS, Multilevel, MM, QM/MM, CI optimization
   S Lehtola, MJT Oliveira, MAL Marques          : LibXC Library


 Your calculation uses the libint2 library for the computation of 2-el integrals
 For citations please refer to: http://libint.valeyev.net

 Your ORCA version has been built with support for libXC version: 4.2.3
 For citations please refer to: https://tddft.org/programs/libxc/

 This ORCA versions uses:
   CBLAS   interface :  Fast vector & matrix operations
   LAPACKE interface :  Fast linear algebra routines
   SCALAPACK package :  Parallel linear algebra routines


----- Orbital basis set information -----
Your calculation utilizes the basis: def2-SVP
   F. Weigend and R. Ahlrichs, Phys. Chem. Chem. Phys. 7, 3297 (2005).

----- AuxJ basis set information -----
Your calculation utilizes the auxiliary basis: def2/J
   F. Weigend, Phys. Chem. Chem. Phys. 8, 1057 (2006).

================================================================================
                                        WARNINGS
                       Please study these warnings very carefully!
================================================================================


INFO   : the flag for use of LIBINT has been found!

================================================================================
                                       INPUT FILE
================================================================================
NAME = 42_Mo_atom42.inp
|  1> # input to generate an atomic fitting density for Mo
|  2> # this file is use internally by ORCA
|  3> #
|  4> # atomic ground state (S=5): 1s2 2s2 2p6 3s2 3p6 4s2 3d10 4p6 5s2 4d4 
|  5> #
|  6> ! RHF AllowRHF def2-SVP def2/J  NoMulliken NoLoewdin NoMayer NoPrintMOs 
|  7> 
|  8> %output print[p_atomdensfit] 2 end
|  9> 
| 10> %scf
| 11>   guess hcore
| 12>   maxiter 1000
| 13>   maxdisk 500000
| 14>   SCFMode Conventional
| 15>   lshift 0.600000
| 16>   hftyp rohf
| 17>   rohf_case sahf
| 18>   rohf_numop   2
| 19>   rohf_norb[1] 5
| 20>   rohf_nel[1]  4
| 21> end
| 22> 
| 23> %basis
| 24>   NewECP 42
| 25>     N_core 28
| 26>     lmax g
| 27>     s 2
| 28>       1      10.0970000000    180.0768530000  2
| 29>       2       4.3756700000     24.7159200000  2
| 30>     p 4
| 31>       1       9.1265640000     41.2276780000  2
| 32>       2       8.8632230000     82.4526700000  2
| 33>       3       4.0449480000      6.3450920000  2
| 34>       4       3.8666570000     12.4584230000  2
| 35>     d 4
| 36>       1       7.5357540000     19.3087440000  2
| 37>       2       7.2789760000     28.9776740000  2
| 38>       3       2.7632050000      3.1895160000  2
| 39>       4       2.7720850000      4.7001690000  2
| 40>     f 2
| 41>       1       6.3066330000     -7.1788880000  2
| 42>       2       6.3564480000     -9.7459780000  2
| 43>     g 1
| 44>       1       1.0000000000      0.0000000000  2
| 45>   end
| 46>   NewGTO 42
| 47>     s 13 
| 48>      1    6711.2300000000      0.0000080020
| 49>      2     988.2620000000      0.0000590148
| 50>      3     216.2910000000      0.0002440613
| 51>      4      31.1617000000      0.0077529478
| 52>      5      19.4654000000     -0.0577645121
| 53>      6      12.1603000000      0.1703207894
| 54>      7       4.5171000000     -0.3984931128
| 55>      8       2.8203200000     -0.2762474012
| 56>      9       1.2602800000      0.5040736376
| 57>     10       0.6800130000      0.6369770267
| 58>     11       0.3514060000      0.2247374604
| 59>     12       0.1247460000      0.0120160188
| 60>     13       0.0566870000     -0.0007041769
| 61>     s 13 
| 62>      1    6711.2300000000     -0.0000037147
| 63>      2     988.2620000000     -0.0000235265
| 64>      3     216.2910000000     -0.0001040120
| 65>      4      31.1617000000     -0.0028826180
| 66>      5      19.4654000000      0.0220827362
| 67>      6      12.1603000000     -0.0677279031
| 68>      7       4.5171000000      0.1798268261
| 69>      8       2.8203200000      0.0997784551
| 70>      9       1.2602800000     -0.2459722610
| 71>     10       0.6800130000     -0.4108510782
| 72>     11       0.3514060000     -0.2409351089
| 73>     12       0.1247460000      0.4312906726
| 74>     13       0.0566870000      0.7975627068
| 75>     s 13 
| 76>      1    6711.2300000000     -0.0000053581
| 77>      2     988.2620000000     -0.0000525098
| 78>      3     216.2910000000     -0.0001210940
| 79>      4      31.1617000000     -0.0081668794
| 80>      5      19.4654000000      0.0499839596
| 81>      6      12.1603000000     -0.1350583885
| 82>      7       4.5171000000      0.3805019950
| 83>      8       2.8203200000      0.0844936063
| 84>      9       1.2602800000     -0.3527907584
| 85>     10       0.6800130000     -1.5669799341
| 86>     11       0.3514060000      1.1838781687
| 87>     12       0.1247460000      1.7605235096
| 88>     13       0.0566870000     -1.2266404251
| 89>     s 13 
| 90>      1    6711.2300000000     -0.0000070191
| 91>      2     988.2620000000     -0.0000514732
| 92>      3     216.2910000000     -0.0002269501
| 93>      4      31.1617000000     -0.0056597137
| 94>      5      19.4654000000      0.0436032705
| 95>      6      12.1603000000     -0.1396702231
| 96>      7       4.5171000000      0.4387748233
| 97>      8       2.8203200000      0.2332079693
| 98>      9       1.2602800000     -1.4603192228
| 99>     10       0.6800130000     -0.7747092871
|100>     11       0.3514060000      3.0858432818
|101>     12       0.1247460000     -2.1344482924
|102>     13       0.0566870000     -0.0054881363
|103>     s 13 
|104>      1    6711.2300000000     -0.0000083685
|105>      2     988.2620000000     -0.0000079036
|106>      3     216.2910000000     -0.0003923914
|107>      4      31.1617000000      0.0060239522
|108>      5      19.4654000000     -0.0046254766
|109>      6      12.1603000000     -0.0575095190
|110>      7       4.5171000000      0.2077689328
|111>      8       2.8203200000      0.6527240672
|112>      9       1.2602800000     -3.6190641993
|113>     10       0.6800130000      4.7821309679
|114>     11       0.3514060000     -2.2262606222
|115>     12       0.1247460000     -0.5716110885
|116>     13       0.0566870000      1.6067243148
|117>     s 1 
|118>      1       0.0255690000      1.0000000000
|119>     s 1 
|120>      1       0.0115000000      1.0000000000
|121>     p 10 
|122>      1     152.9580000000      0.0000889982
|123>      2      10.0454000000      0.0486570257
|124>      3       6.2786900000     -0.1429131385
|125>      4       3.2529000000     -0.1119217590
|126>      5       1.7561900000      0.2872492484
|127>      6       0.9164400000      0.4882572236
|128>      7       0.4752100000      0.3324973424
|129>      8       0.2340410000      0.0879432391
|130>      9       0.1099870000      0.0051368971
|131>     10       0.0509000000      0.0014689706
|132>     p 10 
|133>      1     152.9580000000     -0.0000335279
|134>      2      10.0454000000     -0.0168958282
|135>      3       6.2786900000      0.0516743224
|136>      4       3.2529000000      0.0359430301
|137>      5       1.7561900000     -0.1121709539
|138>      6       0.9164400000     -0.2099159685
|139>      7       0.4752100000     -0.1578370760
|140>      8       0.2340410000      0.1262068519
|141>      9       0.1099870000      0.4878857579
|142>     10       0.0509000000      0.5292580732
|143>     p 10 
|144>      1     152.9580000000     -0.0000461688
|145>      2      10.0454000000     -0.0234918711
|146>      3       6.2786900000      0.0716318398
|147>      4       3.2529000000      0.0525229902
|148>      5       1.7561900000     -0.1612755194
|149>      6       0.9164400000     -0.3068175271
|150>      7       0.4752100000     -0.2104643219
|151>      8       0.2340410000      0.3511274958
|152>      9       0.1099870000      0.6450689564
|153>     10       0.0509000000      0.2120772176
|154>     p 10 
|155>      1     152.9580000000     -0.0000825923
|156>      2      10.0454000000     -0.0428734778
|157>      3       6.2786900000      0.1326120605
|158>      4       3.2529000000      0.1049446367
|159>      5       1.7561900000     -0.3566447670
|160>      6       0.9164400000     -0.8290658527
|161>      7       0.4752100000      0.4725006564
|162>      8       0.2340410000      1.3155014470
|163>      9       0.1099870000     -0.6048588965
|164>     10       0.0509000000     -0.6077375415
|165>     p 10 
|166>      1     152.9580000000     -0.0001572779
|167>      2      10.0454000000     -0.0618392784
|168>      3       6.2786900000      0.1916116037
|169>      4       3.2529000000      0.3040292609
|170>      5       1.7561900000     -1.2623908156
|171>      6       0.9164400000     -0.6613376732
|172>      7       0.4752100000      2.9994103644
|173>      8       0.2340410000     -1.8661607588
|174>      9       0.1099870000     -0.6560543369
|175>     10       0.0509000000      1.0785469385
|176>     p 1 
|177>      1       0.0231980000      1.0000000000
|178>     p 1 
|179>      1       0.0106000000      1.0000000000
|180>     d 9 
|181>      1      64.0194000000      0.0001679512
|182>      2      17.5538000000      0.0016624149
|183>      3       6.5001600000     -0.0133687123
|184>      4       2.4048200000      0.0673886488
|185>      5       1.3421000000      0.2103201268
|186>      6       0.7078230000      0.3114589161
|187>      7       0.3603360000      0.3157844131
|188>      8       0.1770770000      0.2336743913
|189>      9       0.0836650000      0.1125715375
|190>     d 9 
|191>      1      64.0194000000     -0.0002193279
|192>      2      17.5538000000     -0.0019049239
|193>      3       6.5001600000      0.0158862412
|194>      4       2.4048200000     -0.0920431160
|195>      5       1.3421000000     -0.2864700451
|196>      6       0.7078230000     -0.3823441622
|197>      7       0.3603360000     -0.0610110043
|198>      8       0.1770770000      0.4192068329
|199>      9       0.0836650000      0.5341780624
|200>     d 9 
|201>      1      64.0194000000      0.0004378235
|202>      2      17.5538000000      0.0027185509
|203>      3       6.5001600000     -0.0250689655
|204>      4       2.4048200000      0.1971919045
|205>      5       1.3421000000      0.5768408106
|206>      6       0.7078230000      0.2515034358
|207>      7       0.3603360000     -0.8406901557
|208>      8       0.1770770000     -0.5531769255
|209>      9       0.0836650000      0.6331403938
|210>     d 9 
|211>      1      64.0194000000     -0.0003558866
|212>      2      17.5538000000     -0.0041760747
|213>      3       6.5001600000      0.0365719206
|214>      4       2.4048200000     -0.2988074473
|215>      5       1.3421000000     -0.8263177718
|216>      6       0.7078230000      0.8646416712
|217>      7       0.3603360000      0.8836409299
|218>      8       0.1770770000     -1.3460626515
|219>      9       0.0836650000      0.0050312193
|220>     d 1 
|221>      1       0.0370260000      1.0000000000
|222>     d 1 
|223>      1       0.0164000000      1.0000000000
|224>   end
|225>   NewAuxGTO 42
|226>     S 1
|227>      1 1310.72 1.0
|228>     S 1
|229>      1  655.36 1.0
|230>     S 1
|231>      1  327.68 1.0
|232>     S 1
|233>      1  163.84 1.0
|234>     S 1
|235>      1   81.82 1.0
|236>     S 1
|237>      1   40.96 1.0
|238>     S 1
|239>      1   20.48 1.0
|240>     S 1
|241>      1   10.24 1.0
|242>     S 1
|243>      1    5.12 1.0
|244>     S 1
|245>      1    2.56 1.0
|246>     S 1
|247>      1    1.28 1.0
|248>     S 1
|249>      1    0.64 1.0
|250>     S 1
|251>      1    0.32 1.0
|252>     S 1
|253>      1    0.16 1.0
|254>     S 1
|255>      1    0.08 1.0
|256>     S 1
|257>      1    0.04 1.0
|258>     S 1
|259>      1    0.02 1.0
|260>     S 1
|261>      1    0.01 1.0
|262>   end
|263> end
|264> 
|265> * xyz 0 5
|266> 42  0.0 0.0 0.0
|267> *
|268> 
|269> 
|270>                          ****END OF INPUT****
================================================================================

                       ****************************
                       * Single Point Calculation *
                       ****************************

---------------------------------
CARTESIAN COORDINATES (ANGSTROEM)
---------------------------------
  Mo     0.000000    0.000000    0.000000

----------------------------
CARTESIAN COORDINATES (A.U.)
----------------------------
  NO LB      ZA    FRAG     MASS         X           Y           Z
   0 Mo   14.0000*   0    95.940    0.000000    0.000000    0.000000
* core charge reduced due to ECP

--------------------------------
INTERNAL COORDINATES (ANGSTROEM)
--------------------------------
 Mo     0   0   0     0.000000000000     0.00000000     0.00000000

---------------------------
INTERNAL COORDINATES (A.U.)
---------------------------
 Mo     0   0   0     0.000000000000     0.00000000     0.00000000

---------------------
BASIS SET INFORMATION
---------------------
There are 1 groups of distinct atoms

 Group   1 Type Mo  : 67s52p38d contracted to 7s7p6d pattern {131313131311/101010101011/999911}

Atom   0Mo   basis set group =>   1
---------------------------------
AUXILIARY/J BASIS SET INFORMATION
---------------------------------
There are 1 groups of distinct atoms

 Group   1 Type Mo  : 18s contracted to 18s pattern {111111111111111111}

Atom   0Mo   basis set group =>   1
-------------------------
ECP PARAMETER INFORMATION
-------------------------

 Group 1, Type Mo ECP (replacing 28 core electrons, lmax=4)

Atom   0Mo   ECP group =>   1

------------------------------------------------------------------------------
                           ORCA GTO INTEGRAL CALCULATION
------------------------------------------------------------------------------

                         BASIS SET STATISTICS AND STARTUP INFO

 # of primitive gaussian shells          ...  157
 # of primitive gaussian functions       ...  413
 # of contracted shells                  ...   20
 # of contracted basis functions         ...   58
 Highest angular momentum                ...    2
 Maximum contraction depth               ...   13
 Integral package used                   ... LIBINT
 Integral threshhold            Thresh   ...  1.000e-10
 Primitive cut-off              TCut     ...  1.000e-11
 Storage cut-off                TCutStore... -1.000e+00
 Buffer length                           ... 1048576 integrals/buffer
 Generate file with integrals 4 distinct ...false


------------------------------ INTEGRAL EVALUATION ----------------------------


 * One electron integrals 

   ECP integrals                         ... done
 Pre-screening matrix                    ... done
 Shell pair data                         ... done (   0.000 sec)
 Statistics run                          ... done
 Maximum amount of storage needed        ...    17 MB
 Maximum amount of storage dedicated     ... 500000 MB
 Beginning two electron integral evaluation:
 Starting repulsion integrals
  <ss|ss>  ...          406 b.         0 skpd (  0.0%)     0.034 s. (  0.085 ms/b)
  <ss|sp>  ...         1372 b.         0 skpd (  0.0%)     0.190 s. (  0.139 ms/b)
  <ss|sd>  ...         1176 b.         0 skpd (  0.0%)     0.586 s. (  0.499 ms/b)
  <ss|pp>  ...          784 b.         0 skpd (  0.0%)     0.377 s. (  0.480 ms/b)
  <ss|pd>  ...         1176 b.         0 skpd (  0.0%)     0.590 s. (  0.502 ms/b)
  <ss|dd>  ...          588 b.         0 skpd (  0.0%)     0.398 s. (  0.677 ms/b)
  <sp|sp>  ...         1225 b.         0 skpd (  0.0%)     0.540 s. (  0.441 ms/b)
  <sp|sd>  ...         2058 b.         0 skpd (  0.0%)     1.005 s. (  0.488 ms/b)
  <sp|pp>  ...         1372 b.         0 skpd (  0.0%)     0.720 s. (  0.525 ms/b)
  <sp|pd>  ...         2058 b.         0 skpd (  0.0%)     1.496 s. (  0.727 ms/b)
  <sp|dd>  ...         1029 b.         0 skpd (  0.0%)     1.182 s. (  1.148 ms/b)
  <sd|sd>  ...          903 b.         0 skpd (  0.0%)     0.729 s. (  0.808 ms/b)
  <sd|pp>  ...         1176 b.         0 skpd (  0.0%)     1.076 s. (  0.915 ms/b)
  <sd|pd>  ...         1764 b.         0 skpd (  0.0%)     2.440 s. (  1.383 ms/b)
  <sd|dd>  ...          882 b.         0 skpd (  0.0%)     1.986 s. (  2.251 ms/b)
  <pp|pp>  ...          406 b.         0 skpd (  0.0%)     0.397 s. (  0.977 ms/b)
  <pp|pd>  ...         1176 b.         0 skpd (  0.0%)     1.612 s. (  1.371 ms/b)
  <pp|dd>  ...          588 b.         0 skpd (  0.0%)     1.360 s. (  2.313 ms/b)
  <pd|pd>  ...          903 b.         0 skpd (  0.0%)     2.375 s. (  2.630 ms/b)
  <pd|dd>  ...          882 b.         0 skpd (  0.0%)     3.694 s. (  4.189 ms/b)
  <dd|dd>  ...          231 b.         0 skpd (  0.0%)     1.819 s. (  7.876 ms/b)


                                      INTEGRAL STATISTICS

Integral type statistics:
 Number of integrals retained            ...    1464616 
 One   Center Integrals retained         ...    1464616 (100.0%)
 Two   Center Integrals retained         ...          0 (  0.0%)
 Three Center Integrals retained         ...          0 (  0.0%)
 Four  Center Integrals retained         ...          0 (  0.0%)

Storage statistics:
 Number of char integrals                ...          0 (  0.0%)
 Number of short int integrals           ...          0 (  0.0%)
 Number of double/float integrals        ...    1464616 (100.0%)
 Amount of memory used                   ...         18 MB
 Amount of memory estimated              ...         17 MB ( 96.2%)

Prescreening statistics:
 Total number of shell quadruples        ...      22155 
 Number of skipped shell quadruples      ...          0 (  0.0%)
 # of negligible batches done            ...          0 (  0.0%)

Timings:
 Total evaluation time               ...    25.527 sec (   0.425 min)
 One electron matrix time            ...     0.043 sec (   0.001 min) =  0.2%
 Schwartz matrix evaluation time     ...     0.747 sec (   0.012 min) =  2.9%
 Statistics run                      ...     0.011 sec (   0.000 min) =  0.0%
 Repulsion integral time             ...    24.608 sec (   0.410 min) = 96.4%

-------------------------------------------------------------------------------
                                 ORCA SCF
-------------------------------------------------------------------------------

------------
SCF SETTINGS
------------
Hamiltonian:
 Ab initio Hamiltonian  Method          .... Hartree-Fock(GTOs)


General Settings:
 Integral files         IntName         .... 42_Mo_atom42
 Hartree-Fock type      HFTyp           .... ROHF
 Total Charge           Charge          ....    0
 Multiplicity           Mult            ....    5
 Number of Electrons    NEL             ....   14
 Basis Dimension        Dim             ....   58
 Nuclear Repulsion      ENuc            ....      0.0000000000 Eh

Convergence Acceleration:
 DIIS                   CNVDIIS         .... on
   Start iteration      DIISMaxIt       ....    12
   Startup error        DIISStart       ....  0.200000
   # of expansion vecs  DIISMaxEq       ....     5
   Bias factor          DIISBfac        ....   1.050
   Max. coefficient     DIISMaxC        ....  10.000
 Newton-Raphson         CNVNR           .... off
 SOSCF                  CNVSOSCF        .... off
 Level Shifting         CNVShift        .... on
   Level shift para.    LevelShift      ....    0.6000
   Turn off err/grad.   ShiftErr        ....    0.0010
 Zerner damping         CNVZerner       .... off
 Static damping         CNVDamp         .... on
   Fraction old density DampFac         ....    0.7000
   Max. Damping (<1)    DampMax         ....    0.9800
   Min. Damping (>=0)   DampMin         ....    0.0000
   Turn off err/grad.   DampErr         ....    0.1000
 Fernandez-Rico         CNVRico         .... off

SCF Procedure:
 Maximum # iterations   MaxIter         ....  1000
 SCF integral mode      SCFMode         .... Conventional
 Integral Threshold     Thresh          ....  1.000e-10 Eh
 Primitive CutOff       TCut            ....  1.000e-11 Eh
 Integral Buffer length BufferLength    .... 1048576
 Integral index format  IndFormat       ....     0
 Integral value format  ValFormat       ....     0
 Integral Storage       Thresh          ....  1.000e-10 Eh

Convergence Tolerance:
 Convergence Check Mode ConvCheckMode   .... Total+1el-Energy
 Convergence forced     ConvForced      .... 0
 Energy Change          TolE            ....  1.000e-06 Eh
 1-El. energy change                    ....  1.000e-03 Eh
 DIIS Error             TolErr          ....  1.000e-06


Diagonalization of the overlap matrix:
Smallest eigenvalue                        ... 3.270e-04
Time for diagonalization                   ...    0.001 sec
Threshold for overlap eigenvalues          ... 1.000e-08
Number of eigenvalues below threshold      ... 0
Time for construction of square roots      ...    0.000 sec
Total time needed                          ...    0.001 sec

--------------------
INITIAL GUESS: HCORE
--------------------
AVERAGE-CONFIGURATION (SAHF) CASE FOUND

-------------------
FINAL ROHF SETTINGS
-------------------
Number of operators             ... 2
  operator   0:   5 orbitals  10 electrons n(mue)= 2.000
  operator   1:   5 orbitals   4 electrons n(mue)= 0.800
Vector coupling coefficients a and b (Zerner convention):
   1.000    1.000           1.000    1.000 
   1.000    0.938           1.000    1.875 

                      -----------------
                      INTIAL GUESS DONE 
                      -----------------

 InCore treatment chosen:
   Memory dedicated               ...    1024 MB
   Memory needed                  ...     18 MB
   Number of tiny    integrals    ...       0
   Number of small   integrals    ...       0
   Number of regular integrals    ... 1464616

--------------
SCF ITERATIONS
--------------
ITER       Energy         Delta-E        Max-DP      RMS-DP      [F,P]     Damp
  0    -58.7661671454   0.000000000000 0.96176390  0.04235859  1.3234090 0.7000
  1    -64.8974922134  -6.131325068012 0.62899118  0.02742488  0.2186559 0.7000
                            ****Activating DIIS****
  2    -64.8375828818   0.059909331678 1.24315551  0.05465118  0.0796222 0.0000
  3    -64.5801088828   0.257473999014 0.00805624  0.00034382  0.4172992 0.7000
  4    -64.5044553580   0.075653524707 0.00646187  0.00024269  0.4541819 0.7000
  5    -64.4816157708   0.022839587212 0.00807105  0.00036128  0.4596651 0.7000
  6    -64.4699366379   0.011679132920 0.00578815  0.00025997  0.4572474 0.7000
  7    -64.4598187890   0.010117848935 0.68338869  0.03463132  0.4590620 0.7000
  8    -66.8332483635  -2.373429574518 1.72078389  0.08174001  0.0709816 0.0000
  9    -66.7564688899   0.076779473597 0.00052953  0.00001533  0.2104159 0.7000
 10    -66.7614715141  -0.005002624221 0.00043609  0.00001266  0.2083090 0.7000
 11    -66.7629272233  -0.001455709196 0.00020063  0.00000632  0.2079715 0.7000
 12    -66.7627718645   0.000155358858 0.00174722  0.00004245  0.2082859 0.7000
 13    -66.7474487506   0.015323113894 0.02740787  0.00109273  0.2151387 0.7000
 14    -66.9949110966  -0.247462346053 0.14181564  0.00482599  0.0844381 0.0000
 15    -67.1576821844  -0.162771087792 0.06645010  0.00179718  0.0556762 0.0000
 16    -67.1720849703  -0.014402785878 0.10155693  0.00216342  0.0264548 0.0000
 17    -67.1902134577  -0.018128487452 0.06168769  0.00139380  0.0128977 0.0000
 18    -67.1954084931  -0.005195035407 0.05100279  0.00117726  0.0110517 0.0000
 19    -67.1977061333  -0.002297640199 0.04825808  0.00102961  0.0100917 0.0000
 20    -67.1990760345  -0.001369901165 0.04146128  0.00081639  0.0100794 0.0000
 21    -67.1998866445  -0.000810609961 0.03299714  0.00061627  0.0101262 0.0000
 22    -67.2003558348  -0.000469190367 0.02861069  0.00051638  0.0101653 0.0000
 23    -67.2006603463  -0.000304511414 0.02382436  0.00041833  0.0102103 0.0000
 24    -67.2008505380  -0.000190191748 0.01966045  0.00033847  0.0102486 0.0000
 25    -67.2009667207  -0.000116182737 0.01584175  0.00026823  0.0102727 0.0000
 26    -67.2010353493  -0.000068628608 0.01273486  0.00021195  0.0102876 0.0000
 27    -67.2010750372  -0.000039687832 0.01086621  0.00017803  0.0102960 0.0000
 28    -67.2010974935  -0.000022456304 0.00872848  0.00014020  0.0103001 0.0000
 29    -67.2011077092  -0.000010215676 0.00634169  0.00009925  0.0103008 0.0000
 30    -67.2011105289  -0.000002819699 0.00407740  0.00006190  0.0102995 0.0000
                 **** Energy Check signals convergence ****

               *****************************************************
               *                     SUCCESS                       *
               *           SCF CONVERGED AFTER  31 CYCLES          *
               *****************************************************


----------------
TOTAL SCF ENERGY
----------------

Total Energy       :          -67.20111009 Eh           -1828.63517 eV

Components:
Nuclear Repulsion  :            0.00000000 Eh               0.00000 eV
Electronic Energy  :          -67.20111009 Eh           -1828.63517 eV
One Electron Energy:         -116.41332607 Eh           -3167.76765 eV
Two Electron Energy:           49.21221598 Eh            1339.13248 eV

Virial components:
Potential Energy   :          -90.97337461 Eh           -2475.51138 eV
Kinetic Energy     :           23.77226453 Eh             646.87620 eV
Virial Ratio       :            3.82687036


---------------
SCF CONVERGENCE
---------------

  Last Energy change         ...    4.4320e-07  Tolerance :   1.0000e-06
  Last MAX-Density change    ...    2.1034e-03  Tolerance :   1.0000e-05
  Last RMS-Density change    ...    3.4441e-05  Tolerance :   1.0000e-06
  Last DIIS Error            ...    1.0297e-02  Tolerance :   1.0000e-06

             **** THE GBW FILE WAS UPDATED (42_Mo_atom42.gbw) ****
             **** DENSITY FILE WAS UPDATED (42_Mo_atom42.scfp) ****
             **** ENERGY FILE WAS UPDATED (42_Mo_atom42.en.tmp) ****
             **** THE GBW FILE WAS UPDATED (42_Mo_atom42.gbw) ****
             **** DENSITY FILE WAS UPDATED (42_Mo_atom42.scfp) ****
----------------
ORBITAL ENERGIES
----------------

  NO   OCC          E(Eh)            E(eV) 
   0   2.0000      -2.897633       -78.8486 
   1   2.0000      -1.761353       -47.9289 
   2   2.0000      -1.749964       -47.6189 
   3   2.0000      -1.749964       -47.6189 
   4   2.0000      -0.239456        -6.5159 
   5   0.8000      -0.326848        -8.8940 
   6   0.8000      -0.317311        -8.6345 
   7   0.8000      -0.317311        -8.6345 
   8   0.8000      -0.291825        -7.9410 
   9   0.8000      -0.236040        -6.4230 
  10   0.0000      -0.008591        -0.2338 
  11   0.0000      -0.005940        -0.1616 
  12   0.0000      -0.005940        -0.1616 
  13   0.0000       0.003496         0.0951 
  14   0.0000       0.025895         0.7046 
  15   0.0000       0.026158         0.7118 
  16   0.0000       0.026158         0.7118 
  17   0.0000       0.026948         0.7333 
  18   0.0000       0.027036         0.7357 
  19   0.0000       0.012319         0.3352 
  20   0.0000       0.017793         0.4842 
  21   0.0000       0.017793         0.4842 
  22   0.0000       0.120000         3.2654 
  23   0.0000       0.121136         3.2963 
  24   0.0000       0.121136         3.2963 
  25   0.0000       0.123642         3.3645 
  26   0.0000       0.103845         2.8258 
  27   0.0000       0.124387         3.3847 
  28   0.0000       0.111742         3.0407 
  29   0.0000       0.111742         3.0407 
  30   0.0000       0.188556         5.1309 
  31   0.0000       0.378349        10.2954 
  32   0.0000       0.373581        10.1657 
  33   0.0000       0.381049        10.3689 
  34   0.0000       0.381049        10.3689 
  35   0.0000       0.390253        10.6193 
  36   0.0000       0.388528        10.5724 
  37   0.0000       0.388528        10.5724 
  38   0.0000       0.389398        10.5961 
  39   0.0000       0.972997        26.4766 
  40   0.0000       1.157593        31.4997 
  41   0.0000       1.171497        31.8780 
  42   0.0000       1.162499        31.6332 
  43   0.0000       1.162499        31.6332 
  44   0.0000       1.187544        32.3147 
  45   0.0000       1.178400        32.0659 
  46   0.0000       1.199797        32.6481 
  47   0.0000       1.199797        32.6481 
  48   0.0000       3.492427        95.0338 
  49   0.0000       3.532753        96.1311 
  50   0.0000       3.532874        96.1344 
  51   0.0000       3.532874        96.1344 
  52   0.0000       3.567667        97.0812 
  53   0.0000       3.552685        96.6735 
  54   0.0000       3.574616        97.2702 
  55   0.0000       3.613098        98.3174 
  56   0.0000       3.613098        98.3174 
  57   0.0000      11.726299       319.0888 
CleanUpVectors: The p-vectors have cracked symmetry
CleanUpVectors: The p-vectors have cracked symmetry
CleanUpVectors: The p-vectors have cracked symmetry
CleanUpVectors: The d-vectors have cracked symmetry at i=4
CleanUpVectors: The d-vectors have cracked symmetry at i=6
CleanUpVectors: The d-vectors have cracked symmetry at i=7
CleanUpVectors: The d-vectors have cracked symmetry at i=8
CleanUpVectors: The d-vectors have cracked symmetry at i=9
CleanUpVectors: The p-vectors have cracked symmetry
CleanUpVectors: The p-vectors have cracked symmetry
CleanUpVectors: The p-vectors have cracked symmetry
CleanUpVectors: The d-vectors have cracked symmetry at i=14
CleanUpVectors: The d-vectors have cracked symmetry at i=15
CleanUpVectors: The d-vectors have cracked symmetry at i=16
CleanUpVectors: The d-vectors have cracked symmetry at i=17
CleanUpVectors: The d-vectors have cracked symmetry at i=18
CleanUpVectors: The p-vectors have cracked symmetry
CleanUpVectors: The p-vectors have cracked symmetry
CleanUpVectors: The p-vectors have cracked symmetry
CleanUpVectors: The d-vectors have cracked symmetry at i=22
CleanUpVectors: The d-vectors have cracked symmetry at i=23
CleanUpVectors: The d-vectors have cracked symmetry at i=24
CleanUpVectors: The d-vectors have cracked symmetry at i=25
CleanUpVectors: The p-vectors have cracked symmetry
CleanUpVectors: The d-vectors have cracked symmetry at i=27
CleanUpVectors: The p-vectors have cracked symmetry
CleanUpVectors: The p-vectors have cracked symmetry
CleanUpVectors: The d-vectors have cracked symmetry at i=31
CleanUpVectors: The p-vectors have cracked symmetry
CleanUpVectors: The d-vectors have cracked symmetry at i=33
CleanUpVectors: The d-vectors have cracked symmetry at i=34
CleanUpVectors: The d-vectors have cracked symmetry at i=35
CleanUpVectors: The p-vectors have cracked symmetry
CleanUpVectors: The p-vectors have cracked symmetry
CleanUpVectors: The d-vectors have cracked symmetry at i=38
CleanUpVectors: The d-vectors have cracked symmetry at i=40
CleanUpVectors: The p-vectors have cracked symmetry
CleanUpVectors: The d-vectors have cracked symmetry at i=42
CleanUpVectors: The d-vectors have cracked symmetry at i=43
CleanUpVectors: The d-vectors have cracked symmetry at i=44
CleanUpVectors: The d-vectors have cracked symmetry at i=45
CleanUpVectors: The p-vectors have cracked symmetry
CleanUpVectors: The p-vectors have cracked symmetry
CleanUpVectors: The d-vectors have cracked symmetry at i=49
CleanUpVectors: The d-vectors have cracked symmetry at i=50
CleanUpVectors: The d-vectors have cracked symmetry at i=51
CleanUpVectors: The d-vectors have cracked symmetry at i=52
CleanUpVectors: The d-vectors have cracked symmetry at i=53
CleanUpVectors: The p-vectors have cracked symmetry
CleanUpVectors: The p-vectors have cracked symmetry
--------------------------
ATOM BASIS FOR ELEMENT Mo
--------------------------
 NewGTO Mo
 S 67
    1       6711.230000000000        -0.000007999637
    2        988.262000000000        -0.000058997373
    3        216.291000000000        -0.000243989227
    4         31.161700000000        -0.007750658312
    5         19.465400000000         0.057747453923
    6         12.160300000000        -0.170270492739
    7          4.517100000000         0.398375435602
    8          2.820320000000         0.276165823830
    9          1.260280000000        -0.503924781896
   10          0.680013000000        -0.636788923897
   11          0.351406000000        -0.224671094198
   12          0.124746000000        -0.012012470404
   13          0.056687000000         0.000703968953
   14       6711.230000000000        -0.000000005017
   15        988.262000000000        -0.000000031773
   16        216.291000000000        -0.000000140470
   17         31.161700000000        -0.000003893027
   18         19.465400000000         0.000029823130
   19         12.160300000000        -0.000091467745
   20          4.517100000000         0.000242859346
   21          2.820320000000         0.000134752589
   22          1.260280000000        -0.000332189939
   23          0.680013000000        -0.000554861731
   24          0.351406000000        -0.000325387175
   25          0.124746000000         0.000582465769
   26          0.056687000000         0.001077122703
   27       6711.230000000000         0.000000002728
   28        988.262000000000         0.000000026733
   29        216.291000000000         0.000000061650
   30         31.161700000000         0.000004157818
   31         19.465400000000        -0.000025447200
   32         12.160300000000         0.000068759216
   33          4.517100000000        -0.000193716357
   34          2.820320000000        -0.000043016315
   35          1.260280000000         0.000179608363
   36          0.680013000000         0.000797760978
   37          0.351406000000        -0.000602721059
   38          0.124746000000        -0.000896295432
   39          0.056687000000         0.000624491638
   40       6711.230000000000         0.000000001950
   41        988.262000000000         0.000000014296
   42        216.291000000000         0.000000063034
   43         31.161700000000         0.000001571961
   44         19.465400000000        -0.000012110621
   45         12.160300000000         0.000038792805
   46          4.517100000000        -0.000121867823
   47          2.820320000000        -0.000064772512
   48          1.260280000000         0.000405597393
   49          0.680013000000         0.000215172178
   50          0.351406000000        -0.000857079720
   51          0.124746000000         0.000592833847
   52          0.056687000000         0.000001524306
   53       6711.230000000000        -0.000000001222
   54        988.262000000000        -0.000000001154
   55        216.291000000000        -0.000000057296
   56         31.161700000000         0.000000879597
   57         19.465400000000        -0.000000675396
   58         12.160300000000        -0.000008397341
   59          4.517100000000         0.000030337701
   60          2.820320000000         0.000095308512
   61          1.260280000000        -0.000528443242
   62          0.680013000000         0.000698270231
   63          0.351406000000        -0.000325070879
   64          0.124746000000        -0.000083464675
   65          0.056687000000         0.000234608330
   66          0.025569000000        -0.000918032856
   67          0.011500000000         0.000229459283
 P 52
    1        152.958000000000        -0.000089002626
    2         10.045400000000        -0.048659445452
    3          6.278690000000         0.142920245682
    4          3.252900000000         0.111927324957
    5          1.756190000000        -0.287263533530
    6          0.916440000000        -0.488281505015
    7          0.475210000000        -0.332513877754
    8          0.234041000000        -0.087947612586
    9          0.109987000000        -0.005137152562
   10          0.050900000000        -0.001469043653
   11        152.958000000000        -0.000000167533
   12         10.045400000000        -0.000084425650
   13          6.278690000000         0.000258208013
   14          3.252900000000         0.000179601356
   15          1.756190000000        -0.000560499641
   16          0.916440000000        -0.001048915257
   17          0.475210000000        -0.000788685674
   18          0.234041000000         0.000630634694
   19          0.109987000000         0.002437884163
   20          0.050900000000         0.002644614757
   21        152.958000000000         0.000000121307
   22         10.045400000000         0.000061724064
   23          6.278690000000        -0.000188210136
   24          3.252900000000        -0.000138002307
   25          1.756190000000         0.000423745747
   26          0.916440000000         0.000806152247
   27          0.475210000000         0.000552987594
   28          0.234041000000        -0.000922575129
   29          0.109987000000        -0.001694895965
   30          0.050900000000        -0.000557225420
   31        152.958000000000        -0.000000110195
   32         10.045400000000        -0.000057201986
   33          6.278690000000         0.000176931605
   34          3.252900000000         0.000140017605
   35          1.756190000000        -0.000475837047
   36          0.916440000000        -0.001106143376
   37          0.475210000000         0.000630412493
   38          0.234041000000         0.001755147926
   39          0.109987000000        -0.000807005451
   40          0.050900000000        -0.000810846152
   41        152.958000000000         0.000000107892
   42         10.045400000000         0.000042421381
   43          6.278690000000        -0.000131444432
   44          3.252900000000        -0.000208562284
   45          1.756190000000         0.000865992669
   46          0.916440000000         0.000453673751
   47          0.475210000000        -0.002057577856
   48          0.234041000000         0.001280175297
   49          0.109987000000         0.000450049414
   50          0.050900000000        -0.000739876852
   51          0.023198000000         0.000176188394
   52          0.010600000000        -0.000049157502
 D 38
    1         64.019400000000        -0.000166673917
    2         17.553800000000        -0.001649772096
    3          6.500160000000         0.013267042124
    4          2.404820000000        -0.066876152484
    5          1.342100000000        -0.208720624628
    6          0.707823000000        -0.309090244968
    7          0.360336000000        -0.313382846201
    8          0.177077000000        -0.231897277991
    9          0.083665000000        -0.111715421533
   10         64.019400000000         0.000009543311
   11         17.553800000000         0.000082886318
   12          6.500160000000        -0.000691236036
   13          2.404820000000         0.004004944772
   14          1.342100000000         0.012464774765
   15          0.707823000000         0.016636412588
   16          0.360336000000         0.002654687426
   17          0.177077000000        -0.018240366982
   18          0.083665000000        -0.023242951038
   19         64.019400000000        -0.000004048638
   20         17.553800000000        -0.000025138964
   21          6.500160000000         0.000231817557
   22          2.404820000000        -0.001823471560
   23          1.342100000000        -0.005334158192
   24          0.707823000000        -0.002325700761
   25          0.360336000000         0.007774023957
   26          0.177077000000         0.005115333684
   27          0.083665000000        -0.005854771292
   28         64.019400000000        -0.000000572628
   29         17.553800000000        -0.000006719378
   30          6.500160000000         0.000058844865
   31          2.404820000000        -0.000480786454
   32          1.342100000000        -0.001329559873
   33          0.707823000000         0.001391223703
   34          0.360336000000         0.001421793846
   35          0.177077000000        -0.002165838554
   36          0.083665000000         0.000008095321
   37          0.037026000000        -0.037572195723
   38          0.016400000000         0.000293542529
 S 67
    1       6711.230000000000        -0.000001940344
    2        988.262000000000        -0.000014310051
    3        216.291000000000        -0.000059180574
    4         31.161700000000        -0.001879953524
    5         19.465400000000         0.014006878531
    6         12.160300000000        -0.041299796737
    7          4.517100000000         0.096627573286
    8          2.820320000000         0.066985137627
    9          1.260280000000        -0.122228994163
   10          0.680013000000        -0.154455729225
   11          0.351406000000        -0.054494882665
   12          0.124746000000        -0.002913673285
   13          0.056687000000         0.000170750517
   14       6711.230000000000         0.000001715359
   15        988.262000000000         0.000010863969
   16        216.291000000000         0.000048030227
   17         31.161700000000         0.001331123300
   18         19.465400000000        -0.010197273688
   19         12.160300000000         0.031275108211
   20          4.517100000000        -0.083039680664
   21          2.820320000000        -0.046075278246
   22          1.260280000000         0.113584043319
   23          0.680013000000         0.189721094868
   24          0.351406000000         0.111258008262
   25          0.124746000000        -0.199159605399
   26          0.056687000000        -0.368295175524
   27       6711.230000000000        -0.000002703541
   28        988.262000000000        -0.000026494913
   29        216.291000000000        -0.000061100498
   30         31.161700000000        -0.004120769010
   31         19.465400000000         0.025220447324
   32         12.160300000000        -0.068146521405
   33          4.517100000000         0.191990202421
   34          2.820320000000         0.042633007947
   35          1.260280000000        -0.178007921135
   36          0.680013000000        -0.790652345300
   37          0.351406000000         0.597350374604
   38          0.124746000000         0.888308785282
   39          0.056687000000        -0.618926961245
   40       6711.230000000000        -0.000007253471
   41        988.262000000000        -0.000053191915
   42        216.291000000000        -0.000234528075
   43         31.161700000000        -0.005848694321
   44         19.465400000000         0.045059205127
   45         12.160300000000        -0.144333880478
   46          4.517100000000         0.453425730247
   47          2.820320000000         0.240994897984
   48          1.260280000000        -1.509079999194
   49          0.680013000000        -0.800577210858
   50          0.351406000000         3.188881105243
   51          0.124746000000        -2.205718569669
   52          0.056687000000        -0.005671387868
   53       6711.230000000000         0.000008776645
   54        988.262000000000         0.000008289071
   55        216.291000000000         0.000411528960
   56         31.161700000000        -0.006317750037
   57         19.465400000000         0.004851068533
   58         12.160300000000         0.060314350732
   59          4.517100000000        -0.217902157799
   60          2.820320000000        -0.684558469707
   61          1.260280000000         3.795571780696
   62          0.680013000000        -5.015363186115
   63          0.351406000000         2.334838933151
   64          0.124746000000         0.599489480585
   65          0.056687000000        -1.685086843663
   66          0.025569000000         3.041425045956
   67          0.011500000000        -1.192881919019
 S 67
    1       6711.230000000000        -0.000006009608
    2        988.262000000000        -0.000044320894
    3        216.291000000000        -0.000183293260
    4         31.161700000000        -0.005822566194
    5         19.465400000000         0.043381911504
    6         12.160300000000        -0.127913162327
    7          4.517100000000         0.299273590753
    8          2.820320000000         0.207465446799
    9          1.260280000000        -0.378565959317
   10          0.680013000000        -0.478378159834
   11          0.351406000000        -0.168780800948
   12          0.124746000000        -0.009024188819
   13          0.056687000000         0.000528846152
   14       6711.230000000000         0.000006652171
   15        988.262000000000         0.000042130536
   16        216.291000000000         0.000186261505
   17         31.161700000000         0.005162104046
   18         19.465400000000        -0.039545087792
   19         12.160300000000         0.121285054977
   20          4.517100000000        -0.322028373708
   21          2.820320000000        -0.178680202080
   22          1.260280000000         0.440479593090
   23          0.680013000000         0.735739530183
   24          0.351406000000         0.431459215352
   25          0.124746000000        -0.772342129954
   26          0.056687000000        -1.428250873195
   27       6711.230000000000        -0.000002967412
   28        988.262000000000        -0.000029080872
   29        216.291000000000        -0.000067064036
   30         31.161700000000        -0.004522964723
   31         19.465400000000         0.027682015969
   32         12.160300000000        -0.074797765066
   33          4.517100000000         0.210728849538
   34          2.820320000000         0.046794079093
   35          1.260280000000        -0.195381868222
   36          0.680013000000        -0.867821675317
   37          0.351406000000         0.655653026165
   38          0.124746000000         0.975009589012
   39          0.056687000000        -0.679335532994
   40       6711.230000000000         0.000006515372
   41        988.262000000000         0.000047779207
   42        216.291000000000         0.000210662944
   43         31.161700000000         0.005253542300
   44         19.465400000000        -0.040474066025
   45         12.160300000000         0.129646739031
   46          4.517100000000        -0.407285989435
   47          2.820320000000        -0.216471715050
   48          1.260280000000         1.355518885692
   49          0.680013000000         0.719111994959
   50          0.351406000000        -2.864386622773
   51          0.124746000000         1.981268838833
   52          0.056687000000         0.005094278214
   53       6711.230000000000         0.000012745367
   54        988.262000000000         0.000012037316
   55        216.291000000000         0.000597618730
   56         31.161700000000        -0.009174580952
   57         19.465400000000         0.007044678991
   58         12.160300000000         0.087587968839
   59          4.517100000000        -0.316435594111
   60          2.820320000000        -0.994109779608
   61          1.260280000000         5.511895905702
   62          0.680013000000        -7.283266239819
   63          0.351406000000         3.390632531720
   64          0.124746000000         0.870573342956
   65          0.056687000000        -2.447068270867
   66          0.025569000000         3.424209574837
   67          0.011500000000        -1.198381184533
 D 76
    1         64.019400000000        -0.000123402140
    2         17.553800000000        -0.001221459309
    3          6.500160000000         0.009822661051
    4          2.404820000000        -0.049513808137
    5          1.342100000000        -0.154532708271
    6          0.707823000000        -0.228844431355
    7          0.360336000000        -0.232022590175
    8          0.177077000000        -0.171692253568
    9          0.083665000000        -0.082711934558
   10         64.019400000000        -0.000112819958
   11         17.553800000000        -0.001116714731
   12          6.500160000000         0.008980332146
   13          2.404820000000        -0.045267819032
   14          1.342100000000        -0.141280966576
   15          0.707823000000        -0.209220189170
   16          0.360336000000        -0.212125809313
   17          0.177077000000        -0.156969018463
   18          0.083665000000        -0.075619085386
   19         64.019400000000         0.000000653269
   20         17.553800000000         0.000005673826
   21          6.500160000000        -0.000047317256
   22          2.404820000000         0.000274150923
   23          1.342100000000         0.000853252591
   24          0.707823000000         0.001138814172
   25          0.360336000000         0.000181721609
   26          0.177077000000        -0.001248609838
   27          0.083665000000        -0.001591052272
   28         64.019400000000         0.000000597249
   29         17.553800000000         0.000005187275
   30          6.500160000000        -0.000043259629
   31          2.404820000000         0.000250641484
   32          1.342100000000         0.000780083079
   33          0.707823000000         0.001041156715
   34          0.360336000000         0.000166138320
   35          0.177077000000        -0.001141537003
   36          0.083665000000        -0.001454613753
   37         64.019400000000         0.000000942759
   38         17.553800000000         0.000005853817
   39          6.500160000000        -0.000053980647
   40          2.404820000000         0.000424610526
   41          1.342100000000         0.001242103121
   42          0.707823000000         0.000541558775
   43          0.360336000000        -0.001810246167
   44          0.177077000000        -0.001191148014
   45          0.083665000000         0.001363332214
   46         64.019400000000         0.000000861914
   47         17.553800000000         0.000005351831
   48          6.500160000000        -0.000049351610
   49          2.404820000000         0.000388198629
   50          1.342100000000         0.001135588262
   51          0.707823000000         0.000495118140
   52          0.360336000000        -0.001655010975
   53          0.177077000000        -0.001089002740
   54          0.083665000000         0.001246421519
   55         64.019400000000        -0.000000388285
   56         17.553800000000        -0.000004556248
   57          6.500160000000         0.000039901281
   58          2.404820000000        -0.000326009670
   59          1.342100000000        -0.000901542404
   60          0.707823000000         0.000943355156
   61          0.360336000000         0.000964084031
   62          0.177077000000        -0.001468602758
   63          0.083665000000         0.000005489241
   64         64.019400000000        -0.000000354988
   65         17.553800000000        -0.000004165533
   66          6.500160000000         0.000036479601
   67          2.404820000000        -0.000298053155
   68          1.342100000000        -0.000824231864
   69          0.707823000000         0.000862459021
   70          0.360336000000         0.000881410319
   71          0.177077000000        -0.001342664731
   72          0.083665000000         0.000005018519
   73          0.037026000000        -0.011975475043
   74          0.037026000000        -0.010948534509
   75          0.016400000000         0.000180392587
   76          0.016400000000         0.000164923267
 P 104
    1        152.958000000000        -0.000000593319
    2         10.045400000000        -0.000324378908
    3          6.278690000000         0.000952750547
    4          3.252900000000         0.000746142154
    5          1.756190000000        -0.001914987532
    6          0.916440000000        -0.003255035482
    7          0.475210000000        -0.002216640317
    8          0.234041000000        -0.000586285978
    9          0.109987000000        -0.000034245847
   10          0.050900000000        -0.000009793099
   11        152.958000000000        -0.000000262380
   12         10.045400000000        -0.000143447924
   13          6.278690000000         0.000421328528
   14          3.252900000000         0.000329961475
   15          1.756190000000        -0.000846852181
   16          0.916440000000        -0.001439452659
   17          0.475210000000        -0.000980250083
   18          0.234041000000        -0.000259269343
   19          0.109987000000        -0.000015144313
   20          0.050900000000        -0.000004330737
   21        152.958000000000         0.000044466598
   22         10.045400000000         0.022408203110
   23          6.278690000000        -0.068533409443
   24          3.252900000000        -0.047669679718
   25          1.756190000000         0.148767464269
   26          0.916440000000         0.278402431802
   27          0.475210000000         0.209332458607
   28          0.234041000000        -0.167382666169
   29          0.109987000000        -0.647061690503
   30          0.050900000000        -0.701931995373
   31        152.958000000000         0.000019664167
   32         10.045400000000         0.009909430401
   33          6.278690000000        -0.030307073160
   34          3.252900000000        -0.021080644936
   35          1.756190000000         0.065788444789
   36          0.916440000000         0.123116052987
   37          0.475210000000         0.092571698814
   38          0.234041000000        -0.074020521530
   39          0.109987000000        -0.286145781336
   40          0.050900000000        -0.310410710770
   41        152.958000000000        -0.000048586185
   42         10.045400000000        -0.024721898724
   43          6.278690000000         0.075382462358
   44          3.252900000000         0.055273078882
   45          1.756190000000        -0.169719859275
   46          0.916440000000        -0.322882404697
   47          0.475210000000        -0.221484173347
   48          0.234041000000         0.369512430632
   49          0.109987000000         0.678844581685
   50          0.050900000000         0.223181519802
   51        152.958000000000        -0.000021485945
   52         10.045400000000        -0.010932600601
   53          6.278690000000         0.033335884209
   54          3.252900000000         0.024443045502
   55          1.756190000000        -0.075054082870
   56          0.916440000000        -0.142786135121
   57          0.475210000000        -0.097945470681
   58          0.234041000000         0.163407020890
   59          0.109987000000         0.300200917600
   60          0.050900000000         0.098696076898
   61        152.958000000000         0.000011080219
   62         10.045400000000         0.005751716635
   63          6.278690000000        -0.017790648986
   64          3.252900000000        -0.014078909470
   65          1.756190000000         0.047845888514
   66          0.916440000000         0.111223817169
   67          0.475210000000        -0.063388603509
   68          0.234041000000        -0.176481870469
   69          0.109987000000         0.081145201070
   70          0.050900000000         0.081531387383
   71        152.958000000000         0.000004899931
   72         10.045400000000         0.002543543335
   73          6.278690000000        -0.007867440198
   74          3.252900000000        -0.006226022356
   75          1.756190000000         0.021158568578
   76          0.916440000000         0.049185767809
   77          0.475210000000        -0.028031919901
   78          0.234041000000        -0.078044402039
   79          0.109987000000         0.035884301764
   80          0.050900000000         0.036055082365
   81        152.958000000000        -0.000003986670
   82         10.045400000000        -0.001567497929
   83          6.278690000000         0.004856958228
   84          3.252900000000         0.007706513551
   85          1.756190000000        -0.031998998707
   86          0.916440000000        -0.016763543499
   87          0.475210000000         0.076028855080
   88          0.234041000000        -0.047303319203
   89          0.109987000000        -0.016629621841
   90          0.050900000000         0.027338936298
   91        152.958000000000        -0.000001762998
   92         10.045400000000        -0.000693184168
   93          6.278690000000         0.002147860285
   94          3.252900000000         0.003408000155
   95          1.756190000000        -0.014150704054
   96          0.916440000000        -0.007413230180
   97          0.475210000000         0.033621734157
   98          0.234041000000        -0.020918631765
   99          0.109987000000        -0.007354006897
  100          0.050900000000         0.012089915696
  101          0.023198000000         0.714494649564
  102          0.023198000000         0.315966209651
  103          0.010600000000        -1.322274779096
  104          0.010600000000        -0.584740767927
 D 75
    1         64.019400000000         0.000007265640
    2         17.553800000000         0.000071916775
    3          6.500160000000        -0.000578336174
    4          2.404820000000         0.002915261578
    5          1.342100000000         0.009098538043
    6          0.707823000000         0.013473845038
    7          0.360336000000         0.013660967876
    8          0.177077000000         0.010108853448
    9          0.083665000000         0.004869892540
   10         64.019400000000         0.000000034178
   11         17.553800000000         0.000000338297
   12          6.500160000000        -0.000002720498
   13          2.404820000000         0.000013713416
   14          1.342100000000         0.000042799603
   15          0.707823000000         0.000063381085
   16          0.360336000000         0.000064261312
   17          0.177077000000         0.000047552135
   18          0.083665000000         0.000022908017
   19         64.019400000000        -0.000037593146
   20         17.553800000000        -0.000326506946
   21          6.500160000000         0.002722926675
   22          2.404820000000        -0.015776334541
   23          1.342100000000        -0.049101415335
   24          0.707823000000        -0.065534389477
   25          0.360336000000        -0.010457381892
   26          0.177077000000         0.071852709090
   27          0.083665000000         0.091558958269
   28         64.019400000000        -0.000000176838
   29         17.553800000000        -0.000001535892
   30          6.500160000000         0.000012808671
   31          2.404820000000        -0.000074212016
   32          1.342100000000        -0.000230973487
   33          0.707823000000        -0.000308274342
   34          0.360336000000        -0.000049191616
   35          0.177077000000         0.000337995772
   36          0.083665000000         0.000430694141
   37         64.019400000000         0.000044655165
   38         17.553800000000         0.000277274606
   39          6.500160000000        -0.002556872317
   40          2.404820000000         0.020112298681
   41          1.342100000000         0.058834031264
   42          0.707823000000         0.025651723548
   43          0.360336000000        -0.085744957699
   44          0.177077000000        -0.056420468059
   45          0.083665000000         0.064576224565
   46         64.019400000000         0.000000210058
   47         17.553800000000         0.000001304302
   48          6.500160000000        -0.000012027550
   49          2.404820000000         0.000094608429
   50          1.342100000000         0.000276755798
   51          0.707823000000         0.000120665932
   52          0.360336000000        -0.000403345031
   53          0.177077000000        -0.000265402375
   54          0.083665000000         0.000303767125
   55         64.019400000000        -0.000015304468
   56         17.553800000000        -0.000179586982
   57          6.500160000000         0.001572730687
   58          2.404820000000        -0.012849848580
   59          1.342100000000        -0.035534784499
   60          0.707823000000         0.037182856890
   61          0.360336000000         0.037999896759
   62          0.177077000000        -0.057885776968
   63          0.083665000000         0.000216361429
   64         64.019400000000        -0.000000071992
   65         17.553800000000        -0.000000844779
   66          6.500160000000         0.000007398139
   67          2.404820000000        -0.000060445800
   68          1.342100000000        -0.000167155937
   69          0.707823000000         0.000174908484
   70          0.360336000000         0.000178751847
   71          0.177077000000        -0.000272295201
   72          0.037026000000        -0.569318937746
   73          0.037026000000        -0.002678081265
   74          0.016400000000         1.337685879497
   75          0.016400000000         0.006292486082
 P 104
    1        152.958000000000        -0.000013616934
    2         10.045400000000        -0.007444639590
    3          6.278690000000         0.021866046958
    4          3.252900000000         0.017124292865
    5          1.756190000000        -0.043949811893
    6          0.916440000000        -0.074704505764
    7          0.475210000000        -0.050872876900
    8          0.234041000000        -0.013455522816
    9          0.109987000000        -0.000785957361
   10          0.050900000000        -0.000224755963
   11        152.958000000000        -0.000001090464
   12         10.045400000000        -0.000596177831
   13          6.278690000000         0.001751065620
   14          3.252900000000         0.001371338887
   15          1.756190000000        -0.003519566420
   16          0.916440000000        -0.005982448129
   17          0.475210000000        -0.004073975781
   18          0.234041000000        -0.001077538315
   19          0.109987000000        -0.000062940637
   20          0.050900000000        -0.000017998792
   21        152.958000000000         0.000105626175
   22         10.045400000000         0.053228555959
   23          6.278690000000        -0.162794598106
   24          3.252900000000        -0.113234791829
   25          1.756190000000         0.353382966844
   26          0.916440000000         0.661318506772
   27          0.475210000000         0.497249352489
   28          0.234041000000        -0.397601609060
   29          0.109987000000        -1.537033524393
   30          0.050900000000        -1.667372716649
   31        152.958000000000         0.000008458701
   32         10.045400000000         0.004262622070
   33          6.278690000000        -0.013036833975
   34          3.252900000000        -0.009068010846
   35          1.756190000000         0.028299434514
   36          0.916440000000         0.052959371366
   37          0.475210000000         0.039820469033
   38          0.234041000000        -0.031840529267
   39          0.109987000000        -0.123087934765
   40          0.050900000000        -0.133525691482
   41        152.958000000000        -0.000125103945
   42         10.045400000000        -0.063656099932
   43          6.278690000000         0.194101335445
   44          3.252900000000         0.142321941860
   45          1.756190000000        -0.437009488762
   46          0.916440000000        -0.831385762452
   47          0.475210000000        -0.570296757117
   48          0.234041000000         0.951452818138
   49          0.109987000000         1.747948206283
   50          0.050900000000         0.574667232735
   51        152.958000000000        -0.000010018510
   52         10.045400000000        -0.005097675328
   53          6.278690000000         0.015543924147
   54          3.252900000000         0.011397353159
   55          1.756190000000        -0.034996370990
   56          0.916440000000        -0.066578610596
   57          0.475210000000        -0.045670214034
   58          0.234041000000         0.076193759311
   59          0.109987000000         0.139978296747
   60          0.050900000000         0.046020208233
   61        152.958000000000         0.000029984390
   62         10.045400000000         0.015564829723
   63          6.278690000000        -0.048143613414
   64          3.252900000000        -0.038099204553
   65          1.756190000000         0.129476668442
   66          0.916440000000         0.300984885967
   67          0.475210000000        -0.171537104951
   68          0.234041000000        -0.477580944536
   69          0.109987000000         0.219588571157
   70          0.050900000000         0.220633637281
   71        152.958000000000         0.000002401195
   72         10.045400000000         0.001246454755
   73          6.278690000000        -0.003855412295
   74          3.252900000000        -0.003051041067
   75          1.756190000000         0.010368684525
   76          0.916440000000         0.024103318126
   77          0.475210000000        -0.013736946949
   78          0.234041000000        -0.038245393619
   79          0.109987000000         0.017584979958
   80          0.050900000000         0.017668670411
   81        152.958000000000        -0.000010960838
   82         10.045400000000        -0.004309634871
   83          6.278690000000         0.013353584814
   84          3.252900000000         0.021188072346
   85          1.756190000000        -0.087977150127
   86          0.916440000000        -0.046089216621
   87          0.475210000000         0.209031603099
   88          0.234041000000        -0.130054419923
   89          0.109987000000        -0.045721016167
   90          0.050900000000         0.075164905159
   91        152.958000000000        -0.000000877760
   92         10.045400000000        -0.000345121982
   93          6.278690000000         0.001069374968
   94          3.252900000000         0.001696772403
   95          1.756190000000        -0.007045341265
   96          0.916440000000        -0.003690893138
   97          0.475210000000         0.016739562227
   98          0.234041000000        -0.010414951724
   99          0.109987000000        -0.003661407098
  100          0.050900000000         0.006019317598
  101          0.023198000000         2.465689944601
  102          0.023198000000         0.197456124565
  103          0.010600000000        -1.532032290159
  104          0.010600000000        -0.122687428476
 D 76
    1         64.019400000000         0.000086359453
    2         17.553800000000         0.000854803306
    3          6.500160000000        -0.006874107948
    4          2.404820000000         0.034650820209
    5          1.342100000000         0.108145289005
    6          0.707823000000         0.160150219607
    7          0.360336000000         0.162374363012
    8          0.177077000000         0.120153905214
    9          0.083665000000         0.057883577962
   10         64.019400000000        -0.000013973609
   11         17.553800000000        -0.000138313603
   12          6.500160000000         0.001112282361
   13          2.404820000000        -0.005606763290
   14          1.342100000000        -0.017498721033
   15          0.707823000000        -0.025913509891
   16          0.360336000000        -0.026273393020
   17          0.177077000000        -0.019441805443
   18          0.083665000000        -0.009365998209
   19         64.019400000000        -0.000129459384
   20         17.553800000000        -0.001124390806
   21          6.500160000000         0.009376932877
   22          2.404820000000        -0.054328906987
   23          1.342100000000        -0.169090368852
   24          0.707823000000        -0.225680543291
   25          0.360336000000        -0.036012048720
   26          0.177077000000         0.247438918004
   27          0.083665000000         0.315301258015
   28         64.019400000000         0.000020947502
   29         17.553800000000         0.000181934888
   30          6.500160000000        -0.001517258256
   31          2.404820000000         0.008790825714
   32          1.342100000000         0.027360093271
   33          0.707823000000         0.036516809063
   34          0.360336000000         0.005827020300
   35          0.177077000000        -0.040037477719
   36          0.083665000000        -0.051018114670
   37         64.019400000000         0.000143424705
   38         17.553800000000         0.000890558322
   39          6.500160000000        -0.008212233899
   40          2.404820000000         0.064597242466
   41          1.342100000000         0.188964784336
   42          0.707823000000         0.082388921922
   43          0.360336000000        -0.275398049247
   44          0.177077000000        -0.181212834643
   45          0.083665000000         0.207407721108
   46         64.019400000000        -0.000023207196
   47         17.553800000000        -0.000144099034
   48          6.500160000000         0.001328801202
   49          2.404820000000        -0.010452319614
   50          1.342100000000        -0.030575923155
   51          0.707823000000        -0.013331147147
   52          0.360336000000         0.044561475412
   53          0.177077000000         0.029321599399
   54          0.083665000000        -0.033560129019
   55         64.019400000000        -0.000047169088
   56         17.553800000000        -0.000553495511
   57          6.500160000000         0.004847229834
   58          2.404820000000        -0.039603836752
   59          1.342100000000        -0.109519874538
   60          0.707823000000         0.114599311042
   61          0.360336000000         0.117117466285
   62          0.177077000000        -0.178406682930
   63          0.083665000000         0.000666836083
   64         64.019400000000         0.000007632313
   65         17.553800000000         0.000089559736
   66          6.500160000000        -0.000784318239
   67          2.404820000000         0.006408198615
   68          1.342100000000         0.017721139310
   69          0.707823000000        -0.018543030334
   70          0.360336000000        -0.018950486790
   71          0.177077000000         0.028867542949
   72          0.083665000000        -0.000107899093
   73          0.037026000000        -2.002864855845
   74          0.037026000000         0.324078595587
   75          0.016400000000         1.043136839950
   76          0.016400000000        -0.168787385284
 P 104
    1        152.958000000000        -0.000016268076
    2         10.045400000000        -0.008894069640
    3          6.278690000000         0.026123245062
    4          3.252900000000         0.020458297738
    5          1.756190000000        -0.052506596584
    6          0.916440000000        -0.089249058827
    7          0.475210000000        -0.060777543961
    8          0.234041000000        -0.016075238502
    9          0.109987000000        -0.000938978902
   10          0.050900000000        -0.000268514703
   11        152.958000000000        -0.000000777536
   12         10.045400000000        -0.000425093977
   13          6.278690000000         0.001248566133
   14          3.252900000000         0.000977808753
   15          1.756190000000        -0.002509564110
   16          0.916440000000        -0.004265678019
   17          0.475210000000        -0.002904875824
   18          0.234041000000        -0.000768319492
   19          0.109987000000        -0.000044878699
   20          0.050900000000        -0.000012833718
   21        152.958000000000         0.000384310366
   22         10.045400000000         0.193666824391
   23          6.278690000000        -0.592312007632
   24          3.252900000000        -0.411993565278
   25          1.756190000000         1.285748894553
   26          0.916440000000         2.406141831409
   27          0.475210000000         1.809192477469
   28          0.234041000000        -1.446634040930
   29          0.109987000000        -5.592344114744
   30          0.050900000000        -6.066570345444
   31        152.958000000000         0.000018368197
   32         10.045400000000         0.009256347648
   33          6.278690000000        -0.028309680173
   34          3.252900000000        -0.019691321324
   35          1.756190000000         0.061452645766
   36          0.916440000000         0.115002067865
   37          0.475210000000         0.086470744725
   38          0.234041000000        -0.069142186042
   39          0.109987000000        -0.267287293298
   40          0.050900000000        -0.289953038291
   41        152.958000000000        -0.000418551013
   42         10.045400000000        -0.212969504256
   43          6.278690000000         0.649390478358
   44          3.252900000000         0.476155991889
   45          1.756190000000        -1.462070316539
   46          0.916440000000        -2.781505839422
   47          0.475210000000        -1.907999669667
   48          0.234041000000         3.183205305057
   49          0.109987000000         5.847981000353
   50          0.050900000000         1.922621646613
   51        152.958000000000        -0.000020004736
   52         10.045400000000        -0.010178923396
   53          6.278690000000         0.031037757994
   54          3.252900000000         0.022757978345
   55          1.756190000000        -0.069879966165
   56          0.916440000000        -0.132942671598
   57          0.475210000000        -0.091193255790
   58          0.234041000000         0.152141984210
   59          0.109987000000         0.279505513390
   60          0.050900000000         0.091892116332
   61        152.958000000000         0.000091984482
   62         10.045400000000         0.047748938671
   63          6.278690000000        -0.147692360609
   64          3.252900000000        -0.116878669022
   65          1.756190000000         0.397201486338
   66          0.916440000000         0.923345074525
   67          0.475210000000        -0.526232207461
   68          0.234041000000        -1.465096864939
   69          0.109987000000         0.673641883871
   70          0.050900000000         0.676847880926
   71        152.958000000000         0.000004396418
   72         10.045400000000         0.002282170824
   73          6.278690000000        -0.007058988234
   74          3.252900000000        -0.005586241198
   75          1.756190000000         0.018984330721
   76          0.916440000000         0.044131477013
   77          0.475210000000        -0.025151381870
   78          0.234041000000        -0.070024620698
   79          0.109987000000         0.032196859152
   80          0.050900000000         0.032350090473
   81        152.958000000000        -0.000032091038
   82         10.045400000000        -0.012617708105
   83          6.278690000000         0.039096498981
   84          3.252900000000         0.062034237277
   85          1.756190000000        -0.257578665813
   86          0.916440000000        -0.134939571336
   87          0.475210000000         0.612000745206
   88          0.234041000000        -0.380772097282
   89          0.109987000000        -0.133861557540
   90          0.050900000000         0.220067096499
   91        152.958000000000        -0.000001533798
   92         10.045400000000        -0.000603066081
[...]
  BAS[ATNO][ 14].a[ 70] =         0.177077000000;     BAS[ATNO][ 14].d[ 70] =         2.083039461334;
  BAS[ATNO][ 14].a[ 71] =         0.083665000000;     BAS[ATNO][ 14].d[ 71] =        -0.007785839930;
  BAS[ATNO][ 14].a[ 72] =         0.037026000000;     BAS[ATNO][ 14].d[ 72] =         0.238849585040;
  BAS[ATNO][ 14].a[ 73] =         0.037026000000;     BAS[ATNO][ 14].d[ 73] =         0.708049549389;
  BAS[ATNO][ 14].a[ 74] =         0.016400000000;     BAS[ATNO][ 14].d[ 74] =        -0.079808130351;
  BAS[ATNO][ 14].a[ 75] =         0.016400000000;     BAS[ATNO][ 14].d[ 75] =        -0.236584504524;

  // Basis function  16 L = p
  InitBFNGauss(BAS[ATNO][ 15]);
  BAS[ATNO][ 15].l  = 1;
  BAS[ATNO][ 15].ng = 104;
  BAS[ATNO][ 15].a[  0] =       152.958000000000;     BAS[ATNO][ 15].d[  0] =        -0.000000178229;
  BAS[ATNO][ 15].a[  1] =        10.045400000000;     BAS[ATNO][ 15].d[  1] =        -0.000097441256;
  BAS[ATNO][ 15].a[  2] =         6.278690000000;     BAS[ATNO][ 15].d[  2] =         0.000286199895;
  BAS[ATNO][ 15].a[  3] =         3.252900000000;     BAS[ATNO][ 15].d[  3] =         0.000224136116;
  BAS[ATNO][ 15].a[  4] =         1.756190000000;     BAS[ATNO][ 15].d[  4] =        -0.000575249454;
  BAS[ATNO][ 15].a[  5] =         0.916440000000;     BAS[ATNO][ 15].d[  5] =        -0.000977790900;
  BAS[ATNO][ 15].a[  6] =         0.475210000000;     BAS[ATNO][ 15].d[  6] =        -0.000665863934;
  BAS[ATNO][ 15].a[  7] =         0.234041000000;     BAS[ATNO][ 15].d[  7] =        -0.000176116389;
  BAS[ATNO][ 15].a[  8] =         0.109987000000;     BAS[ATNO][ 15].d[  8] =        -0.000010287224;
  BAS[ATNO][ 15].a[  9] =         0.050900000000;     BAS[ATNO][ 15].d[  9] =        -0.000002941782;
  BAS[ATNO][ 15].a[ 10] =       152.958000000000;     BAS[ATNO][ 15].d[ 10] =         0.000007014273;
  BAS[ATNO][ 15].a[ 11] =        10.045400000000;     BAS[ATNO][ 15].d[ 11] =         0.003834837964;
  BAS[ATNO][ 15].a[ 12] =         6.278690000000;     BAS[ATNO][ 15].d[ 12] =        -0.011263506579;
  BAS[ATNO][ 15].a[ 13] =         3.252900000000;     BAS[ATNO][ 15].d[ 13] =        -0.008820962734;
  BAS[ATNO][ 15].a[ 14] =         1.756190000000;     BAS[ATNO][ 15].d[ 14] =         0.022639162733;
  BAS[ATNO][ 15].a[ 15] =         0.916440000000;     BAS[ATNO][ 15].d[ 15] =         0.038481335643;
  BAS[ATNO][ 15].a[ 16] =         0.475210000000;     BAS[ATNO][ 15].d[ 16] =         0.026205330336;
  BAS[ATNO][ 15].a[ 17] =         0.234041000000;     BAS[ATNO][ 15].d[ 17] =         0.006931127975;
  BAS[ATNO][ 15].a[ 18] =         0.109987000000;     BAS[ATNO][ 15].d[ 18] =         0.000404857628;
  BAS[ATNO][ 15].a[ 19] =         0.050900000000;     BAS[ATNO][ 15].d[ 19] =         0.000115774940;
  BAS[ATNO][ 15].a[ 20] =       152.958000000000;     BAS[ATNO][ 15].d[ 20] =        -0.000018780146;
  BAS[ATNO][ 15].a[ 21] =        10.045400000000;     BAS[ATNO][ 15].d[ 21] =        -0.009463942444;
  BAS[ATNO][ 15].a[ 22] =         6.278690000000;     BAS[ATNO][ 15].d[ 22] =         0.028944589590;
  BAS[ATNO][ 15].a[ 23] =         3.252900000000;     BAS[ATNO][ 15].d[ 23] =         0.020132944305;
  BAS[ATNO][ 15].a[ 24] =         1.756190000000;     BAS[ATNO][ 15].d[ 24] =        -0.062830862094;
  BAS[ATNO][ 15].a[ 25] =         0.916440000000;     BAS[ATNO][ 15].d[ 25] =        -0.117581252629;
  BAS[ATNO][ 15].a[ 26] =         0.475210000000;     BAS[ATNO][ 15].d[ 26] =        -0.088410049221;
  BAS[ATNO][ 15].a[ 27] =         0.234041000000;     BAS[ATNO][ 15].d[ 27] =         0.070692857922;
  BAS[ATNO][ 15].a[ 28] =         0.109987000000;     BAS[ATNO][ 15].d[ 28] =         0.273281823026;
  BAS[ATNO][ 15].a[ 29] =         0.050900000000;     BAS[ATNO][ 15].d[ 29] =         0.296455899262;
  BAS[ATNO][ 15].a[ 30] =       152.958000000000;     BAS[ATNO][ 15].d[ 30] =         0.000739099833;
  BAS[ATNO][ 15].a[ 31] =        10.045400000000;     BAS[ATNO][ 15].d[ 31] =         0.372457082157;
  BAS[ATNO][ 15].a[ 32] =         6.278690000000;     BAS[ATNO][ 15].d[ 32] =        -1.139125416979;
  BAS[ATNO][ 15].a[ 33] =         3.252900000000;     BAS[ATNO][ 15].d[ 33] =        -0.792339739517;
  BAS[ATNO][ 15].a[ 34] =         1.756190000000;     BAS[ATNO][ 15].d[ 34] =         2.472732659079;
  BAS[ATNO][ 15].a[ 35] =         0.916440000000;     BAS[ATNO][ 15].d[ 35] =         4.627455262927;
  BAS[ATNO][ 15].a[ 36] =         0.475210000000;     BAS[ATNO][ 15].d[ 36] =         3.479411372276;
  BAS[ATNO][ 15].a[ 37] =         0.234041000000;     BAS[ATNO][ 15].d[ 37] =        -2.782144518187;
  BAS[ATNO][ 15].a[ 38] =         0.109987000000;     BAS[ATNO][ 15].d[ 38] =       -10.755110886676;
  BAS[ATNO][ 15].a[ 39] =         0.050900000000;     BAS[ATNO][ 15].d[ 39] =       -11.667135538933;
  BAS[ATNO][ 15].a[ 40] =       152.958000000000;     BAS[ATNO][ 15].d[ 40] =         0.000024653267;
  BAS[ATNO][ 15].a[ 41] =        10.045400000000;     BAS[ATNO][ 15].d[ 41] =         0.012544215428;
  BAS[ATNO][ 15].a[ 42] =         6.278690000000;     BAS[ATNO][ 15].d[ 42] =        -0.038250049395;
  BAS[ATNO][ 15].a[ 43] =         3.252900000000;     BAS[ATNO][ 15].d[ 43] =        -0.028046284657;
  BAS[ATNO][ 15].a[ 44] =         1.756190000000;     BAS[ATNO][ 15].d[ 44] =         0.086118081017;
  BAS[ATNO][ 15].a[ 45] =         0.916440000000;     BAS[ATNO][ 15].d[ 45] =         0.163834763977;
  BAS[ATNO][ 15].a[ 46] =         0.475210000000;     BAS[ATNO][ 15].d[ 46] =         0.112383972422;
  BAS[ATNO][ 15].a[ 47] =         0.234041000000;     BAS[ATNO][ 15].d[ 47] =        -0.187495450289;
  BAS[ATNO][ 15].a[ 48] =         0.109987000000;     BAS[ATNO][ 15].d[ 48] =        -0.344454637972;
  BAS[ATNO][ 15].a[ 49] =         0.050900000000;     BAS[ATNO][ 15].d[ 49] =        -0.113245228259;
  BAS[ATNO][ 15].a[ 50] =       152.958000000000;     BAS[ATNO][ 15].d[ 50] =        -0.000970238776;
  BAS[ATNO][ 15].a[ 51] =        10.045400000000;     BAS[ATNO][ 15].d[ 51] =        -0.493682406028;
  BAS[ATNO][ 15].a[ 52] =         6.278690000000;     BAS[ATNO][ 15].d[ 52] =         1.505345354149;
  BAS[ATNO][ 15].a[ 53] =         3.252900000000;     BAS[ATNO][ 15].d[ 53] =         1.103772282052;
  BAS[ATNO][ 15].a[ 54] =         1.756190000000;     BAS[ATNO][ 15].d[ 54] =        -3.389210085134;
  BAS[ATNO][ 15].a[ 55] =         0.916440000000;     BAS[ATNO][ 15].d[ 55] =        -6.447779929724;
  BAS[ATNO][ 15].a[ 56] =         0.475210000000;     BAS[ATNO][ 15].d[ 56] =        -4.422914308371;
  BAS[ATNO][ 15].a[ 57] =         0.234041000000;     BAS[ATNO][ 15].d[ 57] =         7.378955308037;
  BAS[ATNO][ 15].a[ 58] =         0.109987000000;     BAS[ATNO][ 15].d[ 58] =        13.556144297480;
  BAS[ATNO][ 15].a[ 59] =         0.050900000000;     BAS[ATNO][ 15].d[ 59] =         4.456809361961;
  BAS[ATNO][ 15].a[ 60] =       152.958000000000;     BAS[ATNO][ 15].d[ 60] =        -0.000008585945;
  BAS[ATNO][ 15].a[ 61] =        10.045400000000;     BAS[ATNO][ 15].d[ 61] =        -0.004456944587;
  BAS[ATNO][ 15].a[ 62] =         6.278690000000;     BAS[ATNO][ 15].d[ 62] =         0.013785786354;
  BAS[ATNO][ 15].a[ 63] =         3.252900000000;     BAS[ATNO][ 15].d[ 63] =         0.010909598532;
  BAS[ATNO][ 15].a[ 64] =         1.756190000000;     BAS[ATNO][ 15].d[ 64] =        -0.037075274628;
  BAS[ATNO][ 15].a[ 65] =         0.916440000000;     BAS[ATNO][ 15].d[ 65] =        -0.086186163425;
  BAS[ATNO][ 15].a[ 66] =         0.475210000000;     BAS[ATNO][ 15].d[ 66] =         0.049119160629;
  BAS[ATNO][ 15].a[ 67] =         0.234041000000;     BAS[ATNO][ 15].d[ 67] =         0.136753940989;
  BAS[ATNO][ 15].a[ 68] =         0.109987000000;     BAS[ATNO][ 15].d[ 68] =        -0.062878560892;
  BAS[ATNO][ 15].a[ 69] =         0.050900000000;     BAS[ATNO][ 15].d[ 69] =        -0.063177812595;
  BAS[ATNO][ 15].a[ 70] =       152.958000000000;     BAS[ATNO][ 15].d[ 70] =         0.000337903140;
  BAS[ATNO][ 15].a[ 71] =        10.045400000000;     BAS[ATNO][ 15].d[ 71] =         0.175404762437;
  BAS[ATNO][ 15].a[ 72] =         6.278690000000;     BAS[ATNO][ 15].d[ 72] =        -0.542544905659;
  BAS[ATNO][ 15].a[ 73] =         3.252900000000;     BAS[ATNO][ 15].d[ 73] =        -0.429351431560;
  BAS[ATNO][ 15].a[ 74] =         1.756190000000;     BAS[ATNO][ 15].d[ 74] =         1.459111642910;
  BAS[ATNO][ 15].a[ 75] =         0.916440000000;     BAS[ATNO][ 15].d[ 75] =         3.391889494382;
  BAS[ATNO][ 15].a[ 76] =         0.475210000000;     BAS[ATNO][ 15].d[ 76] =        -1.933103392586;
  BAS[ATNO][ 15].a[ 77] =         0.234041000000;     BAS[ATNO][ 15].d[ 77] =        -5.382003761695;
  BAS[ATNO][ 15].a[ 78] =         0.109987000000;     BAS[ATNO][ 15].d[ 78] =         2.474609863548;
  BAS[ATNO][ 15].a[ 79] =         0.050900000000;     BAS[ATNO][ 15].d[ 79] =         2.486387029019;
  BAS[ATNO][ 15].a[ 80] =       152.958000000000;     BAS[ATNO][ 15].d[ 80] =         0.000009188813;
  BAS[ATNO][ 15].a[ 81] =        10.045400000000;     BAS[ATNO][ 15].d[ 81] =         0.003612901663;
  BAS[ATNO][ 15].a[ 82] =         6.278690000000;     BAS[ATNO][ 15].d[ 82] =        -0.011194727680;
  BAS[ATNO][ 15].a[ 83] =         3.252900000000;     BAS[ATNO][ 15].d[ 83] =        -0.017762623540;
  BAS[ATNO][ 15].a[ 84] =         1.756190000000;     BAS[ATNO][ 15].d[ 84] =         0.073753995756;
  BAS[ATNO][ 15].a[ 85] =         0.916440000000;     BAS[ATNO][ 15].d[ 85] =         0.038638031376;
  BAS[ATNO][ 15].a[ 86] =         0.475210000000;     BAS[ATNO][ 15].d[ 86] =        -0.175237728722;
  BAS[ATNO][ 15].a[ 87] =         0.234041000000;     BAS[ATNO][ 15].d[ 87] =         0.109028686666;
  BAS[ATNO][ 15].a[ 88] =         0.109987000000;     BAS[ATNO][ 15].d[ 88] =         0.038329357423;
  BAS[ATNO][ 15].a[ 89] =         0.050900000000;     BAS[ATNO][ 15].d[ 89] =        -0.063013090195;
  BAS[ATNO][ 15].a[ 90] =       152.958000000000;     BAS[ATNO][ 15].d[ 90] =        -0.000361629271;
  BAS[ATNO][ 15].a[ 91] =        10.045400000000;     BAS[ATNO][ 15].d[ 91] =        -0.142187129662;
  BAS[ATNO][ 15].a[ 92] =         6.278690000000;     BAS[ATNO][ 15].d[ 92] =         0.440572798470;
  BAS[ATNO][ 15].a[ 93] =         3.252900000000;     BAS[ATNO][ 15].d[ 93] =         0.699054857352;
  BAS[ATNO][ 15].a[ 94] =         1.756190000000;     BAS[ATNO][ 15].d[ 94] =        -2.902616770862;
  BAS[ATNO][ 15].a[ 95] =         0.916440000000;     BAS[ATNO][ 15].d[ 95] =        -1.520614533718;
  BAS[ATNO][ 15].a[ 96] =         0.475210000000;     BAS[ATNO][ 15].d[ 96] =         6.896547977710;
  BAS[ATNO][ 15].a[ 97] =         0.234041000000;     BAS[ATNO][ 15].d[ 97] =        -4.290865751462;
  BAS[ATNO][ 15].a[ 98] =         0.109987000000;     BAS[ATNO][ 15].d[ 98] =        -1.508466551999;
  BAS[ATNO][ 15].a[ 99] =         0.050900000000;     BAS[ATNO][ 15].d[ 99] =         2.479904315815;
  BAS[ATNO][ 15].a[100] =         0.023198000000;     BAS[ATNO][ 15].d[100] =        -0.027265384125;
  BAS[ATNO][ 15].a[101] =         0.023198000000;     BAS[ATNO][ 15].d[101] =         1.073039642320;
  BAS[ATNO][ 15].a[102] =         0.010600000000;     BAS[ATNO][ 15].d[102] =         0.008130465855;
  BAS[ATNO][ 15].a[103] =         0.010600000000;     BAS[ATNO][ 15].d[103] =        -0.319977599910;

-------------------------------------------
RADIAL EXPECTATION VALUES <R**-3> TO <R**3>
-------------------------------------------
   0 :     0.000000     1.050739     0.972768     1.138130     1.432402     1.991336
   1 :     1.005540     0.887216     0.887603     1.265607     1.797301     2.861417
   2 :     1.001745     0.884515     0.885944     1.269284     1.810422     2.900826
   3 :     1.001745     0.884515     0.885944     1.269284     1.810422     2.900826
   4 :     0.439513     0.467008     0.613715     2.035575     5.194846    82.609386
   5 :     0.000000     0.146631     0.323337     3.648125    15.480474    74.279915
   6 :     0.461139     0.486762     0.630005     1.956353     4.737782    65.479283
   7 :     0.000000     0.014713     0.103829    10.706591   122.554876  1480.387511
   8 :     0.000000     0.098451     0.235614     6.066919    48.547055   489.120989
   9 :     0.000000     0.261761     0.418464     3.816061    24.862465   247.983491
  10 :     0.000000     0.998472     0.749696     2.620208    18.427113   207.980654
  11 :     0.462663     0.488052     0.631576     1.940850     4.615205    66.797796
  12 :     0.462663     0.488052     0.631576     1.940850     4.615205    66.797796
  13 :     0.454250     0.480625     0.625474     1.970846     4.790802    71.359231
  14 :     0.003170     0.012855     0.099773    11.497110   144.996042  1961.015193
  15 :     0.002703     0.011804     0.096636    11.727390   149.806888  2043.683485
  16 :     0.002703     0.011804     0.096636    11.727390   149.806888  2043.683485
  17 :     0.002066     0.010259     0.094409    11.247419   132.556543  8138.306733
  18 :     0.002081     0.010250     0.094314    11.257085   132.755651  8164.567589
  19 :     0.002081     0.010250     0.094314    11.257085   132.755651  8164.567589
  20 :     0.003038     0.011134     0.095069    11.260595   132.928489  8182.064313
  21 :     0.002160     0.010262     0.094063    11.286506   133.369125  8214.667721
  22 :     0.014695     0.034240     0.151798     8.982096   103.777613  1422.176216
  23 :     0.014044     0.033334     0.150778     8.912744   101.639745  1379.218736
  24 :     0.014044     0.033334     0.150778     8.912744   101.639745  1379.218736
  25 :     0.016493     0.034461     0.153133     7.866517    72.219738  3842.717702
  26 :     0.016900     0.034703     0.153277     7.865792    72.170552  3838.096150
  27 :     0.016900     0.034703     0.153277     7.865792    72.170552  3838.096150
  28 :     0.024348     0.041835     0.160064     7.800562    71.477503  3800.102870
  29 :     0.037753     0.060724     0.194438     7.351561    72.106558   875.780598
  30 :     0.017703     0.035431     0.153788     7.861032    72.000298  3818.685733
  31 :     0.038111     0.061310     0.196052     7.254723    70.319402   847.623383
  32 :     0.038111     0.061310     0.196052     7.254723    70.319402   847.623383
  33 :     0.102405     0.124298     0.271236     5.166711    34.974610  1529.639168
  34 :     0.100507     0.126080     0.277782     5.268804    39.163585   395.319362
  35 :     0.103658     0.125315     0.272170     5.155445    34.830135  1520.997437
  36 :     0.103658     0.125315     0.272170     5.155445    34.830135  1520.997437
  37 :     0.119794     0.138856     0.282785     5.114392    34.683951  1521.921207
  38 :     0.102257     0.127668     0.279686     5.224514    38.519927   386.620681
  39 :     0.102257     0.127668     0.279686     5.224514    38.519927   386.620681
  40 :     0.106927     0.128297     0.274948     5.121708    34.399597  1494.716026
  41 :     0.281242     0.308971     0.462429     3.209016    15.684410   580.276044
  42 :     0.240931     0.264099     0.424207     3.476750    18.765700   159.172289
  43 :     0.282758     0.309929     0.463267     3.203029    15.629497   577.775558
  44 :     0.282758     0.309929     0.463267     3.203029    15.629497   577.775558
  45 :     0.288174     0.313731     0.465382     3.206191    15.698366   581.252386
  46 :     0.285688     0.312699     0.465695     3.185412    15.468980   570.101094
  47 :     0.242847     0.265910     0.425965     3.457535    18.553243   156.748598
  48 :     0.242847     0.265910     0.425965     3.457535    18.553243   156.748598
  49 :     1.341271     1.008969     0.856352     1.945708     7.756714   237.061432
  50 :     1.444589     1.003775     0.859931     1.882449     6.884057   237.674134
  51 :     1.444589     1.003775     0.859931     1.882449     6.884057   237.674134
  52 :     1.437782     0.999460     0.857520     1.887337     6.901943   237.958500
  53 :     1.445920     1.004710     0.860568     1.879148     6.856294   236.378857
  54 :     1.170566     0.855976     0.784060     2.064132     8.152975    62.688362
  55 :     1.171454     0.856649     0.784600     2.059870     8.110148    62.217727
  56 :     1.171454     0.856649     0.784600     2.059870     8.110148    62.217727
  57 :     0.000000     2.981901     0.846900     5.001115    47.232398   573.107592
Making the total density                ... o.k.
o.k.
Initializing the integrals              ... done
Making exponents                        ... done
Making rho(0)                           ... done (         0.002854206)
Integral calculation                    ... Two index integrals                     ... done
Solving the equation system             ... done
atomic density will be written to file 42_Mo_atom42.adf

-------
TIMINGS
-------

Total SCF time: 0 days 0 hours 0 min 2 sec 

Total time                  ....       2.644 sec
Sum of individual times     ....       1.573 sec  ( 59.5%)

Fock matrix formation       ....       1.370 sec  ( 51.8%)
Diagonalization             ....       0.192 sec  (  7.3%)
Density matrix formation    ....       0.002 sec  (  0.1%)
Population analysis         ....       0.000 sec  (  0.0%)
Initial guess               ....       0.000 sec  (  0.0%)
Orbital Transformation      ....       0.000 sec  (  0.0%)
Orbital Orthonormalization  ....       0.000 sec  (  0.0%)
DIIS solution               ....       0.008 sec  (  0.3%)

-------------------------   --------------------
FINAL SINGLE POINT ENERGY       -67.201110085659
-------------------------   --------------------


                            ***************************************
                            *     ORCA property calculations      *
                            ***************************************

                                    ---------------------
                                    Active property flags
                                    ---------------------
   (+) Dipole Moment


------------------------------------------------------------------------------
                       ORCA ELECTRIC PROPERTIES CALCULATION
------------------------------------------------------------------------------

Dipole Moment Calculation                       ... on
Quadrupole Moment Calculation                   ... off
Polarizability Calculation                      ... off
GBWName                                         ... 42_Mo_atom42.gbw
Electron density file                           ... 42_Mo_atom42.scfp
The origin for moment calculation is the CENTER OF MASS  = ( 0.000000,  0.000000  0.000000)

-------------
DIPOLE MOMENT
-------------
                                X             Y             Z
Electronic contribution:      0.00000      -0.00000       0.00000
Nuclear contribution   :      0.00000       0.00000       0.00000
                        -----------------------------------------
Total Dipole Moment    :      0.00000      -0.00000       0.00000
                        -----------------------------------------
Magnitude (a.u.)       :      0.00000
Magnitude (Debye)      :      0.00000



--------------------
Rotational spectrum 
--------------------
 
Rotational constants in cm-1:     0.000000     0.000000     0.000000 
Rotational constants in MHz :     0.000000     0.000000     0.000000 

 Dipole components along the rotational axes: 
x,y,z [a.u.] :     0.000000    -0.000000     0.000000 
x,y,z [Debye]:     0.000000    -0.000000     0.000000 

 

Timings for individual modules:

Sum of individual times         ...       28.279 sec (=   0.471 min)
GTO integral calculation        ...       25.617 sec (=   0.427 min)  90.6 %
SCF iterations                  ...        2.663 sec (=   0.044 min)   9.4 %
                             ****ORCA TERMINATED NORMALLY****
TOTAL RUN TIME: 0 days 0 hours 0 minutes 28 seconds 633 msec
