
                                 *****************
                                 * O   R   C   A *
                                 *****************

           --- An Ab Initio, DFT and Semiempirical electronic structure package ---

                  #######################################################
                  #                        -***-                        #
                  #          Department of theory and spectroscopy      #
                  #               Directorship: Frank Neese             #
                  #        Max Planck Institute fuer Kohlenforschung    #
                  #                Kaiser Wilhelm Platz 1               #
                  #                 D-45470 Muelheim/Ruhr               #
                  #                      Germany                        #
                  #                                                     #
                  #                  All rights reserved                #
                  #                        -***-                        #
                  #######################################################


                         Program Version 4.2.0 -  RELEASE  -


 With contributions from (in alphabetic order):
   Daniel Aravena         : Magnetic Suceptibility
   Michael Atanasov       : Ab Initio Ligand Field Theory (pilot matlab implementation)
   Alexander A. Auer      : GIAO ZORA, VPT2
   Ute Becker             : Parallelization
   Giovanni Bistoni       : ED, misc. LED, open-shell LED, HFLED
   Martin Brehm           : Molecular dynamics
   Dmytro Bykov           : SCF Hessian
   Vijay G. Chilkuri      : MRCI spin determinant printing, contributions to CSF-ICE
   Dipayan Datta          : RHF DLPNO-CCSD density
   Achintya Kumar Dutta   : EOM-CC, STEOM-CC
   Dmitry Ganyushin       : Spin-Orbit,Spin-Spin,Magnetic field MRCI
   Miquel Garcia          : C-PCM Hessian, Gaussian charge scheme
   Yang Guo               : DLPNO-NEVPT2, CIM, IAO-localization
   Andreas Hansen         : Spin unrestricted coupled pair/coupled cluster methods
   Benjamin Helmich-Paris : CASSCF linear response (MC-RPA)
   Lee Huntington         : MR-EOM, pCC
   Robert Izsak           : Overlap fitted RIJCOSX, COSX-SCS-MP3, EOM
   Christian Kollmar      : KDIIS, OOCD, Brueckner-CCSD(T), CCSD density
   Simone Kossmann        : Meta GGA functionals, TD-DFT gradient, OOMP2, MP2 Hessian
   Martin Krupicka        : AUTO-CI
   Lucas Lang             : DCDCAS
   Dagmar Lenk            : GEPOL surface, SMD
   Dimitrios Liakos       : Extrapolation schemes; Compound Job, initial MDCI parallelization
   Dimitrios Manganas     : Further ROCIS development; embedding schemes
   Dimitrios Pantazis     : SARC Basis sets
   Taras Petrenko         : DFT Hessian,TD-DFT gradient, ASA, ECA, R-Raman, ABS, FL, XAS/XES, NRVS
   Peter Pinski           : DLPNO-MP2, DLPNO-MP2 Gradient
   Christoph Reimann      : Effective Core Potentials
   Marius Retegan         : Local ZFS, SOC
   Christoph Riplinger    : Optimizer, TS searches, QM/MM, DLPNO-CCSD(T), (RO)-DLPNO pert. Triples
   Tobias Risthaus        : Range-separated hybrids, TD-DFT gradient, RPA, STAB
   Michael Roemelt        : Original ROCIS implementation
   Masaaki Saitow         : Open-shell DLPNO-CCSD energy and density
   Barbara Sandhoefer     : DKH picture change effects
   Avijit Sen             : IP-ROCIS
   Kantharuban Sivalingam : CASSCF convergence, NEVPT2, FIC-MRCI
   Bernardo de Souza      : ESD, SOC TD-DFT
   Georgi Stoychev        : AutoAux, RI-MP2 NMR
   Willem Van den Heuvel  : Paramagnetic NMR
   Boris Wezisla          : Elementary symmetry handling
   Frank Wennmohs         : Technical directorship


 We gratefully acknowledge several colleagues who have allowed us to
 interface, adapt or use parts of their codes:
   Stefan Grimme, W. Hujo, H. Kruse,             : VdW corrections, initial TS optimization,
                  C. Bannwarth                     DFT functionals, gCP, sTDA/sTD-DF
   Ed Valeev, F. Pavosevic, A. Kumar             : LibInt (2-el integral package), F12 methods
   Garnet Chan, S. Sharma, J. Yang, R. Olivares  : DMRG
   Ulf Ekstrom                                   : XCFun DFT Library
   Mihaly Kallay                                 : mrcc  (arbitrary order and MRCC methods)
   Andreas Klamt, Michael Diedenhofen            : otool_cosmo (COSMO solvation model)
   Jiri Pittner, Ondrej Demel                    : Mk-CCSD
   Frank Weinhold                                : gennbo (NPA and NBO analysis)
   Christopher J. Cramer and Donald G. Truhlar   : smd solvation model
   Lars Goerigk                                  : TD-DFT with DH, B97 family of functionals
   V. Asgeirsson, H. Jonsson                     : NEB implementation
   FAccTs GmbH                                   : IRC, NEB, NEB-TS, Multilevel, MM, QM/MM, CI optimization
   S Lehtola, MJT Oliveira, MAL Marques          : LibXC Library


 Your calculation uses the libint2 library for the computation of 2-el integrals
 For citations please refer to: http://libint.valeyev.net

 Your ORCA version has been built with support for libXC version: 4.2.3
 For citations please refer to: https://tddft.org/programs/libxc/

 This ORCA versions uses:
   CBLAS   interface :  Fast vector & matrix operations
   LAPACKE interface :  Fast linear algebra routines
   SCALAPACK package :  Parallel linear algebra routines


----- Orbital basis set information -----
Your calculation utilizes the basis: def2-SVP
   F. Weigend and R. Ahlrichs, Phys. Chem. Chem. Phys. 7, 3297 (2005).

----- AuxJ basis set information -----
Your calculation utilizes the auxiliary basis: def2/J
   F. Weigend, Phys. Chem. Chem. Phys. 8, 1057 (2006).

================================================================================
                                        WARNINGS
                       Please study these warnings very carefully!
================================================================================


INFO   : the flag for use of LIBINT has been found!

================================================================================
                                       INPUT FILE
================================================================================
NAME = 44_Ru_atom44.inp
|  1> # input to generate an atomic fitting density for Ru
|  2> # this file is use internally by ORCA
|  3> #
|  4> # atomic ground state (S=5): 1s2 2s2 2p6 3s2 3p6 4s2 3d10 4p6 5s2 4d6 
|  5> #
|  6> ! RHF AllowRHF def2-SVP def2/J  NoMulliken NoLoewdin NoMayer NoPrintMOs 
|  7> 
|  8> %output print[p_atomdensfit] 2 end
|  9> 
| 10> %scf
| 11>   guess hcore
| 12>   maxiter 1000
| 13>   maxdisk 500000
| 14>   SCFMode Conventional
| 15>   lshift 1.000000
| 16>   hftyp rohf
| 17>   rohf_case sahf
| 18>   rohf_numop   2
| 19>   rohf_norb[1] 5
| 20>   rohf_nel[1]  6
| 21> end
| 22> 
| 23> %basis
| 24>   NewECP 44
| 25>     N_core 28
| 26>     lmax g
| 27>     s 2
| 28>       1      11.5005900000    209.7864930000  2
| 29>       2       5.0685750000     30.2143070000  2
| 30>     p 4
| 31>       1      10.5326340000     48.7512440000  2
| 32>       2      10.1920100000     97.4965290000  2
| 33>       3       4.7348920000      7.8601880000  2
| 34>       4       4.5090650000     15.3297510000  2
| 35>     d 4
| 36>       1       8.8779770000     26.9675060000  2
| 37>       2       8.7661220000     40.4323030000  2
| 38>       3       3.1701960000      3.3407580000  2
| 39>       4       3.2288510000      5.2563520000  2
| 40>     f 2
| 41>       1       7.8202490000     -8.8475250000  2
| 42>       2       7.8396470000    -11.8355180000  2
| 43>     g 1
| 44>       1       1.0000000000      0.0000000000  2
| 45>   end
| 46>   NewGTO 44
| 47>     s 13 
| 48>      1    7269.8900000000      0.0000110031
| 49>      2    1087.8400000000      0.0000780219
| 50>      3     241.7870000000      0.0003110871
| 51>      4      35.4525000000      0.0087364470
| 52>      5      22.1415000000     -0.0636218196
| 53>      6      13.8292000000      0.1857670308
| 54>      7       5.1321300000     -0.4546173321
| 55>      8       3.1705900000     -0.2564138180
| 56>      9       1.4948700000      0.5331943405
| 57>     10       0.8005300000      0.6401512977
| 58>     11       0.4116380000      0.2153333119
| 59>     12       0.1424170000      0.0112641549
| 60>     13       0.0635630000     -0.0000950266
| 61>     s 13 
| 62>      1    7269.8900000000     -0.0000050390
| 63>      2    1087.8400000000     -0.0000314939
| 64>      3     241.7870000000     -0.0001335340
| 65>      4      35.4525000000     -0.0031456065
| 66>      5      22.1415000000      0.0237362905
| 67>      6      13.8292000000     -0.0725379122
| 68>      7       5.1321300000      0.2021376552
| 69>      8       3.1705900000      0.0870817756
| 70>      9       1.4948700000     -0.2569634220
| 71>     10       0.8005300000     -0.4037487330
| 72>     11       0.4116380000     -0.2200236467
| 73>     12       0.1424170000      0.4191152159
| 74>     13       0.0635630000      0.7940495889
| 75>     s 13 
| 76>      1    7269.8900000000     -0.0000074690
| 77>      2    1087.8400000000     -0.0000693552
| 78>      3     241.7870000000     -0.0001856584
| 79>      4      35.4525000000     -0.0089286775
| 80>      5      22.1415000000      0.0552547282
| 81>      6      13.8292000000     -0.1512700218
| 82>      7       5.1321300000      0.4421946753
| 83>      8       3.1705900000      0.0837308929
| 84>      9       1.4948700000     -0.4744832402
| 85>     10       0.8005300000     -1.5525260887
| 86>     11       0.4116380000      1.3574748174
| 87>     12       0.1424170000      1.5015340358
| 88>     13       0.0635630000     -1.0666227200
| 89>     s 13 
| 90>      1    7269.8900000000     -0.0000091928
| 91>      2    1087.8400000000     -0.0000643497
| 92>      3     241.7870000000     -0.0002773165
| 93>      4      35.4525000000     -0.0058665467
| 94>      5      22.1415000000      0.0447682325
| 95>      6      13.8292000000     -0.1426701571
| 96>      7       5.1321300000      0.4404629024
| 97>      8       3.1705900000      0.3076160319
| 98>      9       1.4948700000     -1.6851850825
| 99>     10       0.8005300000     -0.3336393529
|100>     11       0.4116380000      2.6257791372
|101>     12       0.1424170000     -1.8734025630
|102>     13       0.0635630000     -0.1148664947
|103>     s 13 
|104>      1    7269.8900000000     -0.0000080178
|105>      2    1087.8400000000     -0.0000907019
|106>      3     241.7870000000     -0.0001663703
|107>      4      35.4525000000     -0.0127428604
|108>      5      22.1415000000      0.0723595426
|109>      6      13.8292000000     -0.1922498691
|110>      7       5.1321300000      0.6966935533
|111>      8       3.1705900000      0.0637188119
|112>      9       1.4948700000     -3.4352213899
|113>     10       0.8005300000      4.8588663380
|114>     11       0.4116380000     -2.3752834039
|115>     12       0.1424170000     -0.4617606894
|116>     13       0.0635630000      1.5305849526
|117>     s 1 
|118>      1       0.0282960000      1.0000000000
|119>     s 1 
|120>      1       0.0126000000      1.0000000000
|121>     p 10 
|122>      1     174.3070000000      0.0001029981
|123>      2      11.5040000000      0.0539930124
|124>      3       7.1917600000     -0.1610090550
|125>      4       3.5749800000     -0.1290356398
|126>      5       2.1307800000      0.3147572428
|127>      6       1.0892200000      0.5041317790
|128>      7       0.5586370000      0.3252650506
|129>      8       0.2704770000      0.0787005605
|130>      9       0.1238960000      0.0037629312
|131>     10       0.0558230000      0.0012859765
|132>     p 10 
|133>      1     174.3070000000     -0.0000371686
|134>      2      11.5040000000     -0.0176978802
|135>      3       7.1917600000      0.0549329227
|136>      4       3.5749800000      0.0396386113
|137>      5       2.1307800000     -0.1162622218
|138>      6       1.0892200000     -0.2039936090
|139>      7       0.5586370000     -0.1401008035
|140>      8       0.2704770000      0.1261794773
|141>      9       0.1238960000      0.4758829678
|142>     10       0.0558230000      0.5375152472
|143>     p 10 
|144>      1     174.3070000000     -0.0000611335
|145>      2      11.5040000000     -0.0288479950
|146>      3       7.1917600000      0.0895004409
|147>      4       3.5749800000      0.0708717617
|148>      5       2.1307800000     -0.2051950817
|149>      6       1.0892200000     -0.3723240390
|150>      7       0.5586370000     -0.1439493402
|151>      8       0.2704770000      0.4632325547
|152>      9       0.1238960000      0.5868625238
|153>     10       0.0558230000      0.1510789090
|154>     p 10 
|155>      1     174.3070000000      0.0001122921
|156>      2      11.5040000000      0.0493904872
|157>      3       7.1917600000     -0.1542211996
|158>      4       3.5749800000     -0.1736036221
|159>      5       2.1307800000      0.5323599107
|160>      6       1.0892200000      0.8197585656
|161>      7       0.5586370000     -0.7887839866
|162>      8       0.2704770000     -1.0502180958
|163>      9       0.1238960000      0.7568769819
|164>     10       0.0558230000      0.4644592702
|165>     p 10 
|166>      1     174.3070000000     -0.0002497917
|167>      2      11.5040000000     -0.0629395171
|168>      3       7.1917600000      0.1914613475
|169>      4       3.5749800000      0.6522850838
|170>      5       2.1307800000     -2.1515798777
|171>      6       1.0892200000      0.4091008660
|172>      7       0.5586370000      2.4550478270
|173>      8       0.2704770000     -2.2849426714
|174>      9       0.1238960000      0.0777042054
|175>     10       0.0558230000      0.7649661232
|176>     p 1 
|177>      1       0.0248420000      1.0000000000
|178>     p 1 
|179>      1       0.0111000000      1.0000000000
|180>     d 9 
|181>      1      75.3751000000      0.0001808252
|182>      2      19.8901000000      0.0020935535
|183>      3       7.8792400000     -0.0187565915
|184>      4       2.9083400000      0.0784118147
|185>      5       1.6388300000      0.2273655317
|186>      6       0.8757300000      0.3185536482
|187>      7       0.4504830000      0.3064343445
|188>      8       0.2227700000      0.2161362895
|189>      9       0.1053420000      0.1002153101
|190>     d 9 
|191>      1      75.3751000000     -0.0002237340
|192>      2      19.8901000000     -0.0022990596
|193>      3       7.8792400000      0.0214123341
|194>      4       2.9083400000     -0.0960028195
|195>      5       1.6388300000     -0.3156666078
|196>      6       0.8757300000     -0.3658083692
|197>      7       0.4504830000     -0.0023376344
|198>      8       0.2227700000      0.4434506743
|199>      9       0.1053420000      0.5007364933
|200>     d 9 
|201>      1      75.3751000000     -0.0004133280
|202>      2      19.8901000000     -0.0037176234
|203>      3       7.8792400000      0.0372065063
|204>      4       2.9083400000     -0.2160937026
|205>      5       1.6388300000     -0.6790047681
|206>      6       0.8757300000     -0.0847217623
|207>      7       0.4504830000      0.9299379465
|208>      8       0.2227700000      0.3511960737
|209>      9       0.1053420000     -0.6298513360
|210>     d 9 
|211>      1      75.3751000000     -0.0001933274
|212>      2      19.8901000000     -0.0077362840
|213>      3       7.8792400000      0.0655008209
|214>      4       2.9083400000     -0.4718124100
|215>      5       1.6388300000     -0.8496198875
|216>      6       0.8757300000      1.3874557399
|217>      7       0.4504830000      0.3686902833
|218>      8       0.2227700000     -1.2983764079
|219>      9       0.1053420000      0.1852544179
|220>     d 1 
|221>      1       0.0464550000      1.0000000000
|222>     d 1 
|223>      1       0.0205000000      1.0000000000
|224>   end
|225>   NewAuxGTO 44
|226>     S 1
|227>      1 1310.72 1.0
|228>     S 1
|229>      1  655.36 1.0
|230>     S 1
|231>      1  327.68 1.0
|232>     S 1
|233>      1  163.84 1.0
|234>     S 1
|235>      1   81.82 1.0
|236>     S 1
|237>      1   40.96 1.0
|238>     S 1
|239>      1   20.48 1.0
|240>     S 1
|241>      1   10.24 1.0
|242>     S 1
|243>      1    5.12 1.0
|244>     S 1
|245>      1    2.56 1.0
|246>     S 1
|247>      1    1.28 1.0
|248>     S 1
|249>      1    0.64 1.0
|250>     S 1
|251>      1    0.32 1.0
|252>     S 1
|253>      1    0.16 1.0
|254>     S 1
|255>      1    0.08 1.0
|256>     S 1
|257>      1    0.04 1.0
|258>     S 1
|259>      1    0.02 1.0
|260>     S 1
|261>      1    0.01 1.0
|262>   end
|263> end
|264> 
|265> * xyz 0 5
|266> 44  0.0 0.0 0.0
|267> *
|268> 
|269> 
|270>                          ****END OF INPUT****
================================================================================

                       ****************************
                       * Single Point Calculation *
                       ****************************

---------------------------------
CARTESIAN COORDINATES (ANGSTROEM)
---------------------------------
  Ru     0.000000    0.000000    0.000000

----------------------------
CARTESIAN COORDINATES (A.U.)
----------------------------
  NO LB      ZA    FRAG     MASS         X           Y           Z
   0 Ru   16.0000*   0   101.070    0.000000    0.000000    0.000000
* core charge reduced due to ECP

--------------------------------
INTERNAL COORDINATES (ANGSTROEM)
--------------------------------
 Ru     0   0   0     0.000000000000     0.00000000     0.00000000

---------------------------
INTERNAL COORDINATES (A.U.)
---------------------------
 Ru     0   0   0     0.000000000000     0.00000000     0.00000000

---------------------
BASIS SET INFORMATION
---------------------
There are 1 groups of distinct atoms

 Group   1 Type Ru  : 67s52p38d contracted to 7s7p6d pattern {131313131311/101010101011/999911}

Atom   0Ru   basis set group =>   1
---------------------------------
AUXILIARY/J BASIS SET INFORMATION
---------------------------------
There are 1 groups of distinct atoms

 Group   1 Type Ru  : 18s contracted to 18s pattern {111111111111111111}

Atom   0Ru   basis set group =>   1
-------------------------
ECP PARAMETER INFORMATION
-------------------------

 Group 1, Type Ru ECP (replacing 28 core electrons, lmax=4)

Atom   0Ru   ECP group =>   1

------------------------------------------------------------------------------
                           ORCA GTO INTEGRAL CALCULATION
------------------------------------------------------------------------------

                         BASIS SET STATISTICS AND STARTUP INFO

 # of primitive gaussian shells          ...  157
 # of primitive gaussian functions       ...  413
 # of contracted shells                  ...   20
 # of contracted basis functions         ...   58
 Highest angular momentum                ...    2
 Maximum contraction depth               ...   13
 Integral package used                   ... LIBINT
 Integral threshhold            Thresh   ...  1.000e-10
 Primitive cut-off              TCut     ...  1.000e-11
 Storage cut-off                TCutStore... -1.000e+00
 Buffer length                           ... 1048576 integrals/buffer
 Generate file with integrals 4 distinct ...false


------------------------------ INTEGRAL EVALUATION ----------------------------


 * One electron integrals 

   ECP integrals                         ... done
 Pre-screening matrix                    ... done
 Shell pair data                         ... done (   0.000 sec)
 Statistics run                          ... done
 Maximum amount of storage needed        ...    17 MB
 Maximum amount of storage dedicated     ... 500000 MB
 Beginning two electron integral evaluation:
 Starting repulsion integrals
  <ss|ss>  ...          406 b.         0 skpd (  0.0%)     0.036 s. (  0.089 ms/b)
  <ss|sp>  ...         1372 b.         0 skpd (  0.0%)     0.198 s. (  0.144 ms/b)
  <ss|sd>  ...         1176 b.         0 skpd (  0.0%)     0.682 s. (  0.580 ms/b)
  <ss|pp>  ...          784 b.         0 skpd (  0.0%)     0.428 s. (  0.545 ms/b)
  <ss|pd>  ...         1176 b.         0 skpd (  0.0%)     0.651 s. (  0.553 ms/b)
  <ss|dd>  ...          588 b.         0 skpd (  0.0%)     0.422 s. (  0.718 ms/b)
  <sp|sp>  ...         1225 b.         0 skpd (  0.0%)     0.604 s. (  0.493 ms/b)
  <sp|sd>  ...         2058 b.         0 skpd (  0.0%)     1.104 s. (  0.537 ms/b)
  <sp|pp>  ...         1372 b.         0 skpd (  0.0%)     0.755 s. (  0.550 ms/b)
  <sp|pd>  ...         2058 b.         0 skpd (  0.0%)     1.537 s. (  0.747 ms/b)
  <sp|dd>  ...         1029 b.         0 skpd (  0.0%)     1.210 s. (  1.176 ms/b)
  <sd|sd>  ...          903 b.         0 skpd (  0.0%)     0.767 s. (  0.850 ms/b)
  <sd|pp>  ...         1176 b.         0 skpd (  0.0%)     1.114 s. (  0.947 ms/b)
  <sd|pd>  ...         1764 b.         0 skpd (  0.0%)     2.510 s. (  1.423 ms/b)
  <sd|dd>  ...          882 b.         0 skpd (  0.0%)     2.046 s. (  2.320 ms/b)
  <pp|pp>  ...          406 b.         0 skpd (  0.0%)     0.400 s. (  0.984 ms/b)
  <pp|pd>  ...         1176 b.         0 skpd (  0.0%)     1.644 s. (  1.398 ms/b)
  <pp|dd>  ...          588 b.         0 skpd (  0.0%)     1.392 s. (  2.367 ms/b)
  <pd|pd>  ...          903 b.         0 skpd (  0.0%)     2.432 s. (  2.693 ms/b)
  <pd|dd>  ...          882 b.         0 skpd (  0.0%)     3.794 s. (  4.302 ms/b)
  <dd|dd>  ...          231 b.         0 skpd (  0.0%)     1.869 s. (  8.092 ms/b)


                                      INTEGRAL STATISTICS

Integral type statistics:
 Number of integrals retained            ...    1464616 
 One   Center Integrals retained         ...    1464616 (100.0%)
 Two   Center Integrals retained         ...          0 (  0.0%)
 Three Center Integrals retained         ...          0 (  0.0%)
 Four  Center Integrals retained         ...          0 (  0.0%)

Storage statistics:
 Number of char integrals                ...          0 (  0.0%)
 Number of short int integrals           ...          0 (  0.0%)
 Number of double/float integrals        ...    1464616 (100.0%)
 Amount of memory used                   ...         18 MB
 Amount of memory estimated              ...         17 MB ( 96.2%)

Prescreening statistics:
 Total number of shell quadruples        ...      22155 
 Number of skipped shell quadruples      ...          0 (  0.0%)
 # of negligible batches done            ...          0 (  0.0%)

Timings:
 Total evaluation time               ...    26.489 sec (   0.441 min)
 One electron matrix time            ...     0.024 sec (   0.000 min) =  0.1%
 Schwartz matrix evaluation time     ...     0.763 sec (   0.013 min) =  2.9%
 Statistics run                      ...     0.011 sec (   0.000 min) =  0.0%
 Repulsion integral time             ...    25.594 sec (   0.427 min) = 96.6%

-------------------------------------------------------------------------------
                                 ORCA SCF
-------------------------------------------------------------------------------

------------
SCF SETTINGS
------------
Hamiltonian:
 Ab initio Hamiltonian  Method          .... Hartree-Fock(GTOs)


General Settings:
 Integral files         IntName         .... 44_Ru_atom44
 Hartree-Fock type      HFTyp           .... ROHF
 Total Charge           Charge          ....    0
 Multiplicity           Mult            ....    5
 Number of Electrons    NEL             ....   16
 Basis Dimension        Dim             ....   58
 Nuclear Repulsion      ENuc            ....      0.0000000000 Eh

Convergence Acceleration:
 DIIS                   CNVDIIS         .... on
   Start iteration      DIISMaxIt       ....    12
   Startup error        DIISStart       ....  0.200000
   # of expansion vecs  DIISMaxEq       ....     5
   Bias factor          DIISBfac        ....   1.050
   Max. coefficient     DIISMaxC        ....  10.000
 Newton-Raphson         CNVNR           .... off
 SOSCF                  CNVSOSCF        .... off
 Level Shifting         CNVShift        .... on
   Level shift para.    LevelShift      ....    1.0000
   Turn off err/grad.   ShiftErr        ....    0.0010
 Zerner damping         CNVZerner       .... off
 Static damping         CNVDamp         .... on
   Fraction old density DampFac         ....    0.7000
   Max. Damping (<1)    DampMax         ....    0.9800
   Min. Damping (>=0)   DampMin         ....    0.0000
   Turn off err/grad.   DampErr         ....    0.1000
 Fernandez-Rico         CNVRico         .... off

SCF Procedure:
 Maximum # iterations   MaxIter         ....  1000
 SCF integral mode      SCFMode         .... Conventional
 Integral Threshold     Thresh          ....  1.000e-10 Eh
 Primitive CutOff       TCut            ....  1.000e-11 Eh
 Integral Buffer length BufferLength    .... 1048576
 Integral index format  IndFormat       ....     0
 Integral value format  ValFormat       ....     0
 Integral Storage       Thresh          ....  1.000e-10 Eh

Convergence Tolerance:
 Convergence Check Mode ConvCheckMode   .... Total+1el-Energy
 Convergence forced     ConvForced      .... 0
 Energy Change          TolE            ....  1.000e-06 Eh
 1-El. energy change                    ....  1.000e-03 Eh
 DIIS Error             TolErr          ....  1.000e-06


Diagonalization of the overlap matrix:
Smallest eigenvalue                        ... 8.800e-04
Time for diagonalization                   ...    0.001 sec
Threshold for overlap eigenvalues          ... 1.000e-08
Number of eigenvalues below threshold      ... 0
Time for construction of square roots      ...    0.000 sec
Total time needed                          ...    0.001 sec

--------------------
INITIAL GUESS: HCORE
--------------------
AVERAGE-CONFIGURATION (SAHF) CASE FOUND

-------------------
FINAL ROHF SETTINGS
-------------------
Number of operators             ... 2
  operator   0:   5 orbitals  10 electrons n(mue)= 2.000
  operator   1:   5 orbitals   6 electrons n(mue)= 1.200
Vector coupling coefficients a and b (Zerner convention):
   1.000    1.000           1.000    1.000 
   1.000    0.972           1.000    1.389 

                      -----------------
                      INTIAL GUESS DONE 
                      -----------------

 InCore treatment chosen:
   Memory dedicated               ...    1024 MB
   Memory needed                  ...     18 MB
   Number of tiny    integrals    ...       0
   Number of small   integrals    ...       0
   Number of regular integrals    ... 1464616

--------------
SCF ITERATIONS
--------------
ITER       Energy         Delta-E        Max-DP      RMS-DP      [F,P]     Damp
  0    -81.3264973177   0.000000000000 0.88910114  0.02834768  1.6604955 0.7000
  1    -89.8978239446  -8.571326626919 0.56033341  0.01823824  0.4035468 0.7000
                            ****Activating DIIS****
  2    -89.1895837463   0.708240198304 0.90787248  0.03402805  0.0892284 0.0000
  3    -87.2452478592   1.944335887140 0.02339343  0.00052908  0.4889313 0.7000
  4    -87.1172668233   0.127981035915 0.01638656  0.00037317  0.5425186 0.7000
  5    -87.0893019884   0.027964834883 0.02093710  0.00049207  0.5472580 0.7000
  6    -87.0447515891   0.044550399310 0.00787573  0.00019580  0.5532550 0.7000
  7    -87.0930582255  -0.048306636455 0.61366788  0.02324154  0.5254121 0.7000
  8    -93.0784919088  -5.985433683294 0.46877873  0.01665654  0.1710290 0.7000
  9    -93.0108277324   0.067664176416 0.34864725  0.01177382  0.1010725 0.7000
 10    -93.0219113043  -0.011083571934 0.24248681  0.00823297  0.1307322 0.7000
 11    -93.0207612193   0.001150085055 0.17286589  0.00578133  0.1708848 0.7000
 12    -92.9994198635   0.021341355792 0.12403462  0.00406858  0.2113039 0.7000
 13    -92.9111237366   0.088296126852 0.10991820  0.00301890  0.2684408 0.7000
 14    -93.0414421443  -0.130318407678 0.06934976  0.00205622  0.2399354 0.7000
 15    -93.0678574602  -0.026415315849 0.03928960  0.00139802  0.2441826 0.7000
 16    -93.1470190750  -0.079161614865 0.03240236  0.00156405  0.2254107 0.7000
 17    -93.4972374248  -0.350218349761 0.13513771  0.00531115  0.0772588 0.0000
 18    -93.7312477406  -0.234010315795 0.06020311  0.00163715  0.0718420 0.0000
 19    -93.7417465753  -0.010498834694 0.05135904  0.00185282  0.0417044 0.0000
 20    -93.7719274335  -0.030180858167 0.03923600  0.00093153  0.0206903 0.0000
 21    -93.7765800850  -0.004652651575 0.05254420  0.00100209  0.0142966 0.0000
 22    -93.7786840425  -0.002103957498 0.05048513  0.00090349  0.0093440 0.0000
 23    -93.7798827594  -0.001198716847 0.03264327  0.00058156  0.0061790 0.0000
 24    -93.7803647429  -0.000481983534 0.03220131  0.00058764  0.0048956 0.0000
 25    -93.7806890136  -0.000324270728 0.02316475  0.00043754  0.0034947 0.0000
 26    -93.7808358319  -0.000146818288 0.01039406  0.00019407  0.0023595 0.0000
 27    -93.7808835330  -0.000047701076 0.00838535  0.00014455  0.0017482 0.0000
 28    -93.7809135614  -0.000030028383 0.00648436  0.00010689  0.0013208 0.0000
 29    -93.7809303672  -0.000016805794 0.00369802  0.00006095  0.0013209 0.0000
 30    -93.7809374157  -0.000007048502 0.00235579  0.00003937  0.0013194 0.0000
 31    -93.7809406424  -0.000003226743 0.00175408  0.00002858  0.0013175 0.0000
 32    -93.7809421838  -0.000001541391 0.00125940  0.00002066  0.0013158 0.0000
                 **** Energy Check signals convergence ****

               *****************************************************
               *                     SUCCESS                       *
               *           SCF CONVERGED AFTER  33 CYCLES          *
               *****************************************************


----------------
TOTAL SCF ENERGY
----------------

Total Energy       :          -93.78094285 Eh           -2551.90919 eV

Components:
Nuclear Repulsion  :            0.00000000 Eh               0.00000 eV
Electronic Energy  :          -93.78094285 Eh           -2551.90919 eV
One Electron Energy:         -164.49102932 Eh           -4476.02846 eV
Two Electron Energy:           70.71008648 Eh            1924.11927 eV

Virial components:
Potential Energy   :         -128.16680968 Eh           -3487.59620 eV
Kinetic Energy     :           34.38586684 Eh             935.68701 eV
Virial Ratio       :            3.72731071


---------------
SCF CONVERGENCE
---------------

  Last Energy change         ...   -6.6524e-07  Tolerance :   1.0000e-06
  Last MAX-Density change    ...    8.2917e-04  Tolerance :   1.0000e-05
  Last RMS-Density change    ...    1.4756e-05  Tolerance :   1.0000e-06
  Last DIIS Error            ...    1.3148e-03  Tolerance :   1.0000e-06

             **** THE GBW FILE WAS UPDATED (44_Ru_atom44.gbw) ****
             **** DENSITY FILE WAS UPDATED (44_Ru_atom44.scfp) ****
             **** ENERGY FILE WAS UPDATED (44_Ru_atom44.en.tmp) ****
             **** THE GBW FILE WAS UPDATED (44_Ru_atom44.gbw) ****
             **** DENSITY FILE WAS UPDATED (44_Ru_atom44.scfp) ****
----------------
ORBITAL ENERGIES
----------------

  NO   OCC          E(Eh)            E(eV) 
   0   2.0000      -3.470889       -94.4477 
   1   2.0000      -2.178954       -59.2923 
   2   2.0000      -2.170636       -59.0660 
   3   2.0000      -2.170636       -59.0660 
   4   2.0000      -0.371255       -10.1024 
   5   1.2000      -0.437575       -11.9070 
   6   1.2000      -0.430552       -11.7159 
   7   1.2000      -0.430552       -11.7159 
   8   1.2000      -0.410142       -11.1605 
   9   1.2000      -0.246379        -6.7043 
  10   0.0000       0.000163         0.0044 
  11   0.0000       0.001725         0.0469 
  12   0.0000       0.001725         0.0469 
  13   0.0000       0.013224         0.3598 
  14   0.0000       0.027888         0.7589 
  15   0.0000       0.044231         1.2036 
  16   0.0000       0.044388         1.2079 
  17   0.0000       0.044388         1.2079 
  18   0.0000       0.044874         1.2211 
  19   0.0000       0.044876         1.2211 
  20   0.0000       0.031452         0.8558 
  21   0.0000       0.031452         0.8558 
  22   0.0000       0.132332         3.6009 
  23   0.0000       0.137509         3.7418 
  24   0.0000       0.137509         3.7418 
  25   0.0000       0.167074         4.5463 
  26   0.0000       0.167761         4.5650 
  27   0.0000       0.167761         4.5650 
  28   0.0000       0.169681         4.6172 
  29   0.0000       0.169838         4.6215 
  30   0.0000       0.228404         6.2152 
  31   0.0000       0.449976        12.2445 
  32   0.0000       0.460282        12.5249 
  33   0.0000       0.460282        12.5249 
  34   0.0000       0.518600        14.1118 
  35   0.0000       0.520593        14.1661 
  36   0.0000       0.520593        14.1661 
  37   0.0000       0.527604        14.3568 
  38   0.0000       0.526799        14.3349 
  39   0.0000       1.182444        32.1759 
  40   0.0000       1.452850        39.5341 
  41   0.0000       1.474175        40.1143 
  42   0.0000       1.474175        40.1143 
  43   0.0000       1.636737        44.5379 
  44   0.0000       1.640694        44.6455 
  45   0.0000       1.640694        44.6455 
  46   0.0000       1.660435        45.1827 
  47   0.0000       1.653353        44.9900 
  48   0.0000       4.320516       117.5672 
  49   0.0000       4.622418       125.7824 
  50   0.0000       4.653447       126.6267 
  51   0.0000       4.653447       126.6267 
  52   0.0000       4.927312       134.0790 
  53   0.0000       4.932133       134.2102 
  54   0.0000       4.932133       134.2102 
  55   0.0000       4.948183       134.6469 
  56   0.0000       4.960356       134.9781 
  57   0.0000      12.903138       351.1122 
CleanUpVectors: The p-vectors have cracked symmetry
CleanUpVectors: The p-vectors have cracked symmetry
CleanUpVectors: The p-vectors have cracked symmetry
CleanUpVectors: The d-vectors have cracked symmetry at i=4
CleanUpVectors: The d-vectors have cracked symmetry at i=5
CleanUpVectors: The d-vectors have cracked symmetry at i=6
CleanUpVectors: The d-vectors have cracked symmetry at i=7
CleanUpVectors: The d-vectors have cracked symmetry at i=8
CleanUpVectors: The p-vectors have cracked symmetry
CleanUpVectors: The p-vectors have cracked symmetry
CleanUpVectors: The p-vectors have cracked symmetry
CleanUpVectors: The p-vectors have cracked symmetry
CleanUpVectors: The d-vectors have cracked symmetry at i=15
CleanUpVectors: The d-vectors have cracked symmetry at i=16
CleanUpVectors: The d-vectors have cracked symmetry at i=17
CleanUpVectors: The d-vectors have cracked symmetry at i=18
CleanUpVectors: The d-vectors have cracked symmetry at i=19
CleanUpVectors: The p-vectors have cracked symmetry
CleanUpVectors: The p-vectors have cracked symmetry
CleanUpVectors: The p-vectors have cracked symmetry
CleanUpVectors: The p-vectors have cracked symmetry
CleanUpVectors: The p-vectors have cracked symmetry
CleanUpVectors: The d-vectors have cracked symmetry at i=25
CleanUpVectors: The d-vectors have cracked symmetry at i=26
CleanUpVectors: The d-vectors have cracked symmetry at i=27
CleanUpVectors: The d-vectors have cracked symmetry at i=28
CleanUpVectors: The d-vectors have cracked symmetry at i=29
CleanUpVectors: The p-vectors have cracked symmetry
CleanUpVectors: The p-vectors have cracked symmetry
CleanUpVectors: The p-vectors have cracked symmetry
CleanUpVectors: The d-vectors have cracked symmetry at i=34
CleanUpVectors: The d-vectors have cracked symmetry at i=35
CleanUpVectors: The d-vectors have cracked symmetry at i=36
CleanUpVectors: The d-vectors have cracked symmetry at i=37
CleanUpVectors: The d-vectors have cracked symmetry at i=38
CleanUpVectors: The p-vectors have cracked symmetry
CleanUpVectors: The p-vectors have cracked symmetry
CleanUpVectors: The p-vectors have cracked symmetry
CleanUpVectors: The d-vectors have cracked symmetry at i=43
CleanUpVectors: The d-vectors have cracked symmetry at i=44
CleanUpVectors: The d-vectors have cracked symmetry at i=45
CleanUpVectors: The d-vectors have cracked symmetry at i=46
CleanUpVectors: The d-vectors have cracked symmetry at i=47
CleanUpVectors: The p-vectors have cracked symmetry
CleanUpVectors: The p-vectors have cracked symmetry
CleanUpVectors: The p-vectors have cracked symmetry
CleanUpVectors: The d-vectors have cracked symmetry at i=52
CleanUpVectors: The d-vectors have cracked symmetry at i=53
--------------------------
ATOM BASIS FOR ELEMENT Ru
--------------------------
 NewGTO Ru
 S 67
    1       7269.890000000000        -0.000010999143
    2       1087.840000000000        -0.000077993842
    3        241.787000000000        -0.000310975229
    4         35.452500000000        -0.008733305263
    5         22.141500000000         0.063598940389
    6         13.829200000000        -0.185700226625
    7          5.132130000000         0.454453845954
    8          3.170590000000         0.256321608346
    9          1.494870000000        -0.533002597068
   10          0.800530000000        -0.639921091192
   11          0.411638000000        -0.215255875316
   12          0.142417000000        -0.011260104167
   13          0.063563000000         0.000094992427
   14       7269.890000000000        -0.000000014604
   15       1087.840000000000        -0.000000091274
   16        241.787000000000        -0.000000387001
   17         35.452500000000        -0.000009116428
   18         22.141500000000         0.000068791242
   19         13.829200000000        -0.000210225479
   20          5.132130000000         0.000585824490
   21          3.170590000000         0.000252375722
   22          1.494870000000        -0.000744717581
   23          0.800530000000        -0.001170122881
   24          0.411638000000        -0.000637660709
   25          0.142417000000         0.001214657196
   26          0.063563000000         0.002301271847
   27       7269.890000000000        -0.000000006099
   28       1087.840000000000        -0.000000056634
   29        241.787000000000        -0.000000151606
   30         35.452500000000        -0.000007291026
   31         22.141500000000         0.000045120197
   32         13.829200000000        -0.000123524870
   33          5.132130000000         0.000361089655
   34          3.170590000000         0.000068373413
   35          1.494870000000        -0.000387456021
   36          0.800530000000        -0.001267769924
   37          0.411638000000         0.001108493930
   38          0.142417000000         0.001226130565
   39          0.063563000000        -0.000870988394
   40       7269.890000000000        -0.000000003277
   41       1087.840000000000        -0.000000022939
   42        241.787000000000        -0.000000098855
   43         35.452500000000        -0.000002091258
   44         22.141500000000         0.000015958609
   45         13.829200000000        -0.000050857876
   46          5.132130000000         0.000157012567
   47          3.170590000000         0.000109656415
   48          1.494870000000        -0.000600720819
   49          0.800530000000        -0.000118932993
   50          0.411638000000         0.000936015996
   51          0.142417000000        -0.000667815027
   52          0.063563000000        -0.000040946657
   53       7269.890000000000         0.000000000466
   54       1087.840000000000         0.000000005266
   55        241.787000000000         0.000000009659
   56         35.452500000000         0.000000739838
   57         22.141500000000        -0.000004201127
   58         13.829200000000         0.000011161847
   59          5.132130000000        -0.000040449372
   60          3.170590000000        -0.000003699454
   61          1.494870000000         0.000199445723
   62          0.800530000000        -0.000282101210
   63          0.411638000000         0.000137906720
   64          0.142417000000         0.000026809391
   65          0.063563000000        -0.000088864323
   66          0.028296000000        -0.000573927184
   67          0.012600000000         0.000078209423
 P 52
    1        174.307000000000        -0.000102999861
    2         11.504000000000        -0.053993935693
    3          7.191760000000         0.161011808292
    4          3.574980000000         0.129037846339
    5          2.130780000000        -0.314762625222
    6          1.089220000000        -0.504140399771
    7          0.558637000000        -0.325270612708
    8          0.270477000000        -0.078701906298
    9          0.123896000000        -0.003762995547
   10          0.055823000000        -0.001285998490
   11        174.307000000000        -0.000000125866
   12         11.504000000000        -0.000059931503
   13          7.191760000000         0.000186022993
   14          3.574980000000         0.000134230853
   15          2.130780000000        -0.000393706458
   16          1.089220000000        -0.000690797062
   17          0.558637000000        -0.000474432625
   18          0.270477000000         0.000427289917
   19          0.123896000000         0.001611513996
   20          0.055823000000         0.001820223463
   21        174.307000000000        -0.000000016477
   22         11.504000000000        -0.000007775181
   23          7.191760000000         0.000024122374
   24          3.574980000000         0.000019101528
   25          2.130780000000        -0.000055304672
   26          1.089220000000        -0.000100349671
   27          0.558637000000        -0.000038797573
   28          0.270477000000         0.000124851553
   29          0.123896000000         0.000158172600
   30          0.055823000000         0.000040719151
   31        174.307000000000        -0.000000232320
   32         11.504000000000        -0.000102183333
   33          7.191760000000         0.000319066224
   34          3.574980000000         0.000359166265
   35          2.130780000000        -0.001101392461
   36          1.089220000000        -0.001695987781
   37          0.558637000000         0.001631904880
   38          0.270477000000         0.002172782491
   39          0.123896000000        -0.001565892895
   40          0.055823000000        -0.000960913713
   41        174.307000000000         0.000000146135
   42         11.504000000000         0.000036821241
   43          7.191760000000        -0.000112009828
   44          3.574980000000        -0.000381603604
   45          2.130780000000         0.001258729744
   46          1.089220000000        -0.000239334562
   47          0.558637000000        -0.001436266324
   48          0.270477000000         0.001336750419
   49          0.123896000000        -0.000045458965
   50          0.055823000000        -0.000447524920
   51          0.024842000000         0.000149879915
   52          0.011100000000        -0.000042233777
 D 37
    1         75.375100000000        -0.000180162230
    2         19.890100000000        -0.002085877780
    3          7.879240000000         0.018687823086
    4          2.908340000000        -0.078124328773
    5          1.638830000000        -0.226531927849
    6          0.875730000000        -0.317385715902
    7          0.450483000000        -0.305310845930
    8          0.222770000000        -0.215343856091
    9          0.105342000000        -0.099847884713
   10         75.375100000000         0.000000243368
   11         19.890100000000         0.000002500813
   12          7.879240000000        -0.000023291364
   13          2.908340000000         0.000104427503
   14          1.638830000000         0.000343367788
   15          0.875730000000         0.000397909717
   16          0.450483000000         0.000002542772
   17          0.222770000000        -0.000482365487
   18          0.105342000000        -0.000544678397
   19         75.375100000000         0.000000334184
   20         19.890100000000         0.000003005777
   21          7.879240000000        -0.000030082246
   22          2.908340000000         0.000174716323
   23          1.638830000000         0.000548989698
   24          0.875730000000         0.000068499334
   25          0.450483000000        -0.000751874474
   26          0.222770000000        -0.000283949444
   27          0.105342000000         0.000509248110
   28         75.375100000000        -0.000000316284
   29         19.890100000000        -0.000012656560
   30          7.879240000000         0.000107159335
   31          2.908340000000        -0.000771885046
   32          1.638830000000        -0.001389978034
   33          0.875730000000         0.002269877424
   34          0.450483000000         0.000603177259
   35          0.222770000000        -0.002124143647
   36          0.105342000000         0.000303076205
   37          0.046455000000        -0.014521748539
 S 67
    1       7269.890000000000         0.000000731471
    2       1087.840000000000         0.000005186789
    3        241.787000000000         0.000020680645
    4         35.452500000000         0.000580787061
    5         22.141500000000        -0.004229491648
    6         13.829200000000         0.012349538415
    7          5.132130000000        -0.030222339145
    8          3.170590000000        -0.017046040311
    9          1.494870000000         0.035446031313
   10          0.800530000000         0.042556383704
   11          0.411638000000         0.014315064389
   12          0.142417000000         0.000748825629
   13          0.063563000000        -0.000006317239
   14       7269.890000000000        -0.000000083840
   15       1087.840000000000        -0.000000524000
   16        241.787000000000        -0.000002221759
   17         35.452500000000        -0.000052337075
   18         22.141500000000         0.000394927981
   19         13.829200000000        -0.001206896722
   20          5.132130000000         0.003363196790
   21          3.170590000000         0.001448879714
   22          1.494870000000        -0.004275396165
   23          0.800530000000        -0.006717632305
   24          0.411638000000        -0.003660786614
   25          0.142417000000         0.006973302165
   26          0.063563000000         0.013211516803
   27       7269.890000000000        -0.000007078293
   28       1087.840000000000        -0.000065727200
   29        241.787000000000        -0.000175946530
   30         35.452500000000        -0.008461614572
   31         22.141500000000         0.052364329805
   32         13.829200000000        -0.143357022453
   33          5.132130000000         0.419063283268
   34          3.170590000000         0.079350894187
   35          1.494870000000        -0.449662819569
   36          0.800530000000        -1.471312786950
   37          0.411638000000         1.286464730828
   38          0.142417000000         1.422988150082
   39          0.063563000000        -1.010827230672
   40       7269.890000000000         0.000007557869
   41       1087.840000000000         0.000052905166
   42        241.787000000000         0.000227996020
   43         35.452500000000         0.004823186858
   44         22.141500000000        -0.036806244237
   45         13.829200000000         0.117296403149
   46          5.132130000000        -0.362126987328
   47          3.170590000000        -0.252906808448
   48          1.494870000000         1.385476492322
   49          0.800530000000         0.274301906157
   50          0.411638000000        -2.158786774462
   51          0.142417000000         1.540219670021
   52          0.063563000000         0.094437596093
   53       7269.890000000000        -0.000003086571
   54       1087.840000000000        -0.000034917040
   55        241.787000000000        -0.000064046712
   56         35.452500000000        -0.004905552934
   57         22.141500000000         0.027855878144
   58         13.829200000000        -0.074009435860
   59          5.132130000000         0.268202506918
   60          3.170590000000         0.024529500823
   61          1.494870000000        -1.322439377003
   62          0.800530000000         1.870492595284
   63          0.411638000000        -0.914400543178
   64          0.142417000000        -0.177761619734
   65          0.063563000000         0.589221357645
   66          0.028296000000        -2.556158816380
   67          0.012600000000         1.402259820348
 S 67
    1       7269.890000000000        -0.000002711481
    2       1087.840000000000        -0.000019226847
    3        241.787000000000        -0.000076660834
    4         35.452500000000        -0.002152912532
    5         22.141500000000         0.015678251433
    6         13.829200000000        -0.045778354583
    7          5.132130000000         0.112030823439
    8          3.170590000000         0.063187760658
    9          1.494870000000        -0.131394464754
   10          0.800530000000        -0.157751744034
   11          0.411638000000        -0.053064339044
   12          0.142417000000        -0.002775812666
   13          0.063563000000         0.000023417295
   14       7269.890000000000         0.000002530943
   15       1087.840000000000         0.000015818468
   16        241.787000000000         0.000067070237
   17         35.452500000000         0.001579946478
   18         22.141500000000        -0.011922047015
   19         13.829200000000         0.036433679458
   20          5.132130000000        -0.101527853678
   21          3.170590000000        -0.043738638218
   22          1.494870000000         0.129065238654
   23          0.800530000000         0.202791222873
   24          0.411638000000         0.110511465989
   25          0.142417000000        -0.210509359436
   26          0.063563000000        -0.398827968965
   27       7269.890000000000        -0.000004066378
   28       1087.840000000000        -0.000037759333
   29        241.787000000000        -0.000101078757
   30         35.452500000000        -0.004861076181
   31         22.141500000000         0.030082556249
   32         13.829200000000        -0.082356552784
   33          5.132130000000         0.240745844311
   34          3.170590000000         0.045585950334
   35          1.494870000000        -0.258324838932
   36          0.800530000000        -0.845248088493
   37          0.411638000000         0.739055532101
   38          0.142417000000         0.817486277883
   39          0.063563000000        -0.580705742586
   40       7269.890000000000        -0.000009458056
   41       1087.840000000000        -0.000066206493
   42        241.787000000000        -0.000285318390
   43         35.452500000000        -0.006035824262
   44         22.141500000000         0.046060007310
   45         13.829200000000        -0.146786864524
   46          5.132130000000         0.453172336083
   47          3.170590000000         0.316492206343
   48          1.494870000000        -1.733810626065
   49          0.800530000000        -0.343266422981
   50          0.411638000000         2.701545258770
   51          0.142417000000        -1.927459069249
   52          0.063563000000        -0.118180935233
   53       7269.890000000000         0.000007134293
   54       1087.840000000000         0.000080707169
   55        241.787000000000         0.000148037427
   56         35.452500000000         0.011338684024
   57         22.141500000000        -0.064386014120
   58         13.829200000000         0.171065243665
   59          5.132130000000        -0.619922671537
   60          3.170590000000        -0.056697433058
   61          1.494870000000         3.056683402998
   62          0.800530000000        -4.323452379639
   63          0.411638000000         2.113543359815
   64          0.142417000000         0.410877808224
   65          0.063563000000        -1.361924921417
   66          0.028296000000         2.880374527945
   67          0.012600000000        -1.147846600384
 S 67
    1       7269.890000000000        -0.000010179965
    2       1087.840000000000        -0.000072185132
    3        241.787000000000        -0.000287814876
    4         35.452500000000        -0.008082879074
    5         22.141500000000         0.058862312594
    6         13.829200000000        -0.171869919870
    7          5.132130000000         0.420607704730
    8          3.170590000000         0.237231666800
    9          1.494870000000        -0.493306418163
   10          0.800530000000        -0.592261994856
   11          0.411638000000        -0.199224366682
   12          0.142417000000        -0.010421490787
   13          0.063563000000         0.000087917722
   14       7269.890000000000         0.000011675634
   15       1087.840000000000         0.000072973057
   16        241.787000000000         0.000309405447
   17         35.452500000000         0.007288539145
   18         22.141500000000        -0.054998259468
   19         13.829200000000         0.168074237062
   20          5.132130000000        -0.468363799685
   21          3.170590000000        -0.201773149407
   22          1.494870000000         0.595398044907
   23          0.800530000000         0.935507491264
   24          0.411638000000         0.509806602274
   25          0.142417000000        -0.971112457155
   26          0.063563000000        -1.839855529282
   27       7269.890000000000        -0.000005816521
   28       1087.840000000000        -0.000054010705
   29        241.787000000000        -0.000144582397
   30         35.452500000000        -0.006953251748
   31         22.141500000000         0.043029892774
   32         13.829200000000        -0.117802277380
   33          5.132130000000         0.344361289671
   34          3.170590000000         0.065205846825
   35          1.494870000000        -0.369506169227
   36          0.800530000000        -1.209037367514
   37          0.411638000000         1.057140225624
   38          0.142417000000         1.169327054205
   39          0.063563000000        -0.830637716754
   40       7269.890000000000         0.000010743195
   41       1087.840000000000         0.000075202485
   42        241.787000000000         0.000324086824
   43         35.452500000000         0.006855958759
   44         22.141500000000        -0.052318539579
   45         13.829200000000         0.166731940131
   46          5.132130000000        -0.514748394237
   47          3.170590000000        -0.359496469735
   48          1.494870000000         1.969396992305
   49          0.800530000000         0.389908707915
   50          0.411638000000        -3.068625273840
   51          0.142417000000         2.189357959112
   52          0.063563000000         0.134239100220
   53       7269.890000000000         0.000010539756
   54       1087.840000000000         0.000119231697
   55        241.787000000000         0.000218701187
   56         35.452500000000         0.016751058928
   57         22.141500000000        -0.095119849395
   58         13.829200000000         0.252721036339
   59          5.132130000000        -0.915834781190
   60          3.170590000000        -0.083761223105
   61          1.494870000000         4.515751889846
   62          0.800530000000        -6.387196735804
   63          0.411638000000         3.122416084046
   64          0.142417000000         0.607005042512
   65          0.063563000000        -2.012022256439
   66          0.028296000000         3.491291513367
   67          0.012600000000        -1.240130646731
 D 76
    1         75.375100000000        -0.000087921467
    2         19.890100000000        -0.001017934978
    3          7.879240000000         0.009119896174
    4          2.908340000000        -0.038125669522
    5          1.638830000000        -0.110550471960
    6          0.875730000000        -0.154888280074
    7          0.450483000000        -0.148995589419
    8          0.222770000000        -0.105090550152
    9          0.105342000000        -0.048727042073
   10         75.375100000000        -0.000157226541
   11         19.890100000000        -0.001820333534
   12          7.879240000000         0.016308755661
   13          2.908340000000        -0.068178652123
   14          1.638830000000        -0.197693109766
   15          0.875730000000        -0.276980687746
   16          0.450483000000        -0.266443018211
   17          0.222770000000        -0.187929343929
   18          0.105342000000        -0.087136674375
   19         75.375100000000        -0.000002132231
   20         19.890100000000        -0.000021910507
   21          7.879240000000         0.000204063915
   22          2.908340000000        -0.000914926469
   23          1.638830000000        -0.003008367218
   24          0.875730000000        -0.003486228440
   25          0.450483000000        -0.000022278133
   26          0.222770000000         0.004226175459
   27          0.105342000000         0.004772121010
   28         75.375100000000        -0.000003812985
   29         19.890100000000        -0.000039181708
   30          7.879240000000         0.000364919564
   31          2.908340000000        -0.001636127424
   32          1.638830000000        -0.005379746102
   33          0.875730000000        -0.006234286743
   34          0.450483000000        -0.000039839119
   35          0.222770000000         0.007557505220
   36          0.105342000000         0.008533798416
   37         75.375100000000         0.000001165121
   38         19.890100000000         0.000010479525
   39          7.879240000000        -0.000104880589
   40          2.908340000000         0.000609141706
   41          1.638830000000         0.001914031357
   42          0.875730000000         0.000238820281
   43          0.450483000000        -0.002621381282
   44          0.222770000000        -0.000989978759
   45          0.105342000000         0.001775473847
   46         75.375100000000         0.000002083541
   47         19.890100000000         0.000018740128
   48          7.879240000000        -0.000187553878
   49          2.908340000000         0.001089304424
   50          1.638830000000         0.003422787840
   51          0.875730000000         0.000427073021
   52          0.450483000000        -0.004687714203
   53          0.222770000000        -0.001770340515
   54          0.105342000000         0.003175010833
   55         75.375100000000        -0.000000087998
   56         19.890100000000        -0.000003521358
   57          7.879240000000         0.000029814292
   58          2.908340000000        -0.000214756892
   59          1.638830000000        -0.000386725154
   60          0.875730000000         0.000631534221
   61          0.450483000000         0.000167818349
   62          0.222770000000        -0.000590987597
   63          0.105342000000         0.000084323053
   64         75.375100000000        -0.000000157363
   65         19.890100000000        -0.000006297107
   66          7.879240000000         0.000053315738
   67          2.908340000000        -0.000384041399
   68          1.638830000000        -0.000691565552
   69          0.875730000000         0.001129348088
   70          0.450483000000         0.000300103026
   71          0.222770000000        -0.001056840136
   72          0.105342000000         0.000150791637
   73          0.046455000000        -0.003791029847
   74          0.046455000000        -0.006779351245
   75          0.020500000000        -0.000197611223
   76          0.020500000000        -0.000353380464
 P 52
    1        174.307000000000        -0.000012675439
    2         11.504000000000        -0.006644638261
    3          7.191760000000         0.019814544135
    4          3.574980000000         0.015879742787
    5          2.130780000000        -0.038735531236
    6          1.089220000000        -0.062040867110
    7          0.558637000000        -0.040028672304
    8          0.270477000000        -0.009685267263
    9          0.123896000000        -0.000463084305
   10          0.055823000000        -0.000158258417
   11        174.307000000000         0.000062681391
   12         11.504000000000         0.029845831077
   13          7.191760000000        -0.092639271649
   14          3.574980000000        -0.066846836096
   15          2.130780000000         0.196065437964
   16          1.089220000000         0.344016273482
   17          0.558637000000         0.236266991736
   18          0.270477000000        -0.212789968193
   19          0.123896000000        -0.802532422455
   20          0.055823000000        -0.906469536903
   21        174.307000000000        -0.000088231619
   22         11.504000000000        -0.041635196871
   23          7.191760000000         0.129172529214
   24          3.574980000000         0.102286476095
   25          2.130780000000        -0.296150135339
   26          1.089220000000        -0.537360903714
   27          0.558637000000        -0.207756522374
   28          0.270477000000         0.668565652897
   29          0.123896000000         0.846996011839
   30          0.055823000000         0.218046353629
   31        174.307000000000         0.000033783820
   32         11.504000000000         0.014859454417
   33          7.191760000000        -0.046398466902
   34          3.574980000000        -0.052229796778
   35          2.130780000000         0.160163996652
   36          1.089220000000         0.246629780938
   37          0.558637000000        -0.237310874184
   38          0.270477000000        -0.315965053338
   39          0.123896000000         0.227711440997
   40          0.055823000000         0.139735640310
   41        174.307000000000        -0.000013313759
   42         11.504000000000        -0.003354641363
   43          7.191760000000         0.010204783662
   44          3.574980000000         0.034766433292
   45          2.130780000000        -0.114678014489
   46          1.089220000000         0.021804849322
   47          0.558637000000         0.130852687922
   48          0.270477000000        -0.121786177447
   49          0.123896000000         0.004141591063
   50          0.055823000000         0.040772270214
   51          0.024842000000         2.156655076284
   52          0.011100000000        -1.467017706419
 D 76
    1         75.375100000000         0.000002351446
    2         19.890100000000         0.000027224519
    3          7.879240000000        -0.000243910259
    4          2.908340000000         0.001019665329
    5          1.638830000000         0.002956655836
    6          0.875730000000         0.004142463882
    7          0.450483000000         0.003984864752
    8          0.222770000000         0.002810631044
    9          0.105342000000         0.001303197452
   10         75.375100000000         0.000004215874
   11         19.890100000000         0.000048810442
   12          7.879240000000        -0.000437303140
   13          2.908340000000         0.001828143071
   14          1.638830000000         0.005300945054
   15          0.875730000000         0.007426962975
   16          0.450483000000         0.007144405797
   17          0.222770000000         0.005039139337
   18          0.105342000000         0.002336483672
   19         75.375100000000        -0.000014619571
   20         19.890100000000        -0.000150228682
   21          7.879240000000         0.001399157609
   22          2.908340000000        -0.006273163625
   23          1.638830000000        -0.020626772130
   24          0.875730000000        -0.023903212086
   25          0.450483000000        -0.000152749296
   26          0.222770000000         0.028976634790
   27          0.105342000000         0.032719892726
   28         75.375100000000        -0.000026211214
   29         19.890100000000        -0.000269342809
   30          7.879240000000         0.002508529236
   31          2.908340000000        -0.011247063415
   32          1.638830000000        -0.036981438404
   33          0.875730000000        -0.042855719734
   34          0.450483000000        -0.000273861981
   35          0.222770000000         0.051951785180
   36          0.105342000000         0.058663017646
   37         75.375100000000         0.000015330160
   38         19.890100000000         0.000137885074
   39          7.879240000000        -0.001379973530
   40          2.908340000000         0.008014823728
   41          1.638830000000         0.025183998707
   42          0.875730000000         0.003142294211
   43          0.450483000000        -0.034491003808
   44          0.222770000000        -0.013025713340
   45          0.105342000000         0.023360918769
   46         75.375100000000         0.000027485220
   47         19.890100000000         0.000247212135
   48          7.879240000000        -0.002474134381
   49          2.908340000000         0.014369660369
   50          1.638830000000         0.045152023355
   51          0.875730000000         0.005633773384
   52          0.450483000000        -0.061838416829
   53          0.222770000000        -0.023353611148
   54          0.105342000000         0.041883449968
   55         75.375100000000        -0.000002872964
   56         19.890100000000        -0.000114965930
   57          7.879240000000         0.000973382414
   58          2.908340000000        -0.007011422088
   59          1.638830000000        -0.012625873163
   60          0.875730000000         0.020618444141
   61          0.450483000000         0.005478963972
   62          0.222770000000        -0.019294670576
   63          0.105342000000         0.002752994389
   64         75.375100000000        -0.000005150895
   65         19.890100000000        -0.000206120736
   66          7.879240000000         0.001745163109
   67          2.908340000000        -0.012570676227
   68          1.638830000000        -0.022636743535
   69          0.875730000000         0.036966507273
   70          0.450483000000         0.009823154460
   71          0.222770000000        -0.034593132989
   72          0.105342000000         0.004935803420
   73          0.046455000000        -0.246974641819
   74          0.046455000000        -0.442797227126
   75          0.020500000000         0.636413260282
   76          0.020500000000         1.141016036642
 P 52
    1        174.307000000000        -0.000019232461
    2         11.504000000000        -0.010081919029
    3          7.191760000000         0.030064635836
    4          3.574980000000         0.024094356187
    5          2.130780000000        -0.058773476321
    6          1.089220000000        -0.094134695399
    7          0.558637000000        -0.060735561093
    8          0.270477000000        -0.014695469714
    9          0.123896000000        -0.000702638471
   10          0.055823000000        -0.000240125719
   11        174.307000000000         0.000287985923
   12         11.504000000000         0.137124894598
   13          7.191760000000        -0.425625620135
   14          3.574980000000        -0.307123810033
   15          2.130780000000         0.900810985830
   16          1.089220000000         1.580562294280
   17          0.558637000000         1.085514632031
   18          0.270477000000        -0.977650844602
   19          0.123896000000        -3.687187452008
   20          0.055823000000        -4.164720338492
   21        174.307000000000        -0.000338017700
   22         11.504000000000        -0.159505556130
   23          7.191760000000         0.494863424639
   24          3.574980000000         0.391862233888
   25          2.130780000000        -1.134559113096
   26          1.089220000000        -2.058644037529
   27          0.558637000000        -0.795920810552
   28          0.270477000000         2.561292951387
   29          0.123896000000         3.244864443121
   30          0.055823000000         0.835341430128
   31        174.307000000000         0.000118526972
   32         11.504000000000         0.052132829573
   33          7.191760000000        -0.162784130531
   34          3.574980000000        -0.183242736756
   35          2.130780000000         0.561918500293
   36          1.089220000000         0.865274590603
   37          0.558637000000        -0.832580188510
   38          0.270477000000        -1.108530085590
   39          0.123896000000         0.798901588996
   40          0.055823000000         0.490247765304
   41        174.307000000000        -0.000043300521
   42         11.504000000000        -0.010910345935
   43          7.191760000000         0.033189157317
   44          3.574980000000         0.113071345964
   45          2.130780000000        -0.372968873215
   46          1.089220000000         0.070916209342
   47          0.558637000000         0.425573984594
   48          0.270477000000        -0.396086848713
   49          0.123896000000         0.013469753195
   50          0.055823000000         0.132604211433
   51          0.024842000000         3.052845174974
   52          0.011100000000        -1.182501601113
 D 104
    1       7269.890000000000        -0.000000000000
    2       1087.840000000000        -0.000000000002
    3        241.787000000000        -0.000000000029
    4         35.452500000000        -0.000000005575
    5         22.141500000000         0.000000065007
    6         13.829200000000        -0.000000303902
    7          5.132130000000         0.000002004058
    8          3.170590000000         0.000001829630
    9          1.494870000000        -0.000008069454
   10          0.800530000000        -0.000018091187
   11          0.411638000000        -0.000011834715
   12          0.142417000000        -0.000001789365
   13       7269.890000000000        -0.000000000001
   14       1087.840000000000        -0.000000000043
   15        241.787000000000        -0.000000000830
   16         35.452500000000        -0.000000133314
   17         22.141500000000         0.000001610733
   18         13.829200000000        -0.000007881082
   19          5.132130000000         0.000059178976
   20          3.170590000000         0.000041267205
   21          1.494870000000        -0.000258277010
   22          0.800530000000        -0.000757794467
   23          0.411638000000        -0.000803103962
   24          0.142417000000         0.004421701944
   25          0.063563000000         0.018769863239
   26       7269.890000000000        -0.000000000003
   27       1087.840000000000        -0.000000000188
   28        241.787000000000        -0.000000002262
   29         35.452500000000        -0.000000741973
   30         22.141500000000         0.000007352077
   31         13.829200000000        -0.000032225780
   32          5.132130000000         0.000253842002
   33          3.170590000000         0.000077802448
   34          1.494870000000        -0.000935115112
   35          0.800530000000        -0.005713587988
   36          0.411638000000         0.009715472953
   37          0.142417000000         0.031061396156
   38          0.063563000000        -0.049437223128
   39       7269.890000000000         0.000000000003
   40       1087.840000000000         0.000000000132
   41        241.787000000000         0.000000002557
   42         35.452500000000         0.000000368910
   43         22.141500000000        -0.000004507624
   44         13.829200000000         0.000022999631
   45          5.132130000000        -0.000191335903
   46          3.170590000000        -0.000216298578
   47          1.494870000000         0.002513211065
   48          0.800530000000         0.000929147027
   49          0.411638000000        -0.014220914239
   50          0.142417000000         0.029326083064
   51          0.063563000000         0.004028781973
   52       7269.890000000000        -0.000000000001
   53       1087.840000000000        -0.000000000088
   54        241.787000000000        -0.000000000723
   55         35.452500000000        -0.000000377464
   56         22.141500000000         0.000003431972
   57         13.829200000000        -0.000014599027
   58          5.132130000000         0.000142560448
   59          3.170590000000         0.000021104861
   60          1.494870000000        -0.002413271665
   61          0.800530000000         0.006374002789
   62          0.411638000000        -0.006059752459
   63          0.142417000000        -0.003404944469
   64          0.063563000000         0.025287620286
   65          0.028296000000        -0.230693124190
   66          0.012600000000         0.304162927793
   67         75.375100000000         0.000072172890
   68         19.890100000000         0.000835601488
   69          7.879240000000        -0.007486331617
   70          2.908340000000         0.031296562999
   71          1.638830000000         0.090748565301
   72          0.875730000000         0.127144542664
   73          0.450483000000         0.122307356416
   74          0.222770000000         0.086266629929
   75          0.105342000000         0.039999007522
   76         75.375100000000        -0.000092376093
   77         19.890100000000        -0.000949243941
   78          7.879240000000         0.008840801002
   79          2.908340000000        -0.039637987098
   80          1.638830000000        -0.130333556790
   81          0.875730000000        -0.151036266375
   82          0.450483000000        -0.000965170843
   83          0.222770000000         0.183093498692
   84          0.105342000000         0.206745872302
   85         75.375100000000         0.000093644149
   86         19.890100000000         0.000842269773
   87          7.879240000000        -0.008429556266
   88          2.908340000000         0.048958480811
   89          1.638830000000         0.153836236362
   90          0.875730000000         0.019194676772
   91          0.450483000000        -0.210687995816
   92          0.222770000000        -0.079567456285
   93          0.105342000000         0.142699968469
   94         75.375100000000        -0.000017129443
   95         19.890100000000        -0.000685460194
   96          7.879240000000         0.005803588057
   97          2.908340000000        -0.041804130547
   98          1.638830000000        -0.075279115045
   99          0.875730000000         0.122933139632
  100          0.450483000000         0.032667171121
  101          0.222770000000        -0.115040417980
  102          0.105342000000         0.016414150425
  103          0.046455000000        -1.894574765150
  104          0.020500000000         1.030105514055
 P 52
    1        174.307000000000        -0.000011843862
    2         11.504000000000        -0.006208714181
    3          7.191760000000         0.018514603252
    4          3.574980000000         0.014837946079
    5          2.130780000000        -0.036194271628
    6          1.089220000000        -0.057970651869
    7          0.558637000000        -0.037402575673
    8          0.270477000000        -0.009049861534
    9          0.123896000000        -0.000432703479
   10          0.055823000000        -0.000147875812
   11        174.307000000000         0.000510296374
   12         11.504000000000         0.242978323073
   13          7.191760000000        -0.754186901952
   14          3.574980000000        -0.544207735264
   15          2.130780000000         1.596191146650
   16          1.089220000000         2.800675813844
   17          0.558637000000         1.923476592164
   18          0.270477000000        -1.732347459364
   19          0.123896000000        -6.533508204846
   20          0.055823000000        -7.379672136715
   21        174.307000000000        -0.000764340356
   22         11.504000000000        -0.360680915934
   23          7.191760000000         1.119006745539
   24          3.574980000000         0.886095963473
   25          2.130780000000        -2.565514518864
   26          1.089220000000        -4.655095628331
   27          0.558637000000        -1.799770828835
   28          0.270477000000         5.791707261439
   29          0.123896000000         7.337428913562
   30          0.055823000000         1.888910452056
   31        174.307000000000         0.000308202512
   32         11.504000000000         0.135559600715
   33          7.191760000000        -0.423283215548
   34          3.574980000000        -0.476481181471
   35          2.130780000000         1.461141629131
   36          1.089220000000         2.249950347425
   37          0.558637000000        -2.164935969159
   38          0.270477000000        -2.882481097087
   39          0.123896000000         2.077362408696
   40          0.055823000000         1.274778136153
   41        174.307000000000        -0.000119042715
   42         11.504000000000        -0.029994955801
   43          7.191760000000         0.091244339336
   44          3.574980000000         0.310858156526
   45          2.130780000000        -1.025373982959
   46          1.089220000000         0.194964355611
   47          0.558637000000         1.169997077411
   48          0.270477000000        -1.088930414385
   49          0.123896000000         0.037031332840
   50          0.055823000000         0.364558326978
   51          0.024842000000         2.360743666112
   52          0.011100000000        -0.747228829659
 D 104
    1       7269.890000000000         0.000000000001
    2       1087.840000000000         0.000000000028
    3        241.787000000000         0.000000000495
    4         35.452500000000         0.000000094795
    5         22.141500000000        -0.000001105337
    6         13.829200000000         0.000005167344
    7          5.132130000000        -0.000034075650
    8          3.170590000000        -0.000031109795
    9          1.494870000000         0.000137207519
   10          0.800530000000         0.000307610267
   11          0.411638000000         0.000201229463
   12          0.142417000000         0.000030425140
   13       7269.890000000000         0.000000000001
   14       1087.840000000000         0.000000000056
   15        241.787000000000         0.000000001070
   16         35.452500000000         0.000000171910
   17         22.141500000000        -0.000002077061
   18         13.829200000000         0.000010162754
   19          5.132130000000        -0.000076312025
   20          3.170590000000        -0.000053214574
   21          1.494870000000         0.000333051415
   22          0.800530000000         0.000977185386
   23          0.411638000000         0.001035612543
   24          0.142417000000        -0.005701839624
   25          0.063563000000        -0.024203971980
   26       7269.890000000000         0.000000000002
   27       1087.840000000000         0.000000000108
   28        241.787000000000         0.000000001297
   29         35.452500000000         0.000000425360
   30         22.141500000000        -0.000004214815
   31         13.829200000000         0.000018474465
   32          5.132130000000        -0.000145523097
   33          3.170590000000        -0.000044602757
   34          1.494870000000         0.000536084833
   35          0.800530000000         0.003275498199
   36          0.411638000000        -0.005569707550
   37          0.142417000000        -0.017806945018
   38          0.063563000000         0.028341479232
   39       7269.890000000000         0.000000000000
   40       1087.840000000000         0.000000000015
   41        241.787000000000         0.000000000298
   42         35.452500000000         0.000000042986
   43         22.141500000000        -0.000000525238
   44         13.829200000000         0.000002679968
   45          5.132130000000        -0.000022294888
   46          3.170590000000        -0.000025203595
   47          1.494870000000         0.000292844982
   48          0.800530000000         0.000108266293
[...]
  BAS[ATNO][ 16].a[100] =         0.450483000000;     BAS[ATNO][ 16].d[100] =         0.535640677091;
  BAS[ATNO][ 16].a[101] =         0.222770000000;     BAS[ATNO][ 16].d[101] =        -1.886307423188;
  BAS[ATNO][ 16].a[102] =         0.105342000000;     BAS[ATNO][ 16].d[102] =         0.269141353414;
  BAS[ATNO][ 16].a[103] =         0.046455000000;     BAS[ATNO][ 16].d[103] =        -0.740172724433;
  BAS[ATNO][ 16].a[104] =         0.020500000000;     BAS[ATNO][ 16].d[104] =         0.255292601794;

  // Basis function  18 L = s
  InitBFNGauss(BAS[ATNO][ 17]);
  BAS[ATNO][ 17].l  = 0;
  BAS[ATNO][ 17].ng = 105;
  BAS[ATNO][ 17].a[  0] =      7269.890000000000;     BAS[ATNO][ 17].d[  0] =        -0.000052431926;
  BAS[ATNO][ 17].a[  1] =      1087.840000000000;     BAS[ATNO][ 17].d[  1] =        -0.000371789631;
  BAS[ATNO][ 17].a[  2] =       241.787000000000;     BAS[ATNO][ 17].d[  2] =        -0.001482390945;
  BAS[ATNO][ 17].a[  3] =        35.452500000000;     BAS[ATNO][ 17].d[  3] =        -0.041630880638;
  BAS[ATNO][ 17].a[  4] =        22.141500000000;     BAS[ATNO][ 17].d[  4] =         0.303170428177;
  BAS[ATNO][ 17].a[  5] =        13.829200000000;     BAS[ATNO][ 17].d[  5] =        -0.885216276789;
  BAS[ATNO][ 17].a[  6] =         5.132130000000;     BAS[ATNO][ 17].d[  6] =         2.166340606039;
  BAS[ATNO][ 17].a[  7] =         3.170590000000;     BAS[ATNO][ 17].d[  7] =         1.221862051139;
  BAS[ATNO][ 17].a[  8] =         1.494870000000;     BAS[ATNO][ 17].d[  8] =        -2.540775437223;
  BAS[ATNO][ 17].a[  9] =         0.800530000000;     BAS[ATNO][ 17].d[  9] =        -3.050446281514;
  BAS[ATNO][ 17].a[ 10] =         0.411638000000;     BAS[ATNO][ 17].d[ 10] =        -1.026105395602;
  BAS[ATNO][ 17].a[ 11] =         0.142417000000;     BAS[ATNO][ 17].d[ 11] =        -0.053675903732;
  BAS[ATNO][ 17].a[ 12] =         0.063563000000;     BAS[ATNO][ 17].d[ 12] =         0.000452820356;
  BAS[ATNO][ 17].a[ 13] =      7269.890000000000;     BAS[ATNO][ 17].d[ 13] =         0.000063076064;
  BAS[ATNO][ 17].a[ 14] =      1087.840000000000;     BAS[ATNO][ 17].d[ 14] =         0.000394227278;
  BAS[ATNO][ 17].a[ 15] =       241.787000000000;     BAS[ATNO][ 17].d[ 15] =         0.001671521958;
  BAS[ATNO][ 17].a[ 16] =        35.452500000000;     BAS[ATNO][ 17].d[ 16] =         0.039375367601;
  BAS[ATNO][ 17].a[ 17] =        22.141500000000;     BAS[ATNO][ 17].d[ 17] =        -0.297120814038;
  BAS[ATNO][ 17].a[ 18] =        13.829200000000;     BAS[ATNO][ 17].d[ 18] =         0.907998809732;
  BAS[ATNO][ 17].a[ 19] =         5.132130000000;     BAS[ATNO][ 17].d[ 19] =        -2.530273408167;
  BAS[ATNO][ 17].a[ 20] =         3.170590000000;     BAS[ATNO][ 17].d[ 20] =        -1.090052721343;
  BAS[ATNO][ 17].a[ 21] =         1.494870000000;     BAS[ATNO][ 17].d[ 21] =         3.216559096398;
  BAS[ATNO][ 17].a[ 22] =         0.800530000000;     BAS[ATNO][ 17].d[ 22] =         5.053955343849;
  BAS[ATNO][ 17].a[ 23] =         0.411638000000;     BAS[ATNO][ 17].d[ 23] =         2.754162661391;
  BAS[ATNO][ 17].a[ 24] =         0.142417000000;     BAS[ATNO][ 17].d[ 24] =        -5.246306457353;
  BAS[ATNO][ 17].a[ 25] =         0.063563000000;     BAS[ATNO][ 17].d[ 25] =        -9.939575867603;
  BAS[ATNO][ 17].a[ 26] =      7269.890000000000;     BAS[ATNO][ 17].d[ 26] =        -0.000040505390;
  BAS[ATNO][ 17].a[ 27] =      1087.840000000000;     BAS[ATNO][ 17].d[ 27] =        -0.000376122566;
  BAS[ATNO][ 17].a[ 28] =       241.787000000000;     BAS[ATNO][ 17].d[ 28] =        -0.001006850443;
  BAS[ATNO][ 17].a[ 29] =        35.452500000000;     BAS[ATNO][ 17].d[ 29] =        -0.048421417499;
  BAS[ATNO][ 17].a[ 30] =        22.141500000000;     BAS[ATNO][ 17].d[ 30] =         0.299653813565;
  BAS[ATNO][ 17].a[ 31] =        13.829200000000;     BAS[ATNO][ 17].d[ 31] =        -0.820357648786;
  BAS[ATNO][ 17].a[ 32] =         5.132130000000;     BAS[ATNO][ 17].d[ 32] =         2.398081125514;
  BAS[ATNO][ 17].a[ 33] =         3.170590000000;     BAS[ATNO][ 17].d[ 33] =         0.454083880023;
  BAS[ATNO][ 17].a[ 34] =         1.494870000000;     BAS[ATNO][ 17].d[ 34] =        -2.573186350388;
  BAS[ATNO][ 17].a[ 35] =         0.800530000000;     BAS[ATNO][ 17].d[ 35] =        -8.419557534594;
  BAS[ATNO][ 17].a[ 36] =         0.411638000000;     BAS[ATNO][ 17].d[ 36] =         7.361768288500;
  BAS[ATNO][ 17].a[ 37] =         0.142417000000;     BAS[ATNO][ 17].d[ 37] =         8.143020781799;
  BAS[ATNO][ 17].a[ 38] =         0.063563000000;     BAS[ATNO][ 17].d[ 38] =        -5.784438293249;
  BAS[ATNO][ 17].a[ 39] =      7269.890000000000;     BAS[ATNO][ 17].d[ 39] =         0.000040406461;
  BAS[ATNO][ 17].a[ 40] =      1087.840000000000;     BAS[ATNO][ 17].d[ 40] =         0.000282845665;
  BAS[ATNO][ 17].a[ 41] =       241.787000000000;     BAS[ATNO][ 17].d[ 41] =         0.001218929844;
  BAS[ATNO][ 17].a[ 42] =        35.452500000000;     BAS[ATNO][ 17].d[ 42] =         0.025786092251;
  BAS[ATNO][ 17].a[ 43] =        22.141500000000;     BAS[ATNO][ 17].d[ 43] =        -0.196776371555;
  BAS[ATNO][ 17].a[ 44] =        13.829200000000;     BAS[ATNO][ 17].d[ 44] =         0.627099044915;
  BAS[ATNO][ 17].a[ 45] =         5.132130000000;     BAS[ATNO][ 17].d[ 45] =        -1.936031129634;
  BAS[ATNO][ 17].a[ 46] =         3.170590000000;     BAS[ATNO][ 17].d[ 46] =        -1.352109815577;
  BAS[ATNO][ 17].a[ 47] =         1.494870000000;     BAS[ATNO][ 17].d[ 47] =         7.407140899125;
  BAS[ATNO][ 17].a[ 48] =         0.800530000000;     BAS[ATNO][ 17].d[ 48] =         1.466493931193;
  BAS[ATNO][ 17].a[ 49] =         0.411638000000;     BAS[ATNO][ 17].d[ 49] =       -11.541471759511;
  BAS[ATNO][ 17].a[ 50] =         0.142417000000;     BAS[ATNO][ 17].d[ 50] =         8.234440767976;
  BAS[ATNO][ 17].a[ 51] =         0.063563000000;     BAS[ATNO][ 17].d[ 51] =         0.504889533896;
  BAS[ATNO][ 17].a[ 52] =      7269.890000000000;     BAS[ATNO][ 17].d[ 52] =        -0.000032249171;
  BAS[ATNO][ 17].a[ 53] =      1087.840000000000;     BAS[ATNO][ 17].d[ 53] =        -0.000364820914;
  BAS[ATNO][ 17].a[ 54] =       241.787000000000;     BAS[ATNO][ 17].d[ 54] =        -0.000669174128;
  BAS[ATNO][ 17].a[ 55] =        35.452500000000;     BAS[ATNO][ 17].d[ 55] =        -0.051254295384;
  BAS[ATNO][ 17].a[ 56] =        22.141500000000;     BAS[ATNO][ 17].d[ 56] =         0.291044338071;
  BAS[ATNO][ 17].a[ 57] =        13.829200000000;     BAS[ATNO][ 17].d[ 57] =        -0.773266854459;
  BAS[ATNO][ 17].a[ 58] =         5.132130000000;     BAS[ATNO][ 17].d[ 58] =         2.802238747960;
  BAS[ATNO][ 17].a[ 59] =         3.170590000000;     BAS[ATNO][ 17].d[ 59] =         0.256289616625;
  BAS[ATNO][ 17].a[ 60] =         1.494870000000;     BAS[ATNO][ 17].d[ 60] =       -13.817137306643;
  BAS[ATNO][ 17].a[ 61] =         0.800530000000;     BAS[ATNO][ 17].d[ 61] =        19.543317803085;
  BAS[ATNO][ 17].a[ 62] =         0.411638000000;     BAS[ATNO][ 17].d[ 62] =        -9.553857876633;
  BAS[ATNO][ 17].a[ 63] =         0.142417000000;     BAS[ATNO][ 17].d[ 63] =        -1.857292478152;
  BAS[ATNO][ 17].a[ 64] =         0.063563000000;     BAS[ATNO][ 17].d[ 64] =         6.156314266013;
  BAS[ATNO][ 17].a[ 65] =         0.028296000000;     BAS[ATNO][ 17].d[ 65] =         5.906291966849;
  BAS[ATNO][ 17].a[ 66] =         0.012600000000;     BAS[ATNO][ 17].d[ 66] =        -1.966304807340;
  BAS[ATNO][ 17].a[ 67] =        75.375100000000;     BAS[ATNO][ 17].d[ 67] =        -0.000031494999;
  BAS[ATNO][ 17].a[ 68] =        19.890100000000;     BAS[ATNO][ 17].d[ 68] =        -0.000096222309;
  BAS[ATNO][ 17].a[ 69] =         7.879240000000;     BAS[ATNO][ 17].d[ 69] =         0.000341501796;
  BAS[ATNO][ 17].a[ 70] =         2.908340000000;     BAS[ATNO][ 17].d[ 70] =        -0.000526964579;
  BAS[ATNO][ 17].a[ 71] =         1.638830000000;     BAS[ATNO][ 17].d[ 71] =        -0.000861020072;
  BAS[ATNO][ 17].a[ 72] =         0.875730000000;     BAS[ATNO][ 17].d[ 72] =        -0.000644625608;
  BAS[ATNO][ 17].a[ 73] =         0.450483000000;     BAS[ATNO][ 17].d[ 73] =        -0.000318985240;
  BAS[ATNO][ 17].a[ 74] =         0.222770000000;     BAS[ATNO][ 17].d[ 74] =        -0.000111260022;
  BAS[ATNO][ 17].a[ 75] =         0.105342000000;     BAS[ATNO][ 17].d[ 75] =        -0.000024394413;
  BAS[ATNO][ 17].a[ 76] =        75.375100000000;     BAS[ATNO][ 17].d[ 76] =         0.000068486728;
  BAS[ATNO][ 17].a[ 77] =        19.890100000000;     BAS[ATNO][ 17].d[ 77] =         0.000185709332;
  BAS[ATNO][ 17].a[ 78] =         7.879240000000;     BAS[ATNO][ 17].d[ 78] =        -0.000685164528;
  BAS[ATNO][ 17].a[ 79] =         2.908340000000;     BAS[ATNO][ 17].d[ 79] =         0.001133902453;
  BAS[ATNO][ 17].a[ 80] =         1.638830000000;     BAS[ATNO][ 17].d[ 80] =         0.002100917890;
  BAS[ATNO][ 17].a[ 81] =         0.875730000000;     BAS[ATNO][ 17].d[ 81] =         0.001300979327;
  BAS[ATNO][ 17].a[ 82] =         0.450483000000;     BAS[ATNO][ 17].d[ 82] =         0.000004276629;
  BAS[ATNO][ 17].a[ 83] =         0.222770000000;     BAS[ATNO][ 17].d[ 83] =        -0.000401188573;
  BAS[ATNO][ 17].a[ 84] =         0.105342000000;     BAS[ATNO][ 17].d[ 84] =        -0.000214218677;
  BAS[ATNO][ 17].a[ 85] =        75.375100000000;     BAS[ATNO][ 17].d[ 85] =        -0.000115854287;
  BAS[ATNO][ 17].a[ 86] =        19.890100000000;     BAS[ATNO][ 17].d[ 86] =        -0.000274974069;
  BAS[ATNO][ 17].a[ 87] =         7.879240000000;     BAS[ATNO][ 17].d[ 87] =         0.001090165920;
  BAS[ATNO][ 17].a[ 88] =         2.908340000000;     BAS[ATNO][ 17].d[ 88] =        -0.002337096622;
  BAS[ATNO][ 17].a[ 89] =         1.638830000000;     BAS[ATNO][ 17].d[ 89] =        -0.004138053581;
  BAS[ATNO][ 17].a[ 90] =         0.875730000000;     BAS[ATNO][ 17].d[ 90] =        -0.000275901835;
  BAS[ATNO][ 17].a[ 91] =         0.450483000000;     BAS[ATNO][ 17].d[ 91] =         0.001557836075;
  BAS[ATNO][ 17].a[ 92] =         0.222770000000;     BAS[ATNO][ 17].d[ 92] =         0.000290934844;
  BAS[ATNO][ 17].a[ 93] =         0.105342000000;     BAS[ATNO][ 17].d[ 93] =        -0.000246733997;
  BAS[ATNO][ 17].a[ 94] =        75.375100000000;     BAS[ATNO][ 17].d[ 94] =         0.000056585240;
  BAS[ATNO][ 17].a[ 95] =        19.890100000000;     BAS[ATNO][ 17].d[ 95] =         0.000597518311;
  BAS[ATNO][ 17].a[ 96] =         7.879240000000;     BAS[ATNO][ 17].d[ 96] =        -0.002004070154;
  BAS[ATNO][ 17].a[ 97] =         2.908340000000;     BAS[ATNO][ 17].d[ 97] =         0.005328394661;
  BAS[ATNO][ 17].a[ 98] =         1.638830000000;     BAS[ATNO][ 17].d[ 98] =         0.005406801470;
  BAS[ATNO][ 17].a[ 99] =         0.875730000000;     BAS[ATNO][ 17].d[ 99] =        -0.004718144241;
  BAS[ATNO][ 17].a[100] =         0.450483000000;     BAS[ATNO][ 17].d[100] =        -0.000644943911;
  BAS[ATNO][ 17].a[101] =         0.222770000000;     BAS[ATNO][ 17].d[101] =         0.001123153639;
  BAS[ATNO][ 17].a[102] =         0.105342000000;     BAS[ATNO][ 17].d[102] =        -0.000075779543;
  BAS[ATNO][ 17].a[103] =         0.046455000000;     BAS[ATNO][ 17].d[103] =         0.000161669441;
  BAS[ATNO][ 17].a[104] =         0.020500000000;     BAS[ATNO][ 17].d[104] =        -0.000026747983;

-------------------------------------------
RADIAL EXPECTATION VALUES <R**-3> TO <R**3>
-------------------------------------------
   0 :     0.000000     1.233930     1.055259     1.046900     1.209481     1.540723
   1 :     1.307030     1.059500     0.971274     1.153570     1.489633     2.152177
   2 :     1.303934     1.057488     0.970150     1.155598     1.496118     2.169552
   3 :     1.303934     1.057488     0.970150     1.155598     1.496118     2.169552
   4 :     0.687925     0.642866     0.728416     1.670822     3.408874    42.373988
   5 :     0.704011     0.655976     0.737896     1.636281     3.237744    38.276470
   6 :     0.704209     0.655795     0.737810     1.636305     3.237078    38.601931
   7 :     0.000000     0.166544     0.346655     3.479663    14.031029    64.457795
   8 :     0.000000     0.017632     0.111400    10.136298   110.090177  1263.876213
   9 :     0.000000     0.119107     0.257920     5.671701    43.143546   416.712942
  10 :     0.000000     0.318410     0.462517     3.521291    21.750177   207.712024
  11 :     0.000000     1.345635     0.888043     2.706088    18.676041   202.800522
  12 :     0.704209     0.655795     0.737810     1.636305     3.237078    38.601931
  13 :     0.697579     0.650686     0.734204     1.648861     3.298017    39.906770
  14 :     0.004229     0.014984     0.106091    10.968371   132.906913  1733.893642
  15 :     0.003706     0.013977     0.103425    11.135371   136.200098  1787.757371
  16 :     0.003706     0.013977     0.103425    11.135371   136.200098  1787.757371
  17 :     0.019161     0.040230     0.162876     8.557764    95.604116  1272.752510
  18 :     0.002761     0.012927     0.106506     9.975135   104.416591  5707.650578
  19 :     0.002774     0.012923     0.106454     9.979313   104.492457  5713.749443
  20 :     0.002774     0.012923     0.106454     9.979313   104.492457  5713.749443
  21 :     0.003229     0.013283     0.106700     9.981953   104.564846  5719.718948
  22 :     0.002819     0.012918     0.106298     9.992225   104.728531  5730.759868
  23 :     0.018360     0.039286     0.161921     8.506920    94.107462  1244.075462
  24 :     0.018360     0.039286     0.161921     8.506920    94.107462  1244.075462
  25 :     0.045737     0.069649     0.207757     6.977532    65.718071   771.367362
  26 :     0.045939     0.070143     0.209206     6.903387    64.450779   752.619629
  27 :     0.045939     0.070143     0.209206     6.903387    64.450779   752.619629
  28 :     0.022522     0.043565     0.174313     6.904084    56.011505  2653.001921
  29 :     0.022753     0.043689     0.174358     6.904301    55.999279  2651.447179
  30 :     0.022753     0.043689     0.174358     6.904301    55.999279  2651.447179
  31 :     0.027152     0.047399     0.177445     6.880565    55.764881  2639.477594
  32 :     0.023270     0.044076     0.174532     6.904288    55.957318  2646.070655
  33 :     0.131645     0.151135     0.304436     4.867978    34.211848   333.124004
  34 :     0.133055     0.152388     0.305920     4.838415    33.819939   328.204008
  35 :     0.133055     0.152388     0.305920     4.838415    33.819939   328.204008
  36 :     0.153571     0.164321     0.313731     4.479942    26.692209  1043.141681
  37 :     0.154541     0.165010     0.314277     4.474954    26.635237  1040.033324
  38 :     0.154541     0.165010     0.314277     4.474954    26.635237  1040.033324
  39 :     0.166723     0.173947     0.320330     4.458425    26.593955  1041.031193
  40 :     0.157113     0.167044     0.315907     4.459789    26.462463  1030.608959
  41 :     0.331246     0.331982     0.477135     3.151502    16.118616   134.533125
  42 :     0.332994     0.333497     0.478469     3.139748    15.999635   133.255910
  43 :     0.332994     0.333497     0.478469     3.139748    15.999635   133.255910
  44 :     0.415403     0.408900     0.536820     2.766332    11.937569   399.838751
  45 :     0.416434     0.409564     0.537330     2.763473    11.914127   398.892672
  46 :     0.416434     0.409564     0.537330     2.763473    11.914127   398.892672
  47 :     0.420904     0.412403     0.538755     2.764561    11.940185   400.091222
  48 :     0.418738     0.411508     0.538835     2.754978    11.845204   395.937410
  49 :     1.619903     1.074041     0.884077     1.852522     7.029593    54.661458
  50 :     1.620963     1.074745     0.884554     1.849801     7.004759    54.402346
  51 :     1.620963     1.074745     0.884554     1.849801     7.004759    54.402346
  52 :     2.095601     1.297549     0.982252     1.647412     5.426660   172.657390
  53 :     2.097230     1.297741     0.982438     1.646357     5.416434   172.464296
  54 :     2.097230     1.297741     0.982438     1.646357     5.416434   172.464296
  55 :     2.098421     1.298489     0.982890     1.644564     5.403078   171.905182
  56 :     2.092007     1.294823     0.981021     1.648376     5.421871   172.495899
  57 :     0.000000     3.123854     0.867349     4.701151    41.867196   481.015968
Making the total density                ... o.k.
o.k.
Initializing the integrals              ... done
Making exponents                        ... done
Making rho(0)                           ... done (         0.005137604)
Integral calculation                    ... Two index integrals                     ... done
Solving the equation system             ... done
atomic density will be written to file 44_Ru_atom44.adf

-------
TIMINGS
-------

Total SCF time: 0 days 0 hours 0 min 2 sec 

Total time                  ....       2.609 sec
Sum of individual times     ....       1.523 sec  ( 58.4%)

Fock matrix formation       ....       1.473 sec  ( 56.5%)
Diagonalization             ....       0.039 sec  (  1.5%)
Density matrix formation    ....       0.002 sec  (  0.1%)
Population analysis         ....       0.000 sec  (  0.0%)
Initial guess               ....       0.000 sec  (  0.0%)
Orbital Transformation      ....       0.000 sec  (  0.0%)
Orbital Orthonormalization  ....       0.000 sec  (  0.0%)
DIIS solution               ....       0.008 sec  (  0.3%)

-------------------------   --------------------
FINAL SINGLE POINT ENERGY       -93.780942849058
-------------------------   --------------------


                            ***************************************
                            *     ORCA property calculations      *
                            ***************************************

                                    ---------------------
                                    Active property flags
                                    ---------------------
   (+) Dipole Moment


------------------------------------------------------------------------------
                       ORCA ELECTRIC PROPERTIES CALCULATION
------------------------------------------------------------------------------

Dipole Moment Calculation                       ... on
Quadrupole Moment Calculation                   ... off
Polarizability Calculation                      ... off
GBWName                                         ... 44_Ru_atom44.gbw
Electron density file                           ... 44_Ru_atom44.scfp
The origin for moment calculation is the CENTER OF MASS  = ( 0.000000,  0.000000  0.000000)

-------------
DIPOLE MOMENT
-------------
                                X             Y             Z
Electronic contribution:      0.00000      -0.00000       0.00000
Nuclear contribution   :      0.00000       0.00000       0.00000
                        -----------------------------------------
Total Dipole Moment    :      0.00000      -0.00000       0.00000
                        -----------------------------------------
Magnitude (a.u.)       :      0.00000
Magnitude (Debye)      :      0.00000



--------------------
Rotational spectrum 
--------------------
 
Rotational constants in cm-1:     0.000000     0.000000     0.000000 
Rotational constants in MHz :     0.000000     0.000000     0.000000 

 Dipole components along the rotational axes: 
x,y,z [a.u.] :     0.000000    -0.000000     0.000000 
x,y,z [Debye]:     0.000000    -0.000000     0.000000 

 

Timings for individual modules:

Sum of individual times         ...       29.212 sec (=   0.487 min)
GTO integral calculation        ...       26.586 sec (=   0.443 min)  91.0 %
SCF iterations                  ...        2.626 sec (=   0.044 min)   9.0 %
                             ****ORCA TERMINATED NORMALLY****
TOTAL RUN TIME: 0 days 0 hours 0 minutes 29 seconds 368 msec
