
                                 *****************
                                 * O   R   C   A *
                                 *****************

           --- An Ab Initio, DFT and Semiempirical electronic structure package ---

                  #######################################################
                  #                        -***-                        #
                  #          Department of theory and spectroscopy      #
                  #               Directorship: Frank Neese             #
                  #        Max Planck Institute fuer Kohlenforschung    #
                  #                Kaiser Wilhelm Platz 1               #
                  #                 D-45470 Muelheim/Ruhr               #
                  #                      Germany                        #
                  #                                                     #
                  #                  All rights reserved                #
                  #                        -***-                        #
                  #######################################################


                         Program Version 4.2.0 -  RELEASE  -


 With contributions from (in alphabetic order):
   Daniel Aravena         : Magnetic Suceptibility
   Michael Atanasov       : Ab Initio Ligand Field Theory (pilot matlab implementation)
   Alexander A. Auer      : GIAO ZORA, VPT2
   Ute Becker             : Parallelization
   Giovanni Bistoni       : ED, misc. LED, open-shell LED, HFLED
   Martin Brehm           : Molecular dynamics
   Dmytro Bykov           : SCF Hessian
   Vijay G. Chilkuri      : MRCI spin determinant printing, contributions to CSF-ICE
   Dipayan Datta          : RHF DLPNO-CCSD density
   Achintya Kumar Dutta   : EOM-CC, STEOM-CC
   Dmitry Ganyushin       : Spin-Orbit,Spin-Spin,Magnetic field MRCI
   Miquel Garcia          : C-PCM Hessian, Gaussian charge scheme
   Yang Guo               : DLPNO-NEVPT2, CIM, IAO-localization
   Andreas Hansen         : Spin unrestricted coupled pair/coupled cluster methods
   Benjamin Helmich-Paris : CASSCF linear response (MC-RPA)
   Lee Huntington         : MR-EOM, pCC
   Robert Izsak           : Overlap fitted RIJCOSX, COSX-SCS-MP3, EOM
   Christian Kollmar      : KDIIS, OOCD, Brueckner-CCSD(T), CCSD density
   Simone Kossmann        : Meta GGA functionals, TD-DFT gradient, OOMP2, MP2 Hessian
   Martin Krupicka        : AUTO-CI
   Lucas Lang             : DCDCAS
   Dagmar Lenk            : GEPOL surface, SMD
   Dimitrios Liakos       : Extrapolation schemes; Compound Job, initial MDCI parallelization
   Dimitrios Manganas     : Further ROCIS development; embedding schemes
   Dimitrios Pantazis     : SARC Basis sets
   Taras Petrenko         : DFT Hessian,TD-DFT gradient, ASA, ECA, R-Raman, ABS, FL, XAS/XES, NRVS
   Peter Pinski           : DLPNO-MP2, DLPNO-MP2 Gradient
   Christoph Reimann      : Effective Core Potentials
   Marius Retegan         : Local ZFS, SOC
   Christoph Riplinger    : Optimizer, TS searches, QM/MM, DLPNO-CCSD(T), (RO)-DLPNO pert. Triples
   Tobias Risthaus        : Range-separated hybrids, TD-DFT gradient, RPA, STAB
   Michael Roemelt        : Original ROCIS implementation
   Masaaki Saitow         : Open-shell DLPNO-CCSD energy and density
   Barbara Sandhoefer     : DKH picture change effects
   Avijit Sen             : IP-ROCIS
   Kantharuban Sivalingam : CASSCF convergence, NEVPT2, FIC-MRCI
   Bernardo de Souza      : ESD, SOC TD-DFT
   Georgi Stoychev        : AutoAux, RI-MP2 NMR
   Willem Van den Heuvel  : Paramagnetic NMR
   Boris Wezisla          : Elementary symmetry handling
   Frank Wennmohs         : Technical directorship


 We gratefully acknowledge several colleagues who have allowed us to
 interface, adapt or use parts of their codes:
   Stefan Grimme, W. Hujo, H. Kruse,             : VdW corrections, initial TS optimization,
                  C. Bannwarth                     DFT functionals, gCP, sTDA/sTD-DF
   Ed Valeev, F. Pavosevic, A. Kumar             : LibInt (2-el integral package), F12 methods
   Garnet Chan, S. Sharma, J. Yang, R. Olivares  : DMRG
   Ulf Ekstrom                                   : XCFun DFT Library
   Mihaly Kallay                                 : mrcc  (arbitrary order and MRCC methods)
   Andreas Klamt, Michael Diedenhofen            : otool_cosmo (COSMO solvation model)
   Jiri Pittner, Ondrej Demel                    : Mk-CCSD
   Frank Weinhold                                : gennbo (NPA and NBO analysis)
   Christopher J. Cramer and Donald G. Truhlar   : smd solvation model
   Lars Goerigk                                  : TD-DFT with DH, B97 family of functionals
   V. Asgeirsson, H. Jonsson                     : NEB implementation
   FAccTs GmbH                                   : IRC, NEB, NEB-TS, Multilevel, MM, QM/MM, CI optimization
   S Lehtola, MJT Oliveira, MAL Marques          : LibXC Library


 Your calculation uses the libint2 library for the computation of 2-el integrals
 For citations please refer to: http://libint.valeyev.net

 Your ORCA version has been built with support for libXC version: 4.2.3
 For citations please refer to: https://tddft.org/programs/libxc/

 This ORCA versions uses:
   CBLAS   interface :  Fast vector & matrix operations
   LAPACKE interface :  Fast linear algebra routines
   SCALAPACK package :  Parallel linear algebra routines


----- Orbital basis set information -----
Your calculation utilizes the basis: def2-SVP
   F. Weigend and R. Ahlrichs, Phys. Chem. Chem. Phys. 7, 3297 (2005).

----- AuxJ basis set information -----
Your calculation utilizes the auxiliary basis: def2/J
   F. Weigend, Phys. Chem. Chem. Phys. 8, 1057 (2006).

================================================================================
                                        WARNINGS
                       Please study these warnings very carefully!
================================================================================


INFO   : the flag for use of LIBINT has been found!

================================================================================
                                       INPUT FILE
================================================================================
NAME = 46_Pd_atom46.inp
|  1> # input to generate an atomic fitting density for Pd
|  2> # this file is use internally by ORCA
|  3> #
|  4> # atomic ground state (S=3): 1s2 2s2 2p6 3s2 3p6 4s2 3d10 4p6 5s2 4d8 
|  5> #
|  6> ! RHF AllowRHF def2-SVP def2/J  NoMulliken NoLoewdin NoMayer NoPrintMOs 
|  7> 
|  8> %output print[p_atomdensfit] 2 end
|  9> 
| 10> %scf
| 11>   guess hcore
| 12>   maxiter 1000
| 13>   maxdisk 500000
| 14>   SCFMode Conventional
| 15>   lshift 1.000000
| 16>   hftyp rohf
| 17>   rohf_case sahf
| 18>   rohf_numop   2
| 19>   rohf_norb[1] 5
| 20>   rohf_nel[1]  8
| 21> end
| 22> 
| 23> %basis
| 24>   NewECP 46
| 25>     N_core 28
| 26>     lmax g
| 27>     s 2
| 28>       1      12.7988250000    240.2627890000  2
| 29>       2       5.8005280000     34.7299610000  2
| 30>     p 4
| 31>       1      11.8746970000     56.7469290000  2
| 32>       2      11.4743350000    113.4444170000  2
| 33>       3       5.5159990000      9.3456390000  2
| 34>       4       5.2480430000     18.3454470000  2
| 35>     d 4
| 36>       1       8.5022120000     28.5955540000  2
| 37>       2       7.9833240000     43.4539210000  2
| 38>       3       3.1076280000      1.8522860000  2
| 39>       4       2.4767340000      1.4067650000  2
| 40>     f 2
| 41>       1       9.6795710000    -10.9872550000  2
| 42>       2       9.6913490000    -14.6261900000  2
| 43>     g 1
| 44>       1       1.0000000000      0.0000000000  2
| 45>   end
| 46>   NewGTO 46
| 47>     s 13 
| 48>      1    7844.8900000000      0.0000150053
| 49>      2    1169.5300000000      0.0001070378
| 50>      3     259.6440000000      0.0004121456
| 51>      4      39.2211000000      0.0098674863
| 52>      5      24.4934000000     -0.0719474198
| 53>      6      15.2969000000      0.2129082227
| 54>      7       6.0389600000     -0.4543805374
| 55>      8       3.7622800000     -0.2997268967
| 56>      9       1.8071000000      0.5047903477
| 57>     10       0.9743050000      0.6625110721
| 58>     11       0.4972030000      0.2407660652
| 59>     12       0.1620200000      0.0126504695
| 60>     13       0.0714600000     -0.0004721668
| 61>     s 13 
| 62>      1    7844.8900000000     -0.0000065045
| 63>      2    1169.5300000000     -0.0000429296
| 64>      3     259.6440000000     -0.0001756213
| 65>      4      39.2211000000     -0.0035332395
| 66>      5      24.4934000000      0.0266905281
| 67>      6      15.2969000000     -0.0828529047
| 68>      7       6.0389600000      0.2017927251
| 69>      8       3.7622800000      0.1041395017
| 70>      9       1.8071000000     -0.2427085749
| 71>     10       0.9743050000     -0.3974230955
| 72>     11       0.4972030000     -0.2358645496
| 73>     12       0.1620200000      0.3954392258
| 74>     13       0.0714600000      0.8036480682
| 75>     s 13 
| 76>      1    7844.8900000000     -0.0000102499
| 77>      2    1169.5300000000     -0.0000860989
| 78>      3     259.6440000000     -0.0002357471
| 79>      4      39.2211000000     -0.0093007366
| 80>      5      24.4934000000      0.0577467706
| 81>      6      15.2969000000     -0.1602188707
| 82>      7       6.0389600000      0.4042212445
| 83>      8       3.7622800000      0.1214517936
| 84>      9       1.8071000000     -0.4008869602
| 85>     10       0.9743050000     -1.4317004867
| 86>     11       0.4972030000      1.1286383334
| 87>     12       0.1620200000      1.3456589362
| 88>     13       0.0714600000     -0.6740625281
| 89>     s 13 
| 90>      1    7844.8900000000      0.0000095044
| 91>      2    1169.5300000000      0.0000712830
| 92>      3     259.6440000000      0.0002756275
| 93>      4      39.2211000000      0.0061303352
| 94>      5      24.4934000000     -0.0437297242
| 95>      6      15.2969000000      0.1348198517
| 96>      7       6.0389600000     -0.3279159050
| 97>      8       3.7622800000     -0.3410129621
| 98>      9       1.8071000000      1.2116108473
| 99>     10       0.9743050000      0.6899858555
|100>     11       0.4972030000     -2.2086171941
|101>     12       0.1620200000      1.0665690182
|102>     13       0.0714600000      0.6138651511
|103>     s 13 
|104>      1    7844.8900000000     -0.0000099790
|105>      2    1169.5300000000     -0.0000725139
|106>      3     259.6440000000     -0.0002714281
|107>      4      39.2211000000     -0.0060392749
|108>      5      24.4934000000      0.0431111626
|109>      6      15.2969000000     -0.1329951060
|110>      7       6.0389600000      0.3237771187
|111>      8       3.7622800000      0.3367225088
|112>      9       1.8071000000     -1.2013699864
|113>     10       0.9743050000     -0.6691826652
|114>     11       0.4972030000      2.1734311381
|115>     12       0.1620200000     -1.0487362600
|116>     13       0.0714600000     -0.6242174092
|117>     s 1 
|118>      1       0.0313100000      1.0000000000
|119>     s 1 
|120>      1       0.0137000000      1.0000000000
|121>     p 10 
|122>      1      98.8243000000      0.0003180026
|123>      2      27.9859000000     -0.0046710380
|124>      3      17.4873000000      0.0292412381
|125>      4       6.7863800000     -0.1992836230
|126>      5       1.9878800000      0.4101423402
|127>      6       1.0657300000      0.4471476416
|128>      7       0.5838290000      0.2362229238
|129>      8       0.3146360000      0.0624695088
|130>      9       0.1357370000      0.0060750495
|131>     10       0.0602770000     -0.0000850007
|132>     p 10 
|133>      1      98.8243000000     -0.0000575496
|134>      2      27.9859000000      0.0007650714
|135>      3      17.4873000000     -0.0075367432
|136>      4       6.7863800000      0.0614031863
|137>      5       1.9878800000     -0.1559504392
|138>      6       1.0657300000     -0.1591077692
|139>      7       0.5838290000     -0.1140509315
|140>      8       0.3146360000      0.1428505662
|141>      9       0.1357370000      0.4752018707
|142>     10       0.0602770000      0.5328835150
|143>     p 10 
|144>      1      98.8243000000     -0.0001664593
|145>      2      27.9859000000      0.0022722701
|146>      3      17.4873000000     -0.0161625990
|147>      4       6.7863800000      0.1222904477
|148>      5       1.9878800000     -0.3413208391
|149>      6       1.0657300000     -0.3290890869
|150>      7       0.5838290000     -0.0331434559
|151>      8       0.3146360000      0.5503135326
|152>      9       0.1357370000      0.5346974416
|153>     10       0.0602770000      0.0997091369
|154>     p 10 
|155>      1      98.8243000000      0.0004187755
|156>      2      27.9859000000     -0.0058808478
|157>      3      17.4873000000      0.0316830175
|158>      4       6.7863800000     -0.2239199760
|159>      5       1.9878800000      0.8652322242
|160>      6       1.0657300000      0.3450950246
|161>      7       0.5838290000     -0.9926399320
|162>      8       0.3146360000     -0.6771890178
|163>      9       0.1357370000      0.7727697853
|164>     10       0.0602770000      0.3763292826
|165>     p 10 
|166>      1      98.8243000000      0.0000088925
|167>      2      27.9859000000     -0.0013081831
|168>      3      17.4873000000      0.0367595505
|169>      4       6.7863800000     -0.3836079038
|170>      5       1.9878800000      2.6068937741
|171>      6       1.0657300000     -2.7129277469
|172>      7       0.5838290000     -0.6307754696
|173>      8       0.3146360000      1.8818085771
|174>      9       0.1357370000     -0.1931457288
|175>     10       0.0602770000     -0.6717401768
|176>     p 1 
|177>      1       0.0265400000      1.0000000000
|178>     p 1 
|179>      1       0.0117000000      1.0000000000
|180>     d 9 
|181>      1      78.3406000000      0.0003202611
|182>      2      21.0235000000      0.0031815276
|183>      3       7.5187300000     -0.0302471009
|184>      4       3.6893300000      0.0823823887
|185>      5       2.0193400000      0.2414838664
|186>      6       1.0717600000      0.3267004150
|187>      7       0.5516620000      0.3021376968
|188>      8       0.2739330000      0.2058194342
|189>      9       0.1301110000      0.0925413908
|190>     d 9 
|191>      1      78.3406000000     -0.0004224928
|192>      2      21.0235000000     -0.0036399376
|193>      3       7.5187300000      0.0362433782
|194>      4       3.6893300000     -0.1082101435
|195>      5       2.0193400000     -0.3623189505
|196>      6       1.0717600000     -0.3539579272
|197>      7       0.5516620000      0.0718995998
|198>      8       0.2739330000      0.4555490176
|199>      9       0.1301110000      0.4517498328
|200>     d 9 
|201>      1      78.3406000000     -0.0006649061
|202>      2      21.0235000000     -0.0057815386
|203>      3       7.5187300000      0.0609175049
|204>      4       3.6893300000     -0.2046257113
|205>      5       2.0193400000     -0.7636871051
|206>      6       1.0717600000      0.0346065552
|207>      7       0.5516620000      0.9690173140
|208>      8       0.2739330000      0.2282618988
|209>      9       0.1301110000     -0.6581486982
|210>     d 9 
|211>      1      78.3406000000     -0.0004461820
|212>      2      21.0235000000     -0.0125827633
|213>      3       7.5187300000      0.1356403949
|214>      4       3.6893300000     -0.6141667611
|215>      5       2.0193400000     -0.8613094311
|216>      6       1.0717600000      1.6963848757
|217>      7       0.5516620000      0.0178235107
|218>      8       0.2739330000     -1.2565866711
|219>      9       0.1301110000      0.3486398820
|220>     d 1 
|221>      1       0.0574730000      1.0000000000
|222>     d 1 
|223>      1       0.0254000000      1.0000000000
|224>   end
|225>   NewAuxGTO 46
|226>     S 1
|227>      1 1310.72 1.0
|228>     S 1
|229>      1  655.36 1.0
|230>     S 1
|231>      1  327.68 1.0
|232>     S 1
|233>      1  163.84 1.0
|234>     S 1
|235>      1   81.82 1.0
|236>     S 1
|237>      1   40.96 1.0
|238>     S 1
|239>      1   20.48 1.0
|240>     S 1
|241>      1   10.24 1.0
|242>     S 1
|243>      1    5.12 1.0
|244>     S 1
|245>      1    2.56 1.0
|246>     S 1
|247>      1    1.28 1.0
|248>     S 1
|249>      1    0.64 1.0
|250>     S 1
|251>      1    0.32 1.0
|252>     S 1
|253>      1    0.16 1.0
|254>     S 1
|255>      1    0.08 1.0
|256>     S 1
|257>      1    0.04 1.0
|258>     S 1
|259>      1    0.02 1.0
|260>     S 1
|261>      1    0.01 1.0
|262>   end
|263> end
|264> 
|265> * xyz 0 3
|266> 46  0.0 0.0 0.0
|267> *
|268> 
|269> 
|270>                          ****END OF INPUT****
================================================================================

                       ****************************
                       * Single Point Calculation *
                       ****************************

---------------------------------
CARTESIAN COORDINATES (ANGSTROEM)
---------------------------------
  Pd     0.000000    0.000000    0.000000

----------------------------
CARTESIAN COORDINATES (A.U.)
----------------------------
  NO LB      ZA    FRAG     MASS         X           Y           Z
   0 Pd   18.0000*   0   106.400    0.000000    0.000000    0.000000
* core charge reduced due to ECP

--------------------------------
INTERNAL COORDINATES (ANGSTROEM)
--------------------------------
 Pd     0   0   0     0.000000000000     0.00000000     0.00000000

---------------------------
INTERNAL COORDINATES (A.U.)
---------------------------
 Pd     0   0   0     0.000000000000     0.00000000     0.00000000

---------------------
BASIS SET INFORMATION
---------------------
There are 1 groups of distinct atoms

 Group   1 Type Pd  : 67s52p38d contracted to 7s7p6d pattern {131313131311/101010101011/999911}

Atom   0Pd   basis set group =>   1
---------------------------------
AUXILIARY/J BASIS SET INFORMATION
---------------------------------
There are 1 groups of distinct atoms

 Group   1 Type Pd  : 18s contracted to 18s pattern {111111111111111111}

Atom   0Pd   basis set group =>   1
-------------------------
ECP PARAMETER INFORMATION
-------------------------

 Group 1, Type Pd ECP (replacing 28 core electrons, lmax=4)

Atom   0Pd   ECP group =>   1

------------------------------------------------------------------------------
                           ORCA GTO INTEGRAL CALCULATION
------------------------------------------------------------------------------

                         BASIS SET STATISTICS AND STARTUP INFO

 # of primitive gaussian shells          ...  157
 # of primitive gaussian functions       ...  413
 # of contracted shells                  ...   20
 # of contracted basis functions         ...   58
 Highest angular momentum                ...    2
 Maximum contraction depth               ...   13
 Integral package used                   ... LIBINT
 Integral threshhold            Thresh   ...  1.000e-10
 Primitive cut-off              TCut     ...  1.000e-11
 Storage cut-off                TCutStore... -1.000e+00
 Buffer length                           ... 1048576 integrals/buffer
 Generate file with integrals 4 distinct ...false


------------------------------ INTEGRAL EVALUATION ----------------------------


 * One electron integrals 

   ECP integrals                         ... done
 Pre-screening matrix                    ... done
 Shell pair data                         ... done (   0.000 sec)
 Statistics run                          ... done
 Maximum amount of storage needed        ...    17 MB
 Maximum amount of storage dedicated     ... 500000 MB
 Beginning two electron integral evaluation:
 Starting repulsion integrals
  <ss|ss>  ...          406 b.         0 skpd (  0.0%)     0.036 s. (  0.089 ms/b)
  <ss|sp>  ...         1372 b.         0 skpd (  0.0%)     0.199 s. (  0.145 ms/b)
  <ss|sd>  ...         1176 b.         0 skpd (  0.0%)     0.727 s. (  0.618 ms/b)
  <ss|pp>  ...          784 b.         0 skpd (  0.0%)     0.441 s. (  0.562 ms/b)
  <ss|pd>  ...         1176 b.         0 skpd (  0.0%)     0.671 s. (  0.570 ms/b)
  <ss|dd>  ...          588 b.         0 skpd (  0.0%)     0.434 s. (  0.738 ms/b)
  <sp|sp>  ...         1225 b.         0 skpd (  0.0%)     0.622 s. (  0.508 ms/b)
  <sp|sd>  ...         2058 b.         0 skpd (  0.0%)     1.132 s. (  0.550 ms/b)
  <sp|pp>  ...         1372 b.         0 skpd (  0.0%)     0.762 s. (  0.556 ms/b)
  <sp|pd>  ...         2058 b.         0 skpd (  0.0%)     1.557 s. (  0.757 ms/b)
  <sp|dd>  ...         1029 b.         0 skpd (  0.0%)     1.231 s. (  1.197 ms/b)
  <sd|sd>  ...          903 b.         0 skpd (  0.0%)     0.786 s. (  0.871 ms/b)
  <sd|pp>  ...         1176 b.         0 skpd (  0.0%)     1.126 s. (  0.957 ms/b)
  <sd|pd>  ...         1764 b.         0 skpd (  0.0%)     2.549 s. (  1.445 ms/b)
  <sd|dd>  ...          882 b.         0 skpd (  0.0%)     2.073 s. (  2.350 ms/b)
  <pp|pp>  ...          406 b.         0 skpd (  0.0%)     0.408 s. (  1.005 ms/b)
  <pp|pd>  ...         1176 b.         0 skpd (  0.0%)     1.667 s. (  1.417 ms/b)
  <pp|dd>  ...          588 b.         0 skpd (  0.0%)     1.403 s. (  2.386 ms/b)
  <pd|pd>  ...          903 b.         0 skpd (  0.0%)     2.455 s. (  2.718 ms/b)
  <pd|dd>  ...          882 b.         0 skpd (  0.0%)     3.822 s. (  4.333 ms/b)
  <dd|dd>  ...          231 b.         0 skpd (  0.0%)     1.880 s. (  8.141 ms/b)


                                      INTEGRAL STATISTICS

Integral type statistics:
 Number of integrals retained            ...    1464616 
 One   Center Integrals retained         ...    1464616 (100.0%)
 Two   Center Integrals retained         ...          0 (  0.0%)
 Three Center Integrals retained         ...          0 (  0.0%)
 Four  Center Integrals retained         ...          0 (  0.0%)

Storage statistics:
 Number of char integrals                ...          0 (  0.0%)
 Number of short int integrals           ...          0 (  0.0%)
 Number of double/float integrals        ...    1464616 (100.0%)
 Amount of memory used                   ...         18 MB
 Amount of memory estimated              ...         17 MB ( 96.2%)

Prescreening statistics:
 Total number of shell quadruples        ...      22155 
 Number of skipped shell quadruples      ...          0 (  0.0%)
 # of negligible batches done            ...          0 (  0.0%)

Timings:
 Total evaluation time               ...    26.884 sec (   0.448 min)
 One electron matrix time            ...     0.033 sec (   0.001 min) =  0.1%
 Schwartz matrix evaluation time     ...     0.770 sec (   0.013 min) =  2.9%
 Statistics run                      ...     0.011 sec (   0.000 min) =  0.0%
 Repulsion integral time             ...    25.981 sec (   0.433 min) = 96.6%

-------------------------------------------------------------------------------
                                 ORCA SCF
-------------------------------------------------------------------------------

------------
SCF SETTINGS
------------
Hamiltonian:
 Ab initio Hamiltonian  Method          .... Hartree-Fock(GTOs)


General Settings:
 Integral files         IntName         .... 46_Pd_atom46
 Hartree-Fock type      HFTyp           .... ROHF
 Total Charge           Charge          ....    0
 Multiplicity           Mult            ....    3
 Number of Electrons    NEL             ....   18
 Basis Dimension        Dim             ....   58
 Nuclear Repulsion      ENuc            ....      0.0000000000 Eh

Convergence Acceleration:
 DIIS                   CNVDIIS         .... on
   Start iteration      DIISMaxIt       ....    12
   Startup error        DIISStart       ....  0.200000
   # of expansion vecs  DIISMaxEq       ....     5
   Bias factor          DIISBfac        ....   1.050
   Max. coefficient     DIISMaxC        ....  10.000
 Newton-Raphson         CNVNR           .... off
 SOSCF                  CNVSOSCF        .... off
 Level Shifting         CNVShift        .... on
   Level shift para.    LevelShift      ....    1.0000
   Turn off err/grad.   ShiftErr        ....    0.0010
 Zerner damping         CNVZerner       .... off
 Static damping         CNVDamp         .... on
   Fraction old density DampFac         ....    0.7000
   Max. Damping (<1)    DampMax         ....    0.9800
   Min. Damping (>=0)   DampMin         ....    0.0000
   Turn off err/grad.   DampErr         ....    0.1000
 Fernandez-Rico         CNVRico         .... off

SCF Procedure:
 Maximum # iterations   MaxIter         ....  1000
 SCF integral mode      SCFMode         .... Conventional
 Integral Threshold     Thresh          ....  1.000e-10 Eh
 Primitive CutOff       TCut            ....  1.000e-11 Eh
 Integral Buffer length BufferLength    .... 1048576
 Integral index format  IndFormat       ....     0
 Integral value format  ValFormat       ....     0
 Integral Storage       Thresh          ....  1.000e-10 Eh

Convergence Tolerance:
 Convergence Check Mode ConvCheckMode   .... Total+1el-Energy
 Convergence forced     ConvForced      .... 0
 Energy Change          TolE            ....  1.000e-06 Eh
 1-El. energy change                    ....  1.000e-03 Eh
 DIIS Error             TolErr          ....  1.000e-06


Diagonalization of the overlap matrix:
Smallest eigenvalue                        ... 5.653e-07
Time for diagonalization                   ...    0.001 sec
Threshold for overlap eigenvalues          ... 1.000e-08
Number of eigenvalues below threshold      ... 0
Time for construction of square roots      ...    0.000 sec
Total time needed                          ...    0.001 sec

--------------------
INITIAL GUESS: HCORE
--------------------
AVERAGE-CONFIGURATION (SAHF) CASE FOUND

-------------------
FINAL ROHF SETTINGS
-------------------
Number of operators             ... 2
  operator   0:   5 orbitals  10 electrons n(mue)= 2.000
  operator   1:   5 orbitals   8 electrons n(mue)= 1.600
Vector coupling coefficients a and b (Zerner convention):
   1.000    1.000           1.000    1.000 
   1.000    0.977           1.000    1.016 

                      -----------------
                      INTIAL GUESS DONE 
                      -----------------

 InCore treatment chosen:
   Memory dedicated               ...    1024 MB
   Memory needed                  ...     18 MB
   Number of tiny    integrals    ...       0
   Number of small   integrals    ...       0
   Number of regular integrals    ... 1464616

--------------
SCF ITERATIONS
--------------
ITER       Energy         Delta-E        Max-DP      RMS-DP      [F,P]     Damp
  0   -110.1134491348   0.000000000000334.11288711  6.82118798  1.9717812 0.7000
  1   -121.2306358531 -11.117186718256114.04780414  2.32077430  0.5777523 0.7000
  2   -119.3639096499   1.86672620317931.08749157  0.64091073  0.2195174 0.7000
  3   -118.3038047943   1.060104855627143.33232103  3.00360889  0.2559911 0.7000
                            ****Activating DIIS****
  4   -124.3654932272  -6.061688432965342.43404496  7.16700387  0.0591189 0.0000
  5   -126.1798000277  -1.814306800445 0.92863405  0.01911930  0.1859399 0.7000
  6   -126.2105129539  -0.030712926271 0.39443740  0.00824639  0.1777011 0.7000
  7   -126.2206949699  -0.010182016008 1.71764074  0.03563781  0.1731427 0.7000
  8   -126.1856450090   0.035049960996 1.17512303  0.02435058  0.1845873 0.7000
  9   -126.1905717239  -0.00492671494014.67849926  0.30507533  0.1817251 0.7000
 10   -126.4105539780  -0.21998225410996.78869763  2.01735434  0.0612311 0.0000
 11   -126.4949855391  -0.084431561118 7.58715363  0.15946500  0.0759958 0.0000
 12   -126.5200937240  -0.025108184884 9.53317095  0.20632283  0.0343075 0.0000
 13   -126.5276059519  -0.007512227854 3.18081894  0.06737639  0.0249724 0.0000
 14   -126.5319594329  -0.004353481039 3.59884740  0.07568091  0.0194645 0.0000
 15   -126.5339350542  -0.001975621308 2.12183992  0.04390785  0.0114254 0.0000
 16   -126.5350275472  -0.001092492980 3.86906564  0.08145783  0.0054362 0.0000
 17   -126.5353592589  -0.000331711755 1.44486485  0.03244530  0.0026337 0.0000
 18   -126.5354651874  -0.000105928440 0.29138371  0.00594849  0.0017009 0.0000
 19   -126.5355004294  -0.000035242072 0.01411946  0.00028345  0.0012007 0.0000
 20   -126.5355129987  -0.000012569249 0.07647839  0.00137707  0.0008787 0.0000
 21   -126.5355200719  -0.000007073172 0.10504001  0.00203154  0.0005553 0.0000
 22   -126.5355229396  -0.000002867682 0.07890443  0.00177666  0.0003087 0.0000
                 **** Energy Check signals convergence ****

               *****************************************************
               *                     SUCCESS                       *
               *           SCF CONVERGED AFTER  23 CYCLES          *
               *****************************************************


----------------
TOTAL SCF ENERGY
----------------

Total Energy       :         -126.53552391 Eh           -3443.20665 eV

Components:
Nuclear Repulsion  :            0.00000000 Eh               0.00000 eV
Electronic Energy  :         -126.53552391 Eh           -3443.20665 eV
One Electron Energy:         -224.04126588 Eh           -6096.47278 eV
Two Electron Energy:           97.50574197 Eh            2653.26613 eV

Virial components:
Potential Energy   :         -174.20727098 Eh           -4740.42084 eV
Kinetic Energy     :           47.67174707 Eh            1297.21419 eV
Virial Ratio       :            3.65430851


---------------
SCF CONVERGENCE
---------------

  Last Energy change         ...   -9.7012e-07  Tolerance :   1.0000e-06
  Last MAX-Density change    ...    3.3540e-02  Tolerance :   1.0000e-05
  Last RMS-Density change    ...    8.4187e-04  Tolerance :   1.0000e-06
  Last DIIS Error            ...    1.4826e-04  Tolerance :   1.0000e-06

             **** THE GBW FILE WAS UPDATED (46_Pd_atom46.gbw) ****
             **** DENSITY FILE WAS UPDATED (46_Pd_atom46.scfp) ****
             **** ENERGY FILE WAS UPDATED (46_Pd_atom46.en.tmp) ****
             **** THE GBW FILE WAS UPDATED (46_Pd_atom46.gbw) ****
             **** DENSITY FILE WAS UPDATED (46_Pd_atom46.scfp) ****
----------------
ORBITAL ENERGIES
----------------

  NO   OCC          E(Eh)            E(eV) 
   0   2.0000      -4.098710      -111.5316 
   1   2.0000      -2.644976       -71.9735 
   2   2.0000      -2.640384       -71.8485 
   3   2.0000      -2.640384       -71.8485 
   4   2.0000      -0.534945       -14.5566 
   5   1.6000      -0.551751       -15.0139 
   6   1.6000      -0.547140       -14.8884 
   7   1.6000      -0.547140       -14.8884 
   8   1.6000      -0.533361       -14.5135 
   9   1.6000      -0.264364        -7.1937 
  10   0.0000      -0.001536        -0.0418 
  11   0.0000      -0.000739        -0.0201 
  12   0.0000      -0.000739        -0.0201 
  13   0.0000       0.011288         0.3072 
  14   0.0000       0.029383         0.7996 
  15   0.0000       0.030953         0.8423 
  16   0.0000       0.030953         0.8423 
  17   0.0000       0.054483         1.4825 
  18   0.0000       0.054559         1.4846 
  19   0.0000       0.054559         1.4846 
  20   0.0000       0.054737         1.4895 
  21   0.0000       0.054791         1.4909 
  22   0.0000       0.143944         3.9169 
  23   0.0000       0.146202         3.9784 
  24   0.0000       0.146202         3.9784 
  25   0.0000       0.205016         5.5788 
  26   0.0000       0.205379         5.5887 
  27   0.0000       0.205379         5.5887 
  28   0.0000       0.205708         5.5976 
  29   0.0000       0.206487         5.6188 
  30   0.0000       0.213744         5.8163 
  31   0.0000       0.508836        13.8461 
  32   0.0000       0.513612        13.9761 
  33   0.0000       0.513612        13.9761 
  34   0.0000       0.586545        15.9607 
  35   0.0000       0.652186        17.7469 
  36   0.0000       0.654092        17.7988 
  37   0.0000       0.653390        17.7796 
  38   0.0000       0.653390        17.7796 
  39   0.0000       0.657087        17.8802 
  40   0.0000       1.742591        47.4183 
  41   0.0000       1.753531        47.7160 
  42   0.0000       1.753531        47.7160 
  43   0.0000       2.115675        57.5705 
  44   0.0000       2.118376        57.6439 
  45   0.0000       2.118376        57.6439 
  46   0.0000       2.124214        57.8028 
  47   0.0000       2.126295        57.8594 
  48   0.0000       2.242773        61.0290 
  49   0.0000       5.780183       157.2868 
  50   0.0000       5.797556       157.7595 
  51   0.0000       5.797556       157.7595 
  52   0.0000       6.348259       172.7449 
  53   0.0000       6.351605       172.8360 
  54   0.0000       6.351605       172.8360 
  55   0.0000       6.361728       173.1114 
  56   0.0000       6.363720       173.1656 
  57   0.0000      22.112841       601.7210 
CleanUpVectors: The p-vectors have cracked symmetry
CleanUpVectors: The p-vectors have cracked symmetry
CleanUpVectors: The p-vectors have cracked symmetry
CleanUpVectors: The d-vectors have cracked symmetry at i=4
CleanUpVectors: The d-vectors have cracked symmetry at i=5
CleanUpVectors: The d-vectors have cracked symmetry at i=6
CleanUpVectors: The d-vectors have cracked symmetry at i=7
CleanUpVectors: The d-vectors have cracked symmetry at i=8
CleanUpVectors: The p-vectors have cracked symmetry
CleanUpVectors: The p-vectors have cracked symmetry
CleanUpVectors: The p-vectors have cracked symmetry
CleanUpVectors: The p-vectors have cracked symmetry
CleanUpVectors: The p-vectors have cracked symmetry
CleanUpVectors: The p-vectors have cracked symmetry
CleanUpVectors: The d-vectors have cracked symmetry at i=17
CleanUpVectors: The d-vectors have cracked symmetry at i=18
CleanUpVectors: The d-vectors have cracked symmetry at i=19
CleanUpVectors: The d-vectors have cracked symmetry at i=20
CleanUpVectors: The d-vectors have cracked symmetry at i=21
CleanUpVectors: The p-vectors have cracked symmetry
CleanUpVectors: The p-vectors have cracked symmetry
CleanUpVectors: The p-vectors have cracked symmetry
CleanUpVectors: The d-vectors have cracked symmetry at i=25
CleanUpVectors: The d-vectors have cracked symmetry at i=26
CleanUpVectors: The d-vectors have cracked symmetry at i=27
CleanUpVectors: The d-vectors have cracked symmetry at i=28
CleanUpVectors: The d-vectors have cracked symmetry at i=29
CleanUpVectors: The p-vectors have cracked symmetry
CleanUpVectors: The p-vectors have cracked symmetry
CleanUpVectors: The p-vectors have cracked symmetry
CleanUpVectors: The d-vectors have cracked symmetry at i=36
CleanUpVectors: The d-vectors have cracked symmetry at i=37
CleanUpVectors: The d-vectors have cracked symmetry at i=38
CleanUpVectors: The d-vectors have cracked symmetry at i=39
CleanUpVectors: The p-vectors have cracked symmetry
CleanUpVectors: The p-vectors have cracked symmetry
CleanUpVectors: The p-vectors have cracked symmetry
CleanUpVectors: The d-vectors have cracked symmetry at i=44
CleanUpVectors: The d-vectors have cracked symmetry at i=45
CleanUpVectors: The d-vectors have cracked symmetry at i=46
CleanUpVectors: The d-vectors have cracked symmetry at i=47
CleanUpVectors: The p-vectors have cracked symmetry
CleanUpVectors: The p-vectors have cracked symmetry
CleanUpVectors: The p-vectors have cracked symmetry
CleanUpVectors: The d-vectors have cracked symmetry at i=52
CleanUpVectors: The d-vectors have cracked symmetry at i=53
--------------------------
ATOM BASIS FOR ELEMENT Pd
--------------------------
 NewGTO Pd
 S 67
    1       7844.890000000000        -0.000015002550
    2       1169.530000000000        -0.000107018184
    3        259.644000000000        -0.000412070071
    4         39.221100000000        -0.009865678003
    5         24.493400000000         0.071934234851
    6         15.296900000000        -0.212869205539
    7          6.038960000000         0.454297268477
    8          3.762280000000         0.299671969312
    9          1.807100000000        -0.504697840770
   10          0.974305000000        -0.662389661566
   11          0.497203000000        -0.240721942863
   12          0.162020000000        -0.012648151199
   13          0.071460000000         0.000472080272
   14       7844.890000000000         0.000000003186
   15       1169.530000000000         0.000000021028
   16        259.644000000000         0.000000086023
   17         39.221100000000         0.000001730656
   18         24.493400000000        -0.000013073591
   19         15.296900000000         0.000040583124
   20          6.038960000000        -0.000098842391
   21          3.762280000000        -0.000051009754
   22          1.807100000000         0.000118883849
   23          0.974305000000         0.000194666329
   24          0.497203000000         0.000115531499
   25          0.162020000000        -0.000193694587
   26          0.071460000000        -0.000393644005
   27       7844.890000000000        -0.000000028020
   28       1169.530000000000        -0.000000235370
   29        259.644000000000        -0.000000644467
   30         39.221100000000        -0.000025425627
   31         24.493400000000         0.000157863609
   32         15.296900000000        -0.000437993828
   33          6.038960000000         0.001105028450
   34          3.762280000000         0.000332015422
   35          1.807100000000        -0.001095913444
   36          0.974305000000        -0.003913870908
   37          0.497203000000         0.003085383277
   38          0.162020000000         0.003678657241
   39          0.071460000000        -0.001842699464
   40       7844.890000000000        -0.000000796999
   41       1169.530000000000        -0.000005977496
   42        259.644000000000        -0.000023112976
   43         39.221100000000        -0.000514064408
   44         24.493400000000         0.003666992758
   45         15.296900000000        -0.011305431921
   46          6.038960000000         0.027497663683
   47          3.762280000000         0.028595928408
   48          1.807100000000        -0.101600645425
   49          0.974305000000        -0.057859343542
   50          0.497203000000         0.185205450181
   51          0.162020000000        -0.089438041002
   52          0.071460000000        -0.051476177929
   53       7844.890000000000         0.000000828271
   54       1169.530000000000         0.000006018759
   55        259.644000000000         0.000022528926
   56         39.221100000000         0.000501268581
   57         24.493400000000        -0.003578289058
   58         15.296900000000         0.011038786799
   59          6.038960000000        -0.026873970715
   60          3.762280000000        -0.027948456879
   61          1.807100000000         0.099715452290
   62          0.974305000000         0.055543132324
   63          0.497203000000        -0.180397938529
   64          0.162020000000         0.087046631498
   65          0.071460000000         0.051810950823
   66          0.031310000000        -0.002635016906
   67          0.013700000000         0.000308778124
 P 52
    1         98.824300000000        -0.000317989901
    2         27.985900000000         0.004670851463
    3         17.487300000000        -0.029240070357
    4          6.786380000000         0.199275664651
    5          1.987880000000        -0.410125961253
    6          1.065730000000        -0.447129784854
    7          0.583829000000        -0.236213490288
    8          0.314636000000        -0.062467014093
    9          0.135737000000        -0.006074806894
   10          0.060277000000         0.000084997306
   11         98.824300000000        -0.000000208701
   12         27.985900000000         0.000002774502
   13         17.487300000000        -0.000027331712
   14          6.786380000000         0.000222676312
   15          1.987880000000        -0.000565548317
   16          1.065730000000        -0.000576998254
   17          0.583829000000        -0.000413601351
   18          0.314636000000         0.000518042128
   19          0.135737000000         0.001723301452
   20          0.060277000000         0.001932481734
   21         98.824300000000        -0.000000476484
   22         27.985900000000         0.000006504291
   23         17.487300000000        -0.000046264856
   24          6.786380000000         0.000350051992
   25          1.987880000000        -0.000977018582
   26          1.065730000000        -0.000942005633
   27          0.583829000000        -0.000094871946
   28          0.314636000000         0.001575252623
   29          0.135737000000         0.001530552126
   30          0.060277000000         0.000285413805
   31         98.824300000000        -0.000001517330
   32         27.985900000000         0.000021307810
   33         17.487300000000        -0.000114795644
   34          6.786380000000         0.000811319121
   35          1.987880000000        -0.003134956784
   36          1.065730000000        -0.001250367194
   37          0.583829000000         0.003596587369
   38          0.314636000000         0.002453628339
   39          0.135737000000        -0.002799941811
   40          0.060277000000        -0.001363536869
   41         98.824300000000         0.000000006108
   42         27.985900000000        -0.000000898595
   43         17.487300000000         0.000025250238
   44          6.786380000000        -0.000263501343
   45          1.987880000000         0.001790682631
   46          1.065730000000        -0.001863517664
   47          0.583829000000        -0.000433281436
   48          0.314636000000         0.001292619580
   49          0.135737000000        -0.000132672342
   50          0.060277000000        -0.000461420208
   51          0.026540000000        -0.000392068559
   52          0.011700000000         0.000118646383
 D 38
    1         78.340600000000        -0.000318969105
    2         21.023500000000        -0.003168692708
    3          7.518730000000         0.030125078295
    4          3.689330000000        -0.082050042346
    5          2.019340000000        -0.240509674175
    6          1.071760000000        -0.325382442876
    7          0.551662000000        -0.300918815391
    8          0.273933000000        -0.204989119133
    9          0.130111000000        -0.092168061083
   10         78.340600000000        -0.000012507135
   11         21.023500000000        -0.000107753767
   12          7.518730000000         0.001072919633
   13          3.689330000000        -0.003203365503
   14          2.019340000000        -0.010725796949
   15          1.071760000000        -0.010478283983
   16          0.551662000000         0.002128457557
   17          0.273933000000         0.013485704395
   18          0.130111000000         0.013373236403
   19         78.340600000000         0.000004779922
   20         21.023500000000         0.000041562713
   21          7.518730000000        -0.000437927847
   22          3.689330000000         0.001471027045
   23          2.019340000000         0.005490045111
   24          1.071760000000        -0.000248781926
   25          0.551662000000        -0.006966136696
   26          0.273933000000        -0.001640944456
   27          0.130111000000         0.004731343529
   28         78.340600000000        -0.000000621260
   29         21.023500000000        -0.000017520122
   30          7.518730000000         0.000188864420
   31          3.689330000000        -0.000855160066
   32          2.019340000000        -0.001199279213
   33          1.071760000000         0.002362030467
   34          0.551662000000         0.000024817290
   35          0.273933000000        -0.001749659552
   36          0.130111000000         0.000485442918
   37          0.057473000000        -0.006784887179
   38          0.025400000000        -0.000185849336
 S 67
    1       7844.890000000000         0.000002773036
    2       1169.530000000000         0.000019780992
    3        259.644000000000         0.000076166073
    4         39.221100000000         0.001823548974
    5         24.493400000000        -0.013296156649
    6         15.296900000000         0.039346248813
    7          6.038960000000        -0.083971250399
    8          3.762280000000        -0.055390669764
    9          1.807100000000         0.093287174949
   10          0.974305000000         0.122434564310
   11          0.497203000000         0.044494483994
   12          0.162020000000         0.002337854848
   13          0.071460000000        -0.000087258219
   14       7844.890000000000        -0.000001309909
   15       1169.530000000000        -0.000008645382
   16        259.644000000000        -0.000035367514
   17         39.221100000000        -0.000711541810
   18         24.493400000000         0.005375074822
   19         15.296900000000        -0.016685340968
   20          6.038960000000         0.040638049266
   21          3.762280000000         0.020972144554
   22          1.807100000000        -0.048877892002
   23          0.974305000000        -0.080035092080
   24          0.497203000000        -0.047499607244
   25          0.162020000000         0.079635570271
   26          0.071460000000         0.161842751131
   27       7844.890000000000         0.000001407181
   28       1169.530000000000         0.000011820288
   29        259.644000000000         0.000032365090
   30         39.221100000000         0.001276873298
   31         24.493400000000        -0.007927899973
   32         15.296900000000         0.021996021034
   33          6.038960000000        -0.055494455538
   34          3.762280000000        -0.016673792513
   35          1.807100000000         0.055036700548
   36          0.974305000000         0.196554337715
   37          0.497203000000        -0.154947743751
   38          0.162020000000        -0.184741922946
   39          0.071460000000         0.092540244988
   40       7844.890000000000        -0.001944222363
   41       1169.530000000000        -0.014581667721
   42        259.644000000000        -0.056382428067
   43         39.221100000000        -1.254022851269
   44         24.493400000000         8.945362959352
   45         15.296900000000       -27.578781472912
   46          6.038960000000        67.078556840507
   47          3.762280000000        69.757694008695
   48          1.807100000000      -247.847407978541
   49          0.974305000000      -141.143673489404
   50          0.497203000000       451.795267427962
   51          0.162020000000      -218.177616336274
   52          0.071460000000      -125.572403785866
   53       7844.890000000000         0.002066779434
   54       1169.530000000000         0.015018562704
   55        259.644000000000         0.056216255637
   56         39.221100000000         1.250811620601
   57         24.493400000000        -8.928877067297
   58         15.296900000000        27.544999494542
   59          6.038960000000       -67.058411690245
   60          3.762280000000       -69.739568722904
   61          1.807100000000       248.819198415812
   62          0.974305000000       138.596349362587
   63          0.497203000000      -450.145583555430
   64          0.162020000000       217.206787681404
   65          0.071460000000       129.283465670521
   66          0.031310000000        -5.245895570265
   67          0.013700000000         2.223762389688
 S 67
    1       7844.890000000000         0.000002935134
    2       1169.530000000000         0.000020937290
    3        259.644000000000         0.000080618360
    4         39.221100000000         0.001930144491
    5         24.493400000000        -0.014073383203
    6         15.296900000000         0.041646232951
    7          6.038960000000        -0.088879788056
    8          3.762280000000        -0.058628530187
    9          1.807100000000         0.098740274777
   10          0.974305000000         0.129591474163
   11          0.497203000000         0.047095408110
   12          0.162020000000         0.002474514103
   13          0.071460000000        -0.000092358897
   14       7844.890000000000        -0.000001856640
   15       1169.530000000000        -0.000012253795
   16        259.644000000000        -0.000050129219
   17         39.221100000000        -0.001008525376
   18         24.493400000000         0.007618525401
   19         15.296900000000        -0.023649474325
   20          6.038960000000         0.057599572261
   21          3.762280000000         0.029725505468
   22          1.807100000000        -0.069278563394
   23          0.974305000000        -0.113440166369
   24          0.497203000000        -0.067325009669
   25          0.162020000000         0.112873892009
   26          0.071460000000         0.229392734320
   27       7844.890000000000         0.000026844298
   28       1169.530000000000         0.000225491420
   29        259.644000000000         0.000617417275
   30         39.221100000000         0.024358456375
   31         24.493400000000        -0.151237719433
   32         15.296900000000         0.419610245960
   33          6.038960000000        -1.058647930083
   34          3.762280000000        -0.318079991215
   35          1.807100000000         1.049915501443
   36          0.974305000000         3.749596977811
   37          0.497203000000        -2.955882828337
   38          0.162020000000        -3.524255755455
   39          0.071460000000         1.765357238961
   40       7844.890000000000        -0.003972522269
   41       1169.530000000000        -0.029793917020
   42        259.644000000000        -0.115203104014
   43         39.221100000000        -2.562275693410
   44         24.493400000000        18.277566518252
   45         15.296900000000       -56.350202351096
   46          6.038960000000       137.057913711478
   47          3.762280000000       142.532046849015
   48          1.807100000000      -506.412932184956
   49          0.974305000000      -288.391079552116
   50          0.497203000000       923.128339293708
   51          0.162020000000      -445.790284139438
   52          0.071460000000      -256.575163409493
   53       7844.890000000000         0.004208343400
   54       1169.530000000000         0.030580558419
   55        259.644000000000         0.114466645271
   56         39.221100000000         2.546882720229
   57         24.493400000000       -18.180837417239
   58         15.296900000000        56.086689702830
   59          6.038960000000      -136.543270918581
   60          3.762280000000      -142.002600208643
   61          1.807100000000       506.641692856805
   62          0.974305000000       282.207681368255
   63          0.497203000000      -916.579274977862
   64          0.162020000000       442.273005103862
   65          0.071460000000       263.244935771584
   66          0.031310000000        -5.569050069975
   67          0.013700000000         1.741813409663
 S 66
    1       7844.890000000000         0.000000029499
    2       1169.530000000000         0.000000210429
    3        259.644000000000         0.000000810251
    4         39.221100000000         0.000019398829
    5         24.493400000000        -0.000141443894
    6         15.296900000000         0.000418563560
    7          6.038960000000        -0.000893282246
    8          3.762280000000        -0.000589243362
    9          1.807100000000         0.000992384617
   10          0.974305000000         0.001302453186
   11          0.497203000000         0.000473330246
   12          0.162020000000         0.000024869991
   13       7844.890000000000         0.000000009034
   14       1169.530000000000         0.000000059623
   15        259.644000000000         0.000000243913
   16         39.221100000000         0.000004907170
   17         24.493400000000        -0.000037069370
   18         15.296900000000         0.000115070971
   19          6.038960000000        -0.000280261566
   20          3.762280000000        -0.000144635045
   21          1.807100000000         0.000337087897
   22          0.974305000000         0.000551964493
   23          0.497203000000         0.000327582513
   24          0.162020000000        -0.000549209178
   25          0.071460000000        -0.001116153548
   26       7844.890000000000         0.000000206686
   27       1169.530000000000         0.000001736161
   28        259.644000000000         0.000004753775
   29         39.221100000000         0.000187546782
   30         24.493400000000        -0.001164447661
   31         15.296900000000         0.003230769225
   32          6.038960000000        -0.008151009622
   33          3.762280000000        -0.002449041835
   34          1.807100000000         0.008083774701
   35          0.974305000000         0.028869844427
   36          0.497203000000        -0.022758679907
   37          0.162020000000        -0.027134840353
   38          0.071460000000         0.013592284491
   39       7844.890000000000        -0.000024866545
   40       1169.530000000000        -0.000186499085
   41        259.644000000000        -0.000721129535
   42         39.221100000000        -0.016038914003
   43         24.493400000000         0.114410919293
   44         15.296900000000        -0.352731773503
   45          6.038960000000         0.857932695164
   46          3.762280000000         0.892198777794
   47          1.807100000000        -3.169960785263
   48          0.974305000000        -1.805223277090
   49          0.497203000000         5.778447684383
   50          0.162020000000        -2.790485055498
   51          0.071460000000        -1.606067212722
   52       7844.890000000000         0.000026338900
   53       1169.530000000000         0.000191395566
   54        259.644000000000         0.000716416230
   55         39.221100000000         0.015940260256
   56         24.493400000000        -0.113789016589
   57         15.296900000000         0.351031644944
   58          6.038960000000        -0.854587946810
   59          3.762280000000        -0.888756434042
   60          1.807100000000         3.170935346386
   61          0.974305000000         1.766262675356
   62          0.497203000000        -5.736625433260
   63          0.162020000000         2.768068882623
   64          0.071460000000         1.647579903834
   65          0.031310000000        -0.032692173332
   66          0.013700000000         0.009984554506
 S 67
    1       7844.890000000000         0.000000069472
    2       1169.530000000000         0.000000495570
    3        259.644000000000         0.000001908176
    4         39.221100000000         0.000045685067
    5         24.493400000000        -0.000333106384
    6         15.296900000000         0.000985734978
    7          6.038960000000        -0.002103717665
    8          3.762280000000        -0.001387693168
    9          1.807100000000         0.002337107962
   10          0.974305000000         0.003067332623
   11          0.497203000000         0.001114712852
   12          0.162020000000         0.000058569886
   13          0.071460000000        -0.000002186066
   14       7844.890000000000        -0.000000116498
   15       1169.530000000000        -0.000000768887
   16        259.644000000000        -0.000003145451
   17         39.221100000000        -0.000063281799
   18         24.493400000000         0.000478038534
   19         15.296900000000        -0.001483930216
   20          6.038960000000         0.003614192204
   21          3.762280000000         0.001865182082
   22          1.807100000000        -0.004347012207
   23          0.974305000000        -0.007118014055
   24          0.497203000000        -0.004224432848
   25          0.162020000000         0.007082482117
   26          0.071460000000         0.014393673415
   27       7844.890000000000        -0.000000241929
   28       1169.530000000000        -0.000002032195
   29        259.644000000000        -0.000005564345
   30         39.221100000000        -0.000219525545
   31         24.493400000000         0.001362998633
   32         15.296900000000        -0.003781650461
   33          6.038960000000         0.009540845277
   34          3.762280000000         0.002866630062
   35          1.807100000000        -0.009462146072
   36          0.974305000000        -0.033792466408
   37          0.497203000000         0.026639281975
   38          0.162020000000         0.031761625299
   39          0.071460000000        -0.015909916599
   40       7844.890000000000         0.000066301924
   41       1169.530000000000         0.000497264427
   42        259.644000000000         0.001922755089
   43         39.221100000000         0.042764721229
   44         24.493400000000        -0.305055009849
   45         15.296900000000         0.940492352527
   46          6.038960000000        -2.287514761630
   47          3.762280000000        -2.378878769881
   48          1.807100000000         8.452099017732
   49          0.974305000000         4.813285375017
   50          0.497203000000       -15.407134442877
   51          0.162020000000         7.440298979793
   52          0.071460000000         4.282273513971
   53       7844.890000000000        -0.000069915680
   54       1169.530000000000        -0.000508052776
   55        259.644000000000        -0.001901701599
   56         39.221100000000        -0.042312858306
   57         24.493400000000         0.302048928840
   58         15.296900000000        -0.931801113345
   59          6.038960000000         2.268473545789
   60          3.762280000000         2.359172589315
   61          1.807100000000        -8.417135972411
   62          0.974305000000        -4.688481939063
   63          0.497203000000        15.227669762984
   64          0.162020000000        -7.347741161796
   65          0.071460000000        -4.373442710457
   66          0.031310000000         0.038574875200
   67          0.013700000000        -0.008777880077
 S 67
    1       7844.890000000000         0.000002961835
    2       1169.530000000000         0.000021127754
    3        259.644000000000         0.000081351735
    4         39.221100000000         0.001947702775
    5         24.493400000000        -0.014201407020
    6         15.296900000000         0.042025083551
    7          6.038960000000        -0.089688316431
    8          3.762280000000        -0.059161866633
    9          1.807100000000         0.099638502773
   10          0.974305000000         0.130770351683
   11          0.497203000000         0.047523829179
   12          0.162020000000         0.002497024450
   13          0.071460000000        -0.000093199074
   14       7844.890000000000        -0.000003838082
   15       1169.530000000000        -0.000025331279
   16        259.644000000000        -0.000103628084
   17         39.221100000000        -0.002084843003
   18         24.493400000000         0.015749161853
   19         15.296900000000        -0.048888646986
   20          6.038960000000         0.119070940692
   21          3.762280000000         0.061449135119
   22          1.807100000000        -0.143213975197
   23          0.974305000000        -0.234505688005
   24          0.497203000000        -0.139175551462
   25          0.162020000000         0.233335074786
   26          0.071460000000         0.474205060755
   27       7844.890000000000        -0.000008145967
   28       1169.530000000000        -0.000068425914
   29        259.644000000000        -0.000187356759
   30         39.221100000000        -0.007391632240
   31         24.493400000000         0.045893450130
   32         15.296900000000        -0.127331739523
   33          6.038960000000         0.321249263520
   34          3.762280000000         0.096522139245
   35          1.807100000000        -0.318599387023
   36          0.974305000000        -1.137824231636
   37          0.497203000000         0.896969761780
   38          0.162020000000         1.069443895109
   39          0.071460000000        -0.535701904997
   40       7844.890000000000         0.002542718028
   41       1169.530000000000         0.019070385210
   42        259.644000000000         0.073738796061
   43         39.221100000000         1.640052379012
   44         24.493400000000       -11.699040242975
   45         15.296900000000        36.068438560842
   46          6.038960000000       -87.727545487394
   47          3.762280000000       -91.231409298121
   48          1.807100000000       324.143001601373
   49          0.974305000000       184.592343954877
   50          0.497203000000      -590.872728054006
   51          0.162020000000       285.339871085502
   52          0.071460000000       164.227724685240
   53       7844.890000000000        -0.002679900565
   54       1169.530000000000        -0.019473899344
   55        259.644000000000        -0.072893107371
   56         39.221100000000        -1.621871551723
   57         24.493400000000        11.577676019129
   58         15.296900000000       -35.716370344365
   59          6.038960000000        86.951646781053
   60          3.762280000000        90.428183331683
   61          1.807100000000      -322.632739244312
   62          0.974305000000      -179.711694792083
   63          0.497203000000       583.683669129563
   64          0.162020000000      -281.642338446083
   65          0.071460000000      -167.636094537099
   66          0.031310000000         1.443640930433
   67          0.013700000000        -0.333328429690
 D 75
    1         78.340600000000         0.000023764823
    2         21.023500000000         0.000236083748
    3          7.518730000000        -0.002244471792
    4          3.689330000000         0.006113146123
    5          2.019340000000         0.017919195899
    6          1.071760000000         0.024242649515
    7          0.551662000000         0.022419984648
    8          0.273933000000         0.015272733604
    9          0.130111000000         0.006866990061
   10         78.340600000000        -0.000318053385
   11         21.023500000000        -0.003159595793
   12          7.518730000000         0.030038593017
   13          3.689330000000        -0.081814487084
   14          2.019340000000        -0.239819201413
   15          1.071760000000        -0.324448311162
   16          0.551662000000        -0.300054915649
   17          0.273933000000        -0.204400621378
   18          0.130111000000        -0.091903458273
   19         78.340600000000         0.000001019320
   20         21.023500000000         0.000008781832
   21          7.518730000000        -0.000087441958
   22          3.689330000000         0.000261071326
   23          2.019340000000         0.000874142531
   24          1.071760000000         0.000853970453
   25          0.551662000000        -0.000173467322
   26          0.273933000000        -0.001099072435
   27          0.130111000000        -0.001089906398
   28         78.340600000000        -0.000013641934
   29         21.023500000000        -0.000117530498
   30          7.518730000000         0.001170267940
   31          3.689330000000        -0.003494013749
   32          2.019340000000        -0.011698971589
   33          1.071760000000        -0.011429001238
   34          0.551662000000         0.002321577092
   35          0.273933000000         0.014709291377
   36          0.130111000000         0.014586618922
   37         78.340600000000        -0.000000402593
   38         21.023500000000        -0.000003500656
   39          7.518730000000         0.000036884862
   40          3.689330000000        -0.000123898560
   41          2.019340000000        -0.000462403927
   42          1.071760000000         0.000020953879
   43          0.551662000000         0.000586729053
   44          0.273933000000         0.000138210005
   45          0.130111000000        -0.000398501612
   46         78.340600000000         0.000005388052
   47         21.023500000000         0.000046850575
   48          7.518730000000        -0.000493643700
   49          3.689330000000         0.001658180080
   50          2.019340000000         0.006188522142
   51          1.071760000000        -0.000280433481
   52          0.551662000000        -0.007852411103
   53          0.273933000000        -0.001849715421
   54          0.130111000000         0.005333293916
   55         78.340600000000         0.000000033215
   56         21.023500000000         0.000000936707
   57          7.518730000000        -0.000010097570
   58          3.689330000000         0.000045720834
   59          2.019340000000         0.000064119044
   60          1.071760000000        -0.000126285134
   61          0.551662000000        -0.000001326848
   62          0.273933000000         0.000093544937
   63          0.130111000000        -0.000025954036
   64         78.340600000000        -0.000000444534
   65         21.023500000000        -0.000012536298
   66          7.518730000000         0.000135139503
   67          3.689330000000        -0.000611898770
   68          2.019340000000        -0.000858128793
   69          1.071760000000         0.001690120475
   70          0.551662000000         0.000017757692
   71          0.273933000000        -0.001251946355
   72          0.130111000000         0.000347352427
   73          0.057473000000         0.000450362268
   74          0.057473000000        -0.006027364173
   75          0.025400000000        -0.000244720880
 P 52
    1         98.824300000000        -0.000031169980
    2         27.985900000000         0.000457845813
    3         17.487300000000        -0.002866167743
    4          6.786380000000         0.019533382616
    5          1.987880000000        -0.040201332843
    6          1.065730000000        -0.043828518560
    7          0.583829000000        -0.023154099087
    8          0.314636000000        -0.006123136457
    9          0.135737000000        -0.000595464216
   10          0.060277000000         0.000008331599
   11         98.824300000000         0.000057699974
   12         27.985900000000        -0.000767070492
   13         17.487300000000         0.007556436323
   14          6.786380000000        -0.061563629672
   15          1.987880000000         0.156357929688
   16          1.065730000000         0.159523509629
   17          0.583829000000         0.114348940727
   18          0.314636000000        -0.143223827393
   19          0.135737000000        -0.476443548783
   20          0.060277000000        -0.534275912257
   21         98.824300000000        -0.000148583028
   22         27.985900000000         0.002028248180
   23         17.487300000000        -0.014426877336
   24          6.786380000000         0.109157524008
   25          1.987880000000        -0.304665968513
   26          1.065730000000        -0.293747799437
   27          0.583829000000        -0.029584138836
   28          0.314636000000         0.491214676015
   29          0.135737000000         0.477275616503
   30          0.060277000000         0.089001248337
   31         98.824300000000         0.000104629152
   32         27.985900000000        -0.001469303054
   33         17.487300000000         0.007915857704
   34          6.786380000000        -0.055945386741
   35          1.987880000000         0.216174332762
   36          1.065730000000         0.086220421057
   37          0.583829000000        -0.248006568608
   38          0.314636000000        -0.169192593598
   39          0.135737000000         0.193073013283
   40          0.060277000000         0.094024158243
   41         98.824300000000        -0.000000394096
   42         27.985900000000         0.000057975849
   43         17.487300000000        -0.001629103870
   44          6.786380000000         0.017000673624
   45          1.987880000000        -0.115531900635
   46          1.065730000000         0.120231097254
   47          0.583829000000         0.027954606206
   48          0.314636000000        -0.083397691039
   49          0.135737000000         0.008559801465
   50          0.060277000000         0.029770073537
   51          0.026540000000         1.945398673097
   52          0.011700000000        -1.419850647369
 D 103
    1       7844.890000000000        -0.000000000000
    2       1169.530000000000        -0.000000000001
    3        259.644000000000        -0.000000000013
    4         39.221100000000        -0.000000002098
    5         24.493400000000         0.000000024491
    6         15.296900000000        -0.000000116047
    7          6.038960000000         0.000000627340
    8          3.762280000000         0.000000664232
    9          1.807100000000        -0.000002329026
   10          0.974305000000        -0.000005669485
   11          0.497203000000        -0.000004037448
   12       7844.890000000000         0.000000000000
   13       1169.530000000000         0.000000000008
   14        259.644000000000         0.000000000154
   15         39.221100000000         0.000000020494
   16         24.493400000000        -0.000000247907
   17         15.296900000000         0.000001232212
   18          6.038960000000        -0.000007601943
   19          3.762280000000        -0.000006297173
   20          1.807100000000         0.000030555132
   21          0.974305000000         0.000092798168
   22          0.497203000000         0.000107922044
   23          0.162020000000        -0.000555254838
   24          0.071460000000        -0.002558492365
   25       7844.890000000000        -0.000000000000
   26       1169.530000000000        -0.000000000001
   27        259.644000000000        -0.000000000007
   28         39.221100000000        -0.000000001744
   29         24.493400000000         0.000000017341
   30         15.296900000000        -0.000000077038
   31          6.038960000000         0.000000492323
   32          3.762280000000         0.000000237436
   33          1.807100000000        -0.000001631673
   34          0.974305000000        -0.000010808134
   35          0.497203000000         0.000016696080
   36          0.162020000000         0.000061088553
   37          0.071460000000        -0.000069379416
   38       7844.890000000000         0.000000000049
   39       1169.530000000000         0.000000002469
   40        259.644000000000         0.000000042994
   41         39.221100000000         0.000006330428
   42         24.493400000000        -0.000072309654
   43         15.296900000000         0.000356959579
   44          6.038960000000        -0.002199221394
   45          3.762280000000        -0.003671033908
   46          1.807100000000         0.027154986404
   47          0.974305000000         0.028682293754
   48          0.497203000000        -0.179910011445
   49          0.162020000000         0.266617688581
   50          0.071460000000         0.347919355564
   51       7844.890000000000        -0.000000000052
   52       1169.530000000000        -0.000000002541
   53        259.644000000000        -0.000000042847
   54         39.221100000000        -0.000006311135
   55         24.493400000000         0.000072141152
   56         15.296900000000        -0.000356348265
   57          6.038960000000         0.002197487520
   58          3.762280000000         0.003668288218
   59          1.807100000000        -0.027248149174
   60          0.974305000000        -0.028150892431
   61          0.497203000000         0.179165572098
   62          0.162020000000        -0.265301724166
   63          0.071460000000        -0.358026589269
   64          0.031310000000         0.046237219814
   65          0.013700000000        -0.099442494266
   66         78.340600000000         0.000005886306
   67         21.023500000000         0.000058475549
   68          7.518730000000        -0.000555932892
   69          3.689330000000         0.001514164276
   70          2.019340000000         0.004438403030
   71          1.071760000000         0.006004658338
   72          0.551662000000         0.005553202742
   73          0.273933000000         0.003782901169
   74          0.130111000000         0.001700883771
   75         78.340600000000        -0.000049214063
   76         21.023500000000        -0.000423998039
   77          7.518730000000         0.004221808987
   78          3.689330000000        -0.012604855811
   79          2.019340000000        -0.042204713726
   80          1.071760000000        -0.041230780140
   81          0.551662000000         0.008375223052
   82          0.273933000000         0.053064615719
   83          0.130111000000         0.052622067774
   84         78.340600000000         0.000045123259
   85         21.023500000000         0.000392358959
   86          7.518730000000        -0.004134112118
   87          3.689330000000         0.013886741325
   88          2.019340000000         0.051826944007
   89          1.071760000000        -0.002348542992
   90          0.551662000000        -0.065761495433
   91          0.273933000000        -0.015490790101
   92          0.130111000000         0.044664674187
   93         78.340600000000        -0.000010441883
   94         21.023500000000        -0.000294471181
   95          7.518730000000         0.003174357355
   96          3.689330000000        -0.014373187109
   97          2.019340000000        -0.020157003596
   98          1.071760000000         0.039700059937
   99          0.551662000000         0.000417119047
  100          0.273933000000        -0.029407575411
  101          0.130111000000         0.008159129694
  102          0.057473000000        -0.473258842560
  103          0.025400000000         1.289487443241
 P 52
    1         98.824300000000        -0.000051953679
    2         27.985900000000         0.000763130902
    3         17.487300000000        -0.004777287708
    4          6.786380000000         0.032557964861
    5          1.987880000000        -0.067007010908
    6          1.065730000000        -0.073052752573
    7          0.583829000000        -0.038592923676
    8          0.314636000000        -0.010205956926
    9          0.135737000000        -0.000992511302
   10          0.060277000000         0.000013886991
   11         98.824300000000         0.000341178102
   12         27.985900000000        -0.004535663292
   13         17.487300000000         0.044680966342
   14          6.786380000000        -0.364023773607
   15          1.987880000000         0.924539438327
   16          1.065730000000         0.943257411292
   17          0.583829000000         0.676141629934
   18          0.314636000000        -0.846877911449
   19          0.135737000000        -2.817195468525
   20          0.060277000000        -3.159156384419
   21         98.824300000000        -0.000637947724
   22         27.985900000000         0.008708372194
   23         17.487300000000        -0.061942428288
   24          6.786380000000         0.468672599433
   25          1.987880000000        -1.308096649495
   26          1.065730000000        -1.261219013449
   27          0.583829000000        -0.127020792899
   28          0.314636000000         2.109051677196
   29          0.135737000000         2.049203716054
   30          0.060277000000         0.382130749024
   31         98.824300000000         0.000414024580
   32         27.985900000000        -0.005814130824
   33         17.487300000000         0.031323580358
   34          6.786380000000        -0.221379651162
   35          1.987880000000         0.855416347347
   36          1.065730000000         0.341179994427
   37          0.583829000000        -0.981378641610
   38          0.314636000000        -0.669506451410
   39          0.135737000000         0.764002875289
   40          0.060277000000         0.372059906367
   41         98.824300000000        -0.000001423872
   42         27.985900000000         0.000209467061
   43         17.487300000000        -0.005885961231
   44          6.786380000000         0.061423527188
   45          1.987880000000        -0.417417391622
   46          1.065730000000         0.434395614820
   47          0.583829000000         0.101000145781
   48          0.314636000000        -0.301316315835
   49          0.135737000000         0.030926609714
   50          0.060277000000         0.107559439220
   51          0.026540000000         2.858683391342
   52          0.011700000000        -1.141974765351
 D 104
    1       7844.890000000000         0.000000000000
    2       1169.530000000000         0.000000000009
    3        259.644000000000         0.000000000151
    4         39.221100000000         0.000000023949
    5         24.493400000000        -0.000000279624
    6         15.296900000000         0.000001324942
    7          6.038960000000        -0.000007162515
    8          3.762280000000        -0.000007583725
    9          1.807100000000         0.000026591133
   10          0.974305000000         0.000064730087
   11          0.497203000000         0.000046096666
   12          0.162020000000         0.000007432690
   13       7844.890000000000        -0.000000000001
   14       1169.530000000000        -0.000000000037
   15        259.644000000000        -0.000000000690
   16         39.221100000000        -0.000000091920
   17         24.493400000000         0.000001111895
   18         15.296900000000        -0.000005526626
   19          6.038960000000         0.000034095659
   20          3.762280000000         0.000028243604
   21          1.807100000000        -0.000137043573
   22          0.974305000000        -0.000416211341
   23          0.497203000000        -0.000484043810
   24          0.162020000000         0.002490387106
   25          0.071460000000         0.011475156915
   26       7844.890000000000        -0.000000000001
   27       1169.530000000000        -0.000000000029
   28        259.644000000000        -0.000000000362
   29         39.221100000000        -0.000000094609
   30         24.493400000000         0.000000940618
   31         15.296900000000        -0.000004178738
   32          6.038960000000         0.000026704956
   33          3.762280000000         0.000012879165
   34          1.807100000000        -0.000088506390
   35          0.974305000000        -0.000586262513
   36          0.497203000000         0.000905640717
   37          0.162020000000         0.003313608958
   38          0.071460000000        -0.003763327869
   39       7844.890000000000        -0.000000000175
   40       1169.530000000000        -0.000000008826
   41        259.644000000000        -0.000000153723
   42         39.221100000000        -0.000022633931
   43         24.493400000000         0.000258537297
   44         15.296900000000        -0.001276279983
   45          6.038960000000         0.007863137486
   46          3.762280000000         0.013125483598
   47          1.807100000000        -0.097090448513
   48          0.974305000000        -0.102551211905
   49          0.497203000000         0.643253634651
   50          0.162020000000        -0.953269892345
   51          0.071460000000        -1.243957399785
   52       7844.890000000000         0.000000000187
   53       1169.530000000000         0.000000009104
   54        259.644000000000         0.000000153496
   55         39.221100000000         0.000022609198
   56         24.493400000000        -0.000258440623
   57         15.296900000000         0.001276592687
   58          6.038960000000        -0.007872345044
   59          3.762280000000        -0.013141385475
   60          1.807100000000         0.097614584924
   61          0.974305000000         0.100848599379
   62          0.497203000000        -0.641848106503
[...]
  BAS[ATNO][ 17].a[ 69] =        98.824300000000;     BAS[ATNO][ 17].d[ 69] =        -0.000036973435;
  BAS[ATNO][ 17].a[ 70] =        27.985900000000;     BAS[ATNO][ 17].d[ 70] =         0.000519216488;
  BAS[ATNO][ 17].a[ 71] =        17.487300000000;     BAS[ATNO][ 17].d[ 71] =        -0.002797274412;
  BAS[ATNO][ 17].a[ 72] =         6.786380000000;     BAS[ATNO][ 17].d[ 72] =         0.019769758966;
  BAS[ATNO][ 17].a[ 73] =         1.987880000000;     BAS[ATNO][ 17].d[ 73] =        -0.076390828667;
  BAS[ATNO][ 17].a[ 74] =         1.065730000000;     BAS[ATNO][ 17].d[ 74] =        -0.030468230564;
  BAS[ATNO][ 17].a[ 75] =         0.583829000000;     BAS[ATNO][ 17].d[ 75] =         0.087639577968;
  BAS[ATNO][ 17].a[ 76] =         0.314636000000;     BAS[ATNO][ 17].d[ 76] =         0.059788607945;
  BAS[ATNO][ 17].a[ 77] =         0.135737000000;     BAS[ATNO][ 17].d[ 77] =        -0.068227375977;
  BAS[ATNO][ 17].a[ 78] =         0.060277000000;     BAS[ATNO][ 17].d[ 78] =        -0.033225884272;
  BAS[ATNO][ 17].a[ 79] =        98.824300000000;     BAS[ATNO][ 17].d[ 79] =        -0.000015848948;
  BAS[ATNO][ 17].a[ 80] =        27.985900000000;     BAS[ATNO][ 17].d[ 80] =         0.002331551958;
  BAS[ATNO][ 17].a[ 81] =        17.487300000000;     BAS[ATNO][ 17].d[ 81] =        -0.065515906721;
  BAS[ATNO][ 17].a[ 82] =         6.786380000000;     BAS[ATNO][ 17].d[ 82] =         0.683697686754;
  BAS[ATNO][ 17].a[ 83] =         1.987880000000;     BAS[ATNO][ 17].d[ 83] =        -4.646221376854;
  BAS[ATNO][ 17].a[ 84] =         1.065730000000;     BAS[ATNO][ 17].d[ 84] =         4.835203880089;
  BAS[ATNO][ 17].a[ 85] =         0.583829000000;     BAS[ATNO][ 17].d[ 85] =         1.124220135077;
  BAS[ATNO][ 17].a[ 86] =         0.314636000000;     BAS[ATNO][ 17].d[ 86] =        -3.353914656951;
  BAS[ATNO][ 17].a[ 87] =         0.135737000000;     BAS[ATNO][ 17].d[ 87] =         0.344240268980;
  BAS[ATNO][ 17].a[ 88] =         0.060277000000;     BAS[ATNO][ 17].d[ 88] =         1.197230819356;
  BAS[ATNO][ 17].a[ 89] =        98.824300000000;     BAS[ATNO][ 17].d[ 89] =         0.000000559144;
  BAS[ATNO][ 17].a[ 90] =        27.985900000000;     BAS[ATNO][ 17].d[ 90] =        -0.000082256210;
  BAS[ATNO][ 17].a[ 91] =        17.487300000000;     BAS[ATNO][ 17].d[ 91] =         0.002311374687;
  BAS[ATNO][ 17].a[ 92] =         6.786380000000;     BAS[ATNO][ 17].d[ 92] =        -0.024120577821;
  BAS[ATNO][ 17].a[ 93] =         1.987880000000;     BAS[ATNO][ 17].d[ 93] =         0.163916810699;
  BAS[ATNO][ 17].a[ 94] =         1.065730000000;     BAS[ATNO][ 17].d[ 94] =        -0.170584036967;
  BAS[ATNO][ 17].a[ 95] =         0.583829000000;     BAS[ATNO][ 17].d[ 95] =        -0.039662031599;
  BAS[ATNO][ 17].a[ 96] =         0.314636000000;     BAS[ATNO][ 17].d[ 96] =         0.118324752381;
  BAS[ATNO][ 17].a[ 97] =         0.135737000000;     BAS[ATNO][ 17].d[ 97] =        -0.012144657439;
  BAS[ATNO][ 17].a[ 98] =         0.060277000000;     BAS[ATNO][ 17].d[ 98] =        -0.042237819007;
  BAS[ATNO][ 17].a[ 99] =         0.026540000000;     BAS[ATNO][ 17].d[ 99] =         0.848322335523;
  BAS[ATNO][ 17].a[100] =         0.026540000000;     BAS[ATNO][ 17].d[100] =        -0.029928468836;
  BAS[ATNO][ 17].a[101] =         0.011700000000;     BAS[ATNO][ 17].d[101] =        -0.270315573429;
  BAS[ATNO][ 17].a[102] =         0.011700000000;     BAS[ATNO][ 17].d[102] =         0.009536624083;

  // Basis function  19 L = d
  InitBFNGauss(BAS[ATNO][ 18]);
  BAS[ATNO][ 18].l  = 2;
  BAS[ATNO][ 18].ng = 76;
  BAS[ATNO][ 18].a[  0] =        78.340600000000;     BAS[ATNO][ 18].d[  0] =         0.000092608021;
  BAS[ATNO][ 18].a[  1] =        21.023500000000;     BAS[ATNO][ 18].d[  1] =         0.000919983650;
  BAS[ATNO][ 18].a[  2] =         7.518730000000;     BAS[ATNO][ 18].d[  2] =        -0.008746376516;
  BAS[ATNO][ 18].a[  3] =         3.689330000000;     BAS[ATNO][ 18].d[  3] =         0.023822031482;
  BAS[ATNO][ 18].a[  4] =         2.019340000000;     BAS[ATNO][ 18].d[  4] =         0.069828471333;
  BAS[ATNO][ 18].a[  5] =         1.071760000000;     BAS[ATNO][ 18].d[  5] =         0.094470040187;
  BAS[ATNO][ 18].a[  6] =         0.551662000000;     BAS[ATNO][ 18].d[  6] =         0.087367383230;
  BAS[ATNO][ 18].a[  7] =         0.273933000000;     BAS[ATNO][ 18].d[  7] =         0.059515596942;
  BAS[ATNO][ 18].a[  8] =         0.130111000000;     BAS[ATNO][ 18].d[  8] =         0.026759650452;
  BAS[ATNO][ 18].a[  9] =        78.340600000000;     BAS[ATNO][ 18].d[  9] =         0.000091418107;
  BAS[ATNO][ 18].a[ 10] =        21.023500000000;     BAS[ATNO][ 18].d[ 10] =         0.000908162843;
  BAS[ATNO][ 18].a[ 11] =         7.518730000000;     BAS[ATNO][ 18].d[ 11] =        -0.008633994926;
  BAS[ATNO][ 18].a[ 12] =         3.689330000000;     BAS[ATNO][ 18].d[ 12] =         0.023515943837;
  BAS[ATNO][ 18].a[ 13] =         2.019340000000;     BAS[ATNO][ 18].d[ 13] =         0.068931250105;
  BAS[ATNO][ 18].a[ 14] =         1.071760000000;     BAS[ATNO][ 18].d[ 14] =         0.093256201135;
  BAS[ATNO][ 18].a[ 15] =         0.551662000000;     BAS[ATNO][ 18].d[ 15] =         0.086244805729;
  BAS[ATNO][ 18].a[ 16] =         0.273933000000;     BAS[ATNO][ 18].d[ 16] =         0.058750885129;
  BAS[ATNO][ 18].a[ 17] =         0.130111000000;     BAS[ATNO][ 18].d[ 17] =         0.026415817543;
  BAS[ATNO][ 18].a[ 18] =        78.340600000000;     BAS[ATNO][ 18].d[ 18] =        -0.000306353041;
  BAS[ATNO][ 18].a[ 19] =        21.023500000000;     BAS[ATNO][ 18].d[ 19] =        -0.002639349011;
  BAS[ATNO][ 18].a[ 20] =         7.518730000000;     BAS[ATNO][ 18].d[ 20] =         0.026280374811;
  BAS[ATNO][ 18].a[ 21] =         3.689330000000;     BAS[ATNO][ 18].d[ 21] =        -0.078464074563;
  BAS[ATNO][ 18].a[ 22] =         2.019340000000;     BAS[ATNO][ 18].d[ 22] =        -0.262720482832;
  BAS[ATNO][ 18].a[ 23] =         1.071760000000;     BAS[ATNO][ 18].d[ 23] =        -0.256657835335;
  BAS[ATNO][ 18].a[ 24] =         0.551662000000;     BAS[ATNO][ 18].d[ 24] =         0.052134997490;
  BAS[ATNO][ 18].a[ 25] =         0.273933000000;     BAS[ATNO][ 18].d[ 25] =         0.330322379474;
  BAS[ATNO][ 18].a[ 26] =         0.130111000000;     BAS[ATNO][ 18].d[ 26] =         0.327567558994;
  BAS[ATNO][ 18].a[ 27] =        78.340600000000;     BAS[ATNO][ 18].d[ 27] =        -0.000302416732;
  BAS[ATNO][ 18].a[ 28] =        21.023500000000;     BAS[ATNO][ 18].d[ 28] =        -0.002605436197;
  BAS[ATNO][ 18].a[ 29] =         7.518730000000;     BAS[ATNO][ 18].d[ 29] =         0.025942700081;
  BAS[ATNO][ 18].a[ 30] =         3.689330000000;     BAS[ATNO][ 18].d[ 30] =        -0.077455895063;
  BAS[ATNO][ 18].a[ 31] =         2.019340000000;     BAS[ATNO][ 18].d[ 31] =        -0.259344805409;
  BAS[ATNO][ 18].a[ 32] =         1.071760000000;     BAS[ATNO][ 18].d[ 32] =        -0.253360056453;
  BAS[ATNO][ 18].a[ 33] =         0.551662000000;     BAS[ATNO][ 18].d[ 33] =         0.051465118491;
  BAS[ATNO][ 18].a[ 34] =         0.273933000000;     BAS[ATNO][ 18].d[ 34] =         0.326078089928;
  BAS[ATNO][ 18].a[ 35] =         0.130111000000;     BAS[ATNO][ 18].d[ 35] =         0.323358665947;
  BAS[ATNO][ 18].a[ 36] =        78.340600000000;     BAS[ATNO][ 18].d[ 36] =         0.000228745772;
  BAS[ATNO][ 18].a[ 37] =        21.023500000000;     BAS[ATNO][ 18].d[ 37] =         0.001989006431;
  BAS[ATNO][ 18].a[ 38] =         7.518730000000;     BAS[ATNO][ 18].d[ 38] =        -0.020957277533;
  BAS[ATNO][ 18].a[ 39] =         3.689330000000;     BAS[ATNO][ 18].d[ 39] =         0.070396806782;
  BAS[ATNO][ 18].a[ 40] =         2.019340000000;     BAS[ATNO][ 18].d[ 40] =         0.262729122545;
  BAS[ATNO][ 18].a[ 41] =         1.071760000000;     BAS[ATNO][ 18].d[ 41] =        -0.011905595657;
  BAS[ATNO][ 18].a[ 42] =         0.551662000000;     BAS[ATNO][ 18].d[ 42] =        -0.333368295651;
  BAS[ATNO][ 18].a[ 43] =         0.273933000000;     BAS[ATNO][ 18].d[ 43] =        -0.078528297757;
  BAS[ATNO][ 18].a[ 44] =         0.130111000000;     BAS[ATNO][ 18].d[ 44] =         0.226421041847;
  BAS[ATNO][ 18].a[ 45] =        78.340600000000;     BAS[ATNO][ 18].d[ 45] =         0.000225806633;
  BAS[ATNO][ 18].a[ 46] =        21.023500000000;     BAS[ATNO][ 18].d[ 46] =         0.001963449824;
  BAS[ATNO][ 18].a[ 47] =         7.518730000000;     BAS[ATNO][ 18].d[ 47] =        -0.020687998915;
  BAS[ATNO][ 18].a[ 48] =         3.689330000000;     BAS[ATNO][ 18].d[ 48] =         0.069492283052;
  BAS[ATNO][ 18].a[ 49] =         2.019340000000;     BAS[ATNO][ 18].d[ 49] =         0.259353334111;
  BAS[ATNO][ 18].a[ 50] =         1.071760000000;     BAS[ATNO][ 18].d[ 50] =        -0.011752621477;
  BAS[ATNO][ 18].a[ 51] =         0.551662000000;     BAS[ATNO][ 18].d[ 51] =        -0.329084869338;
  BAS[ATNO][ 18].a[ 52] =         0.273933000000;     BAS[ATNO][ 18].d[ 52] =        -0.077519293057;
  BAS[ATNO][ 18].a[ 53] =         0.130111000000;     BAS[ATNO][ 18].d[ 53] =         0.223511773446;
  BAS[ATNO][ 18].a[ 54] =        78.340600000000;     BAS[ATNO][ 18].d[ 54] =        -0.000417257196;
  BAS[ATNO][ 18].a[ 55] =        21.023500000000;     BAS[ATNO][ 18].d[ 55] =        -0.011767055897;
  BAS[ATNO][ 18].a[ 56] =         7.518730000000;     BAS[ATNO][ 18].d[ 56] =         0.126847185360;
  BAS[ATNO][ 18].a[ 57] =         3.689330000000;     BAS[ATNO][ 18].d[ 57] =        -0.574351947624;
  BAS[ATNO][ 18].a[ 58] =         2.019340000000;     BAS[ATNO][ 18].d[ 58] =        -0.805473009274;
  BAS[ATNO][ 18].a[ 59] =         1.071760000000;     BAS[ATNO][ 18].d[ 59] =         1.586412712296;
  BAS[ATNO][ 18].a[ 60] =         0.551662000000;     BAS[ATNO][ 18].d[ 60] =         0.016668059446;
  BAS[ATNO][ 18].a[ 61] =         0.273933000000;     BAS[ATNO][ 18].d[ 61] =        -1.175125466921;
  BAS[ATNO][ 18].a[ 62] =         0.130111000000;     BAS[ATNO][ 18].d[ 62] =         0.326038476728;
  BAS[ATNO][ 18].a[ 63] =        78.340600000000;     BAS[ATNO][ 18].d[ 63] =        -0.000411895887;
  BAS[ATNO][ 18].a[ 64] =        21.023500000000;     BAS[ATNO][ 18].d[ 64] =        -0.011615861805;
  BAS[ATNO][ 18].a[ 65] =         7.518730000000;     BAS[ATNO][ 18].d[ 65] =         0.125217334596;
  BAS[ATNO][ 18].a[ 66] =         3.689330000000;     BAS[ATNO][ 18].d[ 66] =        -0.566972138933;
  BAS[ATNO][ 18].a[ 67] =         2.019340000000;     BAS[ATNO][ 18].d[ 67] =        -0.795123541951;
  BAS[ATNO][ 18].a[ 68] =         1.071760000000;     BAS[ATNO][ 18].d[ 68] =         1.566029004415;
  BAS[ATNO][ 18].a[ 69] =         0.551662000000;     BAS[ATNO][ 18].d[ 69] =         0.016453892696;
  BAS[ATNO][ 18].a[ 70] =         0.273933000000;     BAS[ATNO][ 18].d[ 70] =        -1.160026360581;
  BAS[ATNO][ 18].a[ 71] =         0.130111000000;     BAS[ATNO][ 18].d[ 71] =         0.321849230755;
  BAS[ATNO][ 18].a[ 72] =         0.057473000000;     BAS[ATNO][ 18].d[ 72] =        -0.528662476552;
  BAS[ATNO][ 18].a[ 73] =         0.057473000000;     BAS[ATNO][ 18].d[ 73] =        -0.521869728734;
  BAS[ATNO][ 18].a[ 74] =         0.025400000000;     BAS[ATNO][ 18].d[ 74] =         0.185599568330;
  BAS[ATNO][ 18].a[ 75] =         0.025400000000;     BAS[ATNO][ 18].d[ 75] =         0.183214812235;

-------------------------------------------
RADIAL EXPECTATION VALUES <R**-3> TO <R**3>
-------------------------------------------
   0 :     0.000000     1.425570     1.135014     0.972086     1.042193     1.233288
   1 :     1.650499     1.241236     1.052687     1.061679     1.258877     1.666750
   2 :     1.648685     1.240148     1.052129     1.062516     1.261298     1.672590
   3 :     1.648685     1.240148     1.052129     1.062516     1.261298     1.672590
   4 :     0.993199     0.829502     0.832909     1.438103     2.483449    25.731831
   5 :     0.996788     0.832203     0.834727     1.432705     2.459968    25.285332
   6 :     0.995314     0.831184     0.834092     1.434394     2.467058    25.418427
   7 :     0.000000     0.192492     0.372363     3.267417    12.386710    53.660714
   8 :     0.000000     0.020113     0.115370     9.867489   104.358912  1165.435104
   9 :     0.000000     0.087263     0.214146     7.081134    64.817598   701.262520
  10 :     0.000000     0.173036     0.290702     5.398706    40.684361   395.229839
  11 :     0.000000     0.000044     0.000050     0.000293     0.001574     0.013427
  12 :     0.000000     0.000301     0.000336     0.001320     0.004514     0.022616
  13 :     0.000000     0.689125     0.692843     2.114811     6.656687    32.065660
  14 :     0.995314     0.831184     0.834092     1.434394     2.467058    25.418427
  15 :     0.990533     0.827911     0.832051     1.439824     2.489883    25.840042
  16 :     0.006155     0.018380     0.114984    10.347651   119.639213  1498.419322
  17 :     0.005686     0.017591     0.113126    10.446627   121.477907  1526.994487
  18 :     0.005686     0.017591     0.113126    10.446627   121.477907  1526.994487
  19 :     0.025184     0.047485     0.174523     8.220943    89.543155  1163.012889
  20 :     0.024604     0.046910     0.174119     8.183253    88.594307  1146.300730
  21 :     0.024604     0.046910     0.174119     8.183253    88.594307  1146.300730
  22 :     0.003905     0.016272     0.119391     8.913472    83.476249  4086.590290
  23 :     0.003917     0.016273     0.119367     8.915042    83.501734  4088.250204
  24 :     0.003917     0.016273     0.119367     8.915042    83.501734  4088.250204
  25 :     0.004019     0.016343     0.119407     8.915656    83.515521  4089.264640
  26 :     0.003952     0.016276     0.119298     8.919818    83.579516  4093.248346
  27 :     0.054808     0.078728     0.219692     6.699382    61.102289   696.365693
  28 :     0.054935     0.079082     0.220657     6.658394    60.449380   687.227301
  29 :     0.054935     0.079082     0.220657     6.658394    60.449380   687.227301
  30 :     0.031876     0.055413     0.196866     6.141529    44.585829  1898.085771
  31 :     0.032021     0.055500     0.196900     6.141648    44.582763  1897.666081
  32 :     0.032021     0.055500     0.196900     6.141648    44.582763  1897.666081
  33 :     0.033153     0.056357     0.197574     6.135914    44.524279  1894.790411
  34 :     0.032431     0.055776     0.197017     6.141918    44.573328  1896.333981
  35 :     0.167908     0.178276     0.331046     4.529926    30.303998   286.253717
  36 :     0.168748     0.179010     0.331898     4.515225    30.123523   284.120891
  37 :     0.168748     0.179010     0.331898     4.515225    30.123523   284.120891
  38 :     0.228071     0.214067     0.357695     3.969656    21.211944   749.082968
  39 :     0.224648     0.211943     0.356505     3.970580    21.197679   747.961676
  40 :     0.224648     0.211943     0.356505     3.970580    21.197679   747.961676
  41 :     0.226619     0.213309     0.357450     3.964357    21.136595   745.024333
  42 :     0.440567     0.407746     0.531511     2.844382    13.582993   110.291470
  43 :     0.441706     0.408656     0.532242     2.839101    13.533592   109.787653
  44 :     0.441706     0.408656     0.532242     2.839101    13.533592   109.787653
  45 :     0.574649     0.512220     0.603540     2.462646     9.572647   291.584085
  46 :     0.574649     0.512220     0.603540     2.462646     9.572647   291.584085
  47 :     0.575176     0.512377     0.603478     2.464269     9.585230   292.015174
  48 :     0.576240     0.513409     0.604350     2.459158     9.547658   290.625802
  49 :     2.152525     1.307243     0.982150     1.627095     5.511705    41.000418
  50 :     2.153281     1.307698     0.982421     1.625944     5.502223    40.906606
  51 :     2.153281     1.307698     0.982421     1.625944     5.502223    40.906606
  52 :     2.920927     1.612168     1.094996     1.476737     4.399536   127.862535
  53 :     2.921197     1.612316     1.095076     1.476484     4.397859   127.800164
  54 :     2.921197     1.612316     1.095076     1.476484     4.397859   127.800164
  55 :     2.921971     1.612756     1.095316     1.475719     4.392760   127.608133
  56 :     2.918128     1.610791     1.094417     1.477195     4.399317   127.795613
  57 :     0.000000     7.701475     1.995809     1.054005     2.333050     8.614104
Making the total density                ... o.k.
o.k.
Initializing the integrals              ... done
Making exponents                        ... done
Making rho(0)                           ... done (         0.009371788)
Integral calculation                    ... Two index integrals                     ... done
Solving the equation system             ... done
atomic density will be written to file 46_Pd_atom46.adf

-------
TIMINGS
-------

Total SCF time: 0 days 0 hours 0 min 2 sec 

Total time                  ....       2.254 sec
Sum of individual times     ....       1.162 sec  ( 51.6%)

Fock matrix formation       ....       1.095 sec  ( 48.6%)
Diagonalization             ....       0.060 sec  (  2.7%)
Density matrix formation    ....       0.001 sec  (  0.1%)
Population analysis         ....       0.000 sec  (  0.0%)
Initial guess               ....       0.000 sec  (  0.0%)
Orbital Transformation      ....       0.000 sec  (  0.0%)
Orbital Orthonormalization  ....       0.000 sec  (  0.0%)
DIIS solution               ....       0.005 sec  (  0.2%)

-------------------------   --------------------
FINAL SINGLE POINT ENERGY      -126.535523909675
-------------------------   --------------------


                            ***************************************
                            *     ORCA property calculations      *
                            ***************************************

                                    ---------------------
                                    Active property flags
                                    ---------------------
   (+) Dipole Moment


------------------------------------------------------------------------------
                       ORCA ELECTRIC PROPERTIES CALCULATION
------------------------------------------------------------------------------

Dipole Moment Calculation                       ... on
Quadrupole Moment Calculation                   ... off
Polarizability Calculation                      ... off
GBWName                                         ... 46_Pd_atom46.gbw
Electron density file                           ... 46_Pd_atom46.scfp
The origin for moment calculation is the CENTER OF MASS  = ( 0.000000,  0.000000  0.000000)

-------------
DIPOLE MOMENT
-------------
                                X             Y             Z
Electronic contribution:     -0.00000      -0.00000       0.00000
Nuclear contribution   :      0.00000       0.00000       0.00000
                        -----------------------------------------
Total Dipole Moment    :     -0.00000      -0.00000       0.00000
                        -----------------------------------------
Magnitude (a.u.)       :      0.00000
Magnitude (Debye)      :      0.00000



--------------------
Rotational spectrum 
--------------------
 
Rotational constants in cm-1:     0.000000     0.000000     0.000000 
Rotational constants in MHz :     0.000000     0.000000     0.000000 

 Dipole components along the rotational axes: 
x,y,z [a.u.] :    -0.000000    -0.000000     0.000000 
x,y,z [Debye]:    -0.000000    -0.000000     0.000000 

 

Timings for individual modules:

Sum of individual times         ...       29.244 sec (=   0.487 min)
GTO integral calculation        ...       26.972 sec (=   0.450 min)  92.2 %
SCF iterations                  ...        2.272 sec (=   0.038 min)   7.8 %
                             ****ORCA TERMINATED NORMALLY****
TOTAL RUN TIME: 0 days 0 hours 0 minutes 29 seconds 413 msec
