
                                 *****************
                                 * O   R   C   A *
                                 *****************

           --- An Ab Initio, DFT and Semiempirical electronic structure package ---

                  #######################################################
                  #                        -***-                        #
                  #          Department of theory and spectroscopy      #
                  #               Directorship: Frank Neese             #
                  #        Max Planck Institute fuer Kohlenforschung    #
                  #                Kaiser Wilhelm Platz 1               #
                  #                 D-45470 Muelheim/Ruhr               #
                  #                      Germany                        #
                  #                                                     #
                  #                  All rights reserved                #
                  #                        -***-                        #
                  #######################################################


                         Program Version 4.2.0 -  RELEASE  -


 With contributions from (in alphabetic order):
   Daniel Aravena         : Magnetic Suceptibility
   Michael Atanasov       : Ab Initio Ligand Field Theory (pilot matlab implementation)
   Alexander A. Auer      : GIAO ZORA, VPT2
   Ute Becker             : Parallelization
   Giovanni Bistoni       : ED, misc. LED, open-shell LED, HFLED
   Martin Brehm           : Molecular dynamics
   Dmytro Bykov           : SCF Hessian
   Vijay G. Chilkuri      : MRCI spin determinant printing, contributions to CSF-ICE
   Dipayan Datta          : RHF DLPNO-CCSD density
   Achintya Kumar Dutta   : EOM-CC, STEOM-CC
   Dmitry Ganyushin       : Spin-Orbit,Spin-Spin,Magnetic field MRCI
   Miquel Garcia          : C-PCM Hessian, Gaussian charge scheme
   Yang Guo               : DLPNO-NEVPT2, CIM, IAO-localization
   Andreas Hansen         : Spin unrestricted coupled pair/coupled cluster methods
   Benjamin Helmich-Paris : CASSCF linear response (MC-RPA)
   Lee Huntington         : MR-EOM, pCC
   Robert Izsak           : Overlap fitted RIJCOSX, COSX-SCS-MP3, EOM
   Christian Kollmar      : KDIIS, OOCD, Brueckner-CCSD(T), CCSD density
   Simone Kossmann        : Meta GGA functionals, TD-DFT gradient, OOMP2, MP2 Hessian
   Martin Krupicka        : AUTO-CI
   Lucas Lang             : DCDCAS
   Dagmar Lenk            : GEPOL surface, SMD
   Dimitrios Liakos       : Extrapolation schemes; Compound Job, initial MDCI parallelization
   Dimitrios Manganas     : Further ROCIS development; embedding schemes
   Dimitrios Pantazis     : SARC Basis sets
   Taras Petrenko         : DFT Hessian,TD-DFT gradient, ASA, ECA, R-Raman, ABS, FL, XAS/XES, NRVS
   Peter Pinski           : DLPNO-MP2, DLPNO-MP2 Gradient
   Christoph Reimann      : Effective Core Potentials
   Marius Retegan         : Local ZFS, SOC
   Christoph Riplinger    : Optimizer, TS searches, QM/MM, DLPNO-CCSD(T), (RO)-DLPNO pert. Triples
   Tobias Risthaus        : Range-separated hybrids, TD-DFT gradient, RPA, STAB
   Michael Roemelt        : Original ROCIS implementation
   Masaaki Saitow         : Open-shell DLPNO-CCSD energy and density
   Barbara Sandhoefer     : DKH picture change effects
   Avijit Sen             : IP-ROCIS
   Kantharuban Sivalingam : CASSCF convergence, NEVPT2, FIC-MRCI
   Bernardo de Souza      : ESD, SOC TD-DFT
   Georgi Stoychev        : AutoAux, RI-MP2 NMR
   Willem Van den Heuvel  : Paramagnetic NMR
   Boris Wezisla          : Elementary symmetry handling
   Frank Wennmohs         : Technical directorship


 We gratefully acknowledge several colleagues who have allowed us to
 interface, adapt or use parts of their codes:
   Stefan Grimme, W. Hujo, H. Kruse,             : VdW corrections, initial TS optimization,
                  C. Bannwarth                     DFT functionals, gCP, sTDA/sTD-DF
   Ed Valeev, F. Pavosevic, A. Kumar             : LibInt (2-el integral package), F12 methods
   Garnet Chan, S. Sharma, J. Yang, R. Olivares  : DMRG
   Ulf Ekstrom                                   : XCFun DFT Library
   Mihaly Kallay                                 : mrcc  (arbitrary order and MRCC methods)
   Andreas Klamt, Michael Diedenhofen            : otool_cosmo (COSMO solvation model)
   Jiri Pittner, Ondrej Demel                    : Mk-CCSD
   Frank Weinhold                                : gennbo (NPA and NBO analysis)
   Christopher J. Cramer and Donald G. Truhlar   : smd solvation model
   Lars Goerigk                                  : TD-DFT with DH, B97 family of functionals
   V. Asgeirsson, H. Jonsson                     : NEB implementation
   FAccTs GmbH                                   : IRC, NEB, NEB-TS, Multilevel, MM, QM/MM, CI optimization
   S Lehtola, MJT Oliveira, MAL Marques          : LibXC Library


 Your calculation uses the libint2 library for the computation of 2-el integrals
 For citations please refer to: http://libint.valeyev.net

 Your ORCA version has been built with support for libXC version: 4.2.3
 For citations please refer to: https://tddft.org/programs/libxc/

 This ORCA versions uses:
   CBLAS   interface :  Fast vector & matrix operations
   LAPACKE interface :  Fast linear algebra routines
   SCALAPACK package :  Parallel linear algebra routines


----- Orbital basis set information -----
Your calculation utilizes the basis: aug-cc-pVQZ-PP 
       Ca, Sr, Ba, Ra : Obtained from the Peterson Research Group Website (tyr0.chem.wsu.edu/~kipeters) Feb. 2017
                        H. Li, H. Feng, W. Sun, Y. Zhang, Q. Fan, K. A. Peterson, Y. Xie, H. F. Schaefer III, Mol. Phys. 111, 2292 (2013)
  Cu-Zn, Ag-Cd, Au-Hg : Obtained from the ccRepo (grant-hill.group.shef.ac.uk/ccrepo) Feb. 2017
                        K. A. Peterson, C. Puzzarini, Theor. Chem. Acc. 114, 283 (2005)
  Ga-Kr, In-Xe, Tl-Rn : Obtained from the ccRepo (grant-hill.group.shef.ac.uk/ccrepo) Feb. 2017
                        K. A. Peterson, J. Chem. Phys. 119, 11099 (2003)
                        K. A. Peterson, D. Figgen, E. Goll, H. Stoll, M. Dolg, J. Chem. Phys. 119, 11113 (2003)
                 Y-Pd : Obtained from the ccRepo (grant-hill.group.shef.ac.uk/ccrepo) Feb. 2017
                        K. A. Peterson, D. Figgen, M. Dolg, H. Stoll, J. Chem. Phys. 126, 124101 (2007)
                Hf-Pt : Obtained from the ccRepo (grant-hill.group.shef.ac.uk/ccrepo) Feb. 2017
                        D. Figgen, K. A. Peterson, M. Dolg, H. Stoll, J. Chem. Phys. 130, 164108 (2009)

cite the ECPs for In [SK MCDHF RSC] as follows:
O: B. Metz and H. Stoll, private communication (KAP)
Tl: B. Metz, M. Schweizer, H. Stoll, M. Dolg, W. Liu, Theor. Chem. Acc. 104, 22 (2000)
Ga-As, In-Sb, Pb-Bi: B. Metz, H. Stoll, M. Dolg, J. Chem. Phys. 113, 2563 (2000)
Se-Kr, Te-Xe, Po-Rn: K.A. Peterson, D. Figgen, E. Goll, H. Stoll, and M. Dolg, J. Chem. Phys., in press (2003)
Cu-Zn, Ag-Cd, Au-Hg: D. Figgen, G. Rauhut, M. Dolg, and H. Stoll, Chem. Phys. 311, 227 (2005)
Y-Pd: K.A. Peterson, D. Figgen, M. Dolg, H. Stoll, J. Chem. Phys. 126, 124101 (2007)
I: K. A. Peterson, B. C. Shepler, D. Figgen, H. Stoll, J. Phys. Chem. A 110, 13877 (2006)
Hf-Pt: D. Figgen, K.A. Peterson, M. Dolg, H. Stoll, J. Chem. Phys. 130, 164108 (2009)
Ca, Sr, Ba, Ra: I.S. Lim, H. Stoll, P. Schwerdtfeger, J. Chem. Phys. 124, 034107 (2006)

ECP parameters for In [SK MCDHF RSC] have been obtained from:
cc-pVDZ-PP  EMSL  Basis Set Exchange Library   4/7/16 5:27 AM
Ca, Sr, Ba, Ra: http://www.tc.uni-koeln.de/PP/index.en.html 3/16/17 1:54 PM

================================================================================
                                        WARNINGS
                       Please study these warnings very carefully!
================================================================================


WARNING: your system is open-shell and RHF/RKS was chosen
  ===> : WILL SWITCH to UHF/UKS


WARNING: MDCI localization with Augmented Hessian Foster-Boys
  ===> : Switching off randomization!

WARNING: Post HF methods need fully converged wavefunctions
  ===> : Setting SCFConvForced true
         You can overwrite this default with %scf ConvForced false 


INFO   : the flag for use of LIBINT has been found!

================================================================================
                                       INPUT FILE
================================================================================
NAME = 49_In.in
|  1> #
|  2> # 49_In CCSD(T)/aug-cc-pVQZ-PP
|  3> #
|  4> ! CCSD(T) aug-cc-pVQZ-PP tightscf
|  5> 
|  6> *xyz 0 2
|  7>  In 0.0 0.0 0.0
|  8> *
|  9> 
| 10> %maxcore 5000 
| 11> 
| 12> %pal
| 13> nprocs 24
| 14> end
| 15> 
| 16> 
| 17>                          ****END OF INPUT****
================================================================================

                       ****************************
                       * Single Point Calculation *
                       ****************************

---------------------------------
CARTESIAN COORDINATES (ANGSTROEM)
---------------------------------
  In     0.000000    0.000000    0.000000

----------------------------
CARTESIAN COORDINATES (A.U.)
----------------------------
  NO LB      ZA    FRAG     MASS         X           Y           Z
   0 In   21.0000*   0   114.820    0.000000    0.000000    0.000000
* core charge reduced due to ECP

--------------------------------
INTERNAL COORDINATES (ANGSTROEM)
--------------------------------
 In     0   0   0     0.000000000000     0.00000000     0.00000000

---------------------------
INTERNAL COORDINATES (A.U.)
---------------------------
 In     0   0   0     0.000000000000     0.00000000     0.00000000

---------------------
BASIS SET INFORMATION
---------------------
There are 1 groups of distinct atoms

 Group   1 Type In  : 25s19p13d3f2g contracted to 7s7p5d3f2g pattern {101011111/7711111/91111/111/11}

Atom   0In   basis set group =>   1
-------------------------
ECP PARAMETER INFORMATION
-------------------------

 Group 1, Type In ECP SK MCDHF RSC (replacing 28 core electrons, lmax=4)

Atom   0In   ECP group =>   1



           ************************************************************
           *        Program running with 24 parallel MPI-processes    *
           *              working on a common directory               *
           ************************************************************
------------------------------------------------------------------------------
                           ORCA GTO INTEGRAL CALCULATION
------------------------------------------------------------------------------

                         BASIS SET STATISTICS AND STARTUP INFO

 # of primitive gaussian shells          ...   62
 # of primitive gaussian functions       ...  186
 # of contracted shells                  ...   24
 # of contracted basis functions         ...   92
 Highest angular momentum                ...    4
 Maximum contraction depth               ...   10
 Integral package used                   ... LIBINT
 Integral threshhold            Thresh   ...  2.500e-11
 Primitive cut-off              TCut     ...  2.500e-12


------------------------------ INTEGRAL EVALUATION ----------------------------


 * One electron integrals 

   ECP integrals                         ... done
 Pre-screening matrix                    ... done
 Shell pair data                         ... done (   0.000 sec)



           ************************************************************
           *        Program running with 24 parallel MPI-processes    *
           *              working on a common directory               *
           ************************************************************
-------------------------------------------------------------------------------
                                 ORCA SCF
-------------------------------------------------------------------------------

------------
SCF SETTINGS
------------
Hamiltonian:
 Ab initio Hamiltonian  Method          .... Hartree-Fock(GTOs)


General Settings:
 Integral files         IntName         .... 49_In
 Hartree-Fock type      HFTyp           .... UHF
 Total Charge           Charge          ....    0
 Multiplicity           Mult            ....    2
 Number of Electrons    NEL             ....   21
 Basis Dimension        Dim             ....   92
 Nuclear Repulsion      ENuc            ....      0.0000000000 Eh

Convergence Acceleration:
 DIIS                   CNVDIIS         .... on
   Start iteration      DIISMaxIt       ....    12
   Startup error        DIISStart       ....  0.200000
   # of expansion vecs  DIISMaxEq       ....     5
   Bias factor          DIISBfac        ....   1.050
   Max. coefficient     DIISMaxC        ....  10.000
 Newton-Raphson         CNVNR           .... off
 SOSCF                  CNVSOSCF        .... off
 Level Shifting         CNVShift        .... on
   Level shift para.    LevelShift      ....    0.2500
   Turn off err/grad.   ShiftErr        ....    0.0010
 Zerner damping         CNVZerner       .... off
 Static damping         CNVDamp         .... on
   Fraction old density DampFac         ....    0.7000
   Max. Damping (<1)    DampMax         ....    0.9800
   Min. Damping (>=0)   DampMin         ....    0.0000
   Turn off err/grad.   DampErr         ....    0.1000
 Fernandez-Rico         CNVRico         .... off

SCF Procedure:
 Maximum # iterations   MaxIter         ....   125
 SCF integral mode      SCFMode         .... Direct
   Integral package                     .... LIBINT
 Reset frequency        DirectResetFreq ....    20
 Integral Threshold     Thresh          ....  2.500e-11 Eh
 Primitive CutOff       TCut            ....  2.500e-12 Eh

Convergence Tolerance:
 Convergence Check Mode ConvCheckMode   .... Total+1el-Energy
 Convergence forced     ConvForced      .... 1
 Energy Change          TolE            ....  1.000e-08 Eh
 1-El. energy change                    ....  1.000e-05 Eh
 DIIS Error             TolErr          ....  5.000e-07


Diagonalization of the overlap matrix:
Smallest eigenvalue                        ... 4.133e-04
Time for diagonalization                   ...    0.002 sec
Threshold for overlap eigenvalues          ... 1.000e-08
Number of eigenvalues below threshold      ... 0
Time for construction of square roots      ...    0.001 sec
Total time needed                          ...    0.003 sec

-------------------
DFT GRID GENERATION
-------------------

General Integration Accuracy     IntAcc      ...  4.340
Radial Grid Type                 RadialGrid  ... Gauss-Chebyshev
Angular Grid (max. acc.)         AngularGrid ... Lebedev-110
Angular grid pruning method      GridPruning ... 3 (G Style)
Weight generation scheme         WeightScheme... Becke
Basis function cutoff            BFCut       ...    1.0000e-11
Integration weight cutoff        WCut        ...    1.0000e-14
Grids for H and He will be reduced by one unit

# of grid points (after initial pruning)     ...   3304 (   0.0 sec)
# of grid points (after weights+screening)   ...   3304 (   0.0 sec)
Grid point division into batches done        ...    0.0 sec
Reduced shell lists constructed in    0.0 sec

Total number of grid points                  ...     3304
Total number of batches                      ...       52
Average number of points per batch           ...       63
Average number of grid points per atom       ...     3304
Average number of shells per batch           ...    13.50 (56.25%)
Average number of basis functions per batch  ...    58.50 (63.59%)
Average number of large shells per batch     ...     9.75 (72.22%)
Average number of large basis fcns per batch ...    39.75 (67.95%)
Maximum spatial batch extension              ...  21.54, 32.49, 32.49 au
Average spatial batch extension              ...   1.17,  1.66,  1.87 au

Time for grid setup =    0.025 sec

------------------------------
INITIAL GUESS: MODEL POTENTIAL
------------------------------
Loading Hartree-Fock densities                     ... done
  calling /sw/apps/orca/orca_4_2_0_linux_x86-64_openmpi314/orca 49_In_atom49.inp > 49_In_atom49.out in order to generate an atomic fitting density for atom 0 (In with ECP) on-the-fly... 
    atom 0 (In), assumed electronic state with S=2: 1s2 2s2 2p6 3s2 3p6 4s2 3d10 4p6 5s2 4d10 5p1           ... done
Calculating cut-offs                               ... done
Setting up the integral package                    ... done
Initializing the effective Hamiltonian             ... done
Starting the Coulomb interaction                   ... done (   0.0 sec)
Reading the grid                                   ... done
Mapping shells                                     ... done
Starting the XC term evaluation                    ... done (   0.0 sec)
Transforming the Hamiltonian                       ... done (   0.0 sec)
Diagonalizing the Hamiltonian                      ... done (   0.0 sec)
Back transforming the eigenvectors                 ... done (   0.0 sec)
Now organizing SCF variables                       ... done
                      ------------------
                      INITIAL GUESS DONE (   1.6 sec)
                      ------------------
--------------
SCF ITERATIONS
--------------
ITER       Energy         Delta-E        Max-DP      RMS-DP      [F,P]     Damp
               ***  Starting incremental Fock matrix formation  ***
  0   -183.7518923313   0.000000000000 3.13356156  0.05367720  1.0854853 0.7000
  1   -183.7326591516   0.019233179635 2.03596069  0.03312884  0.5444539 0.7000
  2   -185.3764770878  -1.643817936122 1.47019852  0.02367965  0.4368842 0.7000
  3   -186.5012267745  -1.124749686766 1.07219749  0.01692303  0.3495307 0.7000
  4   -187.2863344058  -0.785107631291 0.77535511  0.01205709  0.2710583 0.7000
  5   -187.8419221455  -0.555587739643 0.55722401  0.00858153  0.2032962 0.7000
                               ***Turning on DIIS***
  6   -188.2372359954  -0.395313849963 0.39904726  0.00610920  0.1480815 0.7000
  7   -188.3619785284  -0.124742532947 0.29226393  0.00445502  0.1052246 0.7000
  8   -188.6919130425  -0.329934514168 0.69845719  0.01067065  0.0718207 0.0000
  9   -189.2194401282  -0.527527085673 0.02445001  0.00048900  0.0134734 0.0000
 10   -189.2670765040  -0.047636375801 0.02076588  0.00041194  0.0090724 0.0000
 11   -189.2542755971   0.012800906893 0.01328017  0.00021071  0.0050763 0.0000
 12   -189.2262630060   0.028012591086 0.00625567  0.00011396  0.0030650 0.0000
 13   -189.2234667900   0.002796216039 0.00483147  0.00009284  0.0017691 0.0000
 14   -189.2194415387   0.004025251310 0.00618088  0.00010142  0.0009705 0.0000
 15   -189.2105565302   0.008885008522 0.00105761  0.00001619  0.0001288 0.0000
 16   -189.2104521228   0.000104407418 0.00035269  0.00000611  0.0000306 0.0000
 17   -189.2105796158  -0.000127493033 0.00006991  0.00000155  0.0000083 0.0000
 18   -189.2106385138  -0.000058898056 0.00001531  0.00000032  0.0000018 0.0000
                            ***DIIS convergence achieved***

               *****************************************************
               *                     SUCCESS                       *
               *           SCF CONVERGED AFTER  19 CYCLES          *
               *****************************************************


----------------
TOTAL SCF ENERGY
----------------

Total Energy       :         -189.21063638 Eh           -5148.68317 eV

Components:
Nuclear Repulsion  :            0.00000000 Eh               0.00000 eV
Electronic Energy  :         -189.21063638 Eh           -5148.68317 eV
One Electron Energy:         -334.82736448 Eh           -9111.11579 eV
Two Electron Energy:          145.61672810 Eh            3962.43262 eV

Virial components:
Potential Energy   :         -262.61148554 Eh           -7146.02182 eV
Kinetic Energy     :           73.40084916 Eh            1997.33865 eV
Virial Ratio       :            3.57777176


---------------
SCF CONVERGENCE
---------------

  Last Energy change         ...    2.1360e-06  Tolerance :   1.0000e-08
  Last MAX-Density change    ...    3.3413e-06  Tolerance :   1.0000e-07
  Last RMS-Density change    ...    6.4464e-08  Tolerance :   5.0000e-09
  Last DIIS Error            ...    1.7388e-07  Tolerance :   5.0000e-07

             **** THE GBW FILE WAS UPDATED (49_In.gbw) ****
             **** DENSITY FILE WAS UPDATED (49_In.scfp) ****
             **** ENERGY FILE WAS UPDATED (49_In.en.tmp) ****
----------------------
UHF SPIN CONTAMINATION
----------------------

Expectation value of <S**2>     :     0.763483
Ideal value S*(S+1) for S=0.5   :     0.750000
Deviation                       :     0.013483

             **** THE GBW FILE WAS UPDATED (49_In.gbw) ****
             **** DENSITY FILE WAS UPDATED (49_In.scfp) ****
----------------
ORBITAL ENERGIES
----------------
                 SPIN UP ORBITALS
  NO   OCC          E(Eh)            E(eV) 
   0   1.0000      -5.373619      -146.2236 
   1   1.0000      -3.627564       -98.7110 
   2   1.0000      -3.627564       -98.7110 
   3   1.0000      -3.623871       -98.6105 
   4   1.0000      -1.015157       -27.6238 
   5   1.0000      -1.015157       -27.6238 
   6   1.0000      -1.008140       -27.4329 
   7   1.0000      -1.008140       -27.4329 
   8   1.0000      -1.005966       -27.3737 
   9   1.0000      -0.424439       -11.5496 
  10   1.0000      -0.201560        -5.4847 
  11   0.0000       0.005816         0.1583 
  12   0.0000       0.005816         0.1583 
  13   0.0000       0.024436         0.6649 
  14   0.0000       0.030257         0.8233 
  15   0.0000       0.031503         0.8572 
  16   0.0000       0.031503         0.8572 
  17   0.0000       0.072155         1.9634 
  18   0.0000       0.072155         1.9634 
  19   0.0000       0.073510         2.0003 
  20   0.0000       0.073510         2.0003 
  21   0.0000       0.074170         2.0183 
  22   0.0000       0.117451         3.1960 
  23   0.0000       0.128842         3.5060 
  24   0.0000       0.128842         3.5060 
  25   0.0000       0.182517         4.9666 
  26   0.0000       0.226834         6.1725 
  27   0.0000       0.228076         6.2063 
  28   0.0000       0.228076         6.2063 
  29   0.0000       0.228869         6.2278 
  30   0.0000       0.228869         6.2278 
  31   0.0000       0.233299         6.3484 
  32   0.0000       0.233299         6.3484 
  33   0.0000       0.233781         6.3615 
  34   0.0000       0.233781         6.3615 
  35   0.0000       0.235912         6.4195 
  36   0.0000       0.235912         6.4195 
  37   0.0000       0.236783         6.4432 
  38   0.0000       0.412769        11.2320 
  39   0.0000       0.417080        11.3493 
  40   0.0000       0.417080        11.3493 
  41   0.0000       0.647751        17.6262 
  42   0.0000       0.647751        17.6262 
  43   0.0000       0.647865        17.6293 
  44   0.0000       0.647865        17.6293 
  45   0.0000       0.647940        17.6313 
  46   0.0000       0.673988        18.3402 
  47   0.0000       0.673988        18.3402 
  48   0.0000       0.679293        18.4845 
  49   0.0000       0.679293        18.4845 
  50   0.0000       0.682295        18.5662 
  51   0.0000       0.682295        18.5662 
  52   0.0000       0.683268        18.5927 
  53   0.0000       0.690791        18.7974 
  54   0.0000       0.690791        18.7974 
  55   0.0000       0.698365        19.0035 
  56   0.0000       0.698365        19.0035 
  57   0.0000       0.703813        19.1517 
  58   0.0000       0.703813        19.1517 
  59   0.0000       0.707082        19.2407 
  60   0.0000       0.707082        19.2407 
  61   0.0000       0.707398        19.2493 
  62   0.0000       0.708192        19.2709 
  63   0.0000       1.366005        37.1709 
  64   0.0000       1.366005        37.1709 
  65   0.0000       1.373672        37.3795 
  66   0.0000       1.550424        42.1892 
  67   0.0000       1.550424        42.1892 
  68   0.0000       1.560608        42.4663 
  69   0.0000       1.560608        42.4663 
  70   0.0000       1.566961        42.6392 
  71   0.0000       1.566961        42.6392 
  72   0.0000       1.569120        42.6979 
  73   0.0000       1.758250        47.8444 
  74   0.0000       1.758250        47.8444 
  75   0.0000       1.766741        48.0755 
  76   0.0000       1.766741        48.0755 
  77   0.0000       1.769639        48.1543 
  78   0.0000       1.862679        50.6861 
  79   0.0000       1.862679        50.6861 
  80   0.0000       1.872537        50.9543 
  81   0.0000       1.872537        50.9543 
  82   0.0000       1.879742        51.1504 
  83   0.0000       1.879742        51.1504 
  84   0.0000       1.884132        51.2698 
  85   0.0000       1.884132        51.2698 
  86   0.0000       1.885607        51.3100 
  87   0.0000       2.743104        74.6437 
  88   0.0000      38.370052      1044.1022 
  89   0.0000      38.370052      1044.1022 
  90   0.0000      38.374717      1044.2291 
  91   0.0000      59.687930      1624.1912 

                 SPIN DOWN ORBITALS
  NO   OCC          E(Eh)            E(eV) 
   0   1.0000      -5.372821      -146.2019 
   1   1.0000      -3.629306       -98.7584 
   2   1.0000      -3.629306       -98.7584 
   3   1.0000      -3.617787       -98.4450 
   4   1.0000      -1.015923       -27.6447 
   5   1.0000      -1.015923       -27.6447 
   6   1.0000      -1.005358       -27.3572 
   7   1.0000      -1.005358       -27.3572 
   8   1.0000      -1.002042       -27.2669 
   9   1.0000      -0.368906       -10.0385 
  10   0.0000       0.010369         0.2822 
  11   0.0000       0.010369         0.2822 
  12   0.0000       0.019702         0.5361 
  13   0.0000       0.032912         0.8956 
  14   0.0000       0.035185         0.9574 
  15   0.0000       0.035185         0.9574 
  16   0.0000       0.055846         1.5197 
  17   0.0000       0.072656         1.9771 
  18   0.0000       0.072656         1.9771 
  19   0.0000       0.078301         2.1307 
  20   0.0000       0.078301         2.1307 
  21   0.0000       0.080691         2.1957 
  22   0.0000       0.131745         3.5850 
  23   0.0000       0.131745         3.5850 
  24   0.0000       0.151400         4.1198 
  25   0.0000       0.190132         5.1738 
  26   0.0000       0.229515         6.2454 
  27   0.0000       0.229515         6.2454 
  28   0.0000       0.235859         6.4180 
  29   0.0000       0.235859         6.4180 
  30   0.0000       0.238388         6.4869 
  31   0.0000       0.238388         6.4869 
  32   0.0000       0.244034         6.6405 
  33   0.0000       0.244034         6.6405 
  34   0.0000       0.246083         6.6963 
  35   0.0000       0.252418         6.8686 
  36   0.0000       0.252418         6.8686 
  37   0.0000       0.259972         7.0742 
  38   0.0000       0.420338        11.4380 
  39   0.0000       0.420338        11.4380 
  40   0.0000       0.446573        12.1519 
  41   0.0000       0.649248        17.6669 
  42   0.0000       0.649248        17.6669 
  43   0.0000       0.671583        18.2747 
  44   0.0000       0.671583        18.2747 
  45   0.0000       0.675017        18.3681 
  46   0.0000       0.675017        18.3681 
  47   0.0000       0.677271        18.4295 
  48   0.0000       0.691333        18.8121 
  49   0.0000       0.691333        18.8121 
  50   0.0000       0.693964        18.8837 
  51   0.0000       0.693964        18.8837 
  52   0.0000       0.704468        19.1696 
  53   0.0000       0.704468        19.1696 
  54   0.0000       0.706055        19.2127 
  55   0.0000       0.706055        19.2127 
  56   0.0000       0.710286        19.3279 
  57   0.0000       0.714551        19.4439 
  58   0.0000       0.714551        19.4439 
  59   0.0000       0.718498        19.5513 
  60   0.0000       0.721191        19.6246 
  61   0.0000       0.721191        19.6246 
  62   0.0000       0.724370        19.7111 
  63   0.0000       1.368104        37.2280 
  64   0.0000       1.368104        37.2280 
  65   0.0000       1.395308        37.9683 
  66   0.0000       1.550875        42.2015 
  67   0.0000       1.550875        42.2015 
  68   0.0000       1.568786        42.6888 
  69   0.0000       1.568786        42.6888 
  70   0.0000       1.580263        43.0012 
  71   0.0000       1.580263        43.0012 
  72   0.0000       1.584310        43.1113 
  73   0.0000       1.758567        47.8530 
  74   0.0000       1.758567        47.8530 
  75   0.0000       1.778121        48.3851 
  76   0.0000       1.778121        48.3851 
  77   0.0000       1.785089        48.5748 
  78   0.0000       1.862715        50.6871 
  79   0.0000       1.862715        50.6871 
  80   0.0000       1.879288        51.1380 
  81   0.0000       1.879288        51.1380 
  82   0.0000       1.891724        51.4764 
  83   0.0000       1.891724        51.4764 
  84   0.0000       1.899507        51.6882 
  85   0.0000       1.899507        51.6882 
  86   0.0000       1.902170        51.7607 
  87   0.0000       2.747400        74.7606 
  88   0.0000      38.369857      1044.0969 
  89   0.0000      38.369857      1044.0969 
  90   0.0000      38.376796      1044.2857 
  91   0.0000      59.688159      1624.1974 

                    ********************************
                    * MULLIKEN POPULATION ANALYSIS *
                    ********************************

--------------------------------------------
MULLIKEN ATOMIC CHARGES AND SPIN POPULATIONS
--------------------------------------------
   0 In:   -0.000000    1.000000
Sum of atomic charges         :   -0.0000000
Sum of atomic spin populations:    1.0000000

-----------------------------------------------------
MULLIKEN REDUCED ORBITAL CHARGES AND SPIN POPULATIONS
-----------------------------------------------------
CHARGE
  0 Ins       :     3.993559  s :     3.993559
      pz      :     2.109848  p :     6.999931
      px      :     2.004690
      py      :     2.885393
      dz2     :     2.000715  d :    10.006389
      dxz     :     2.000003
      dyz     :     2.001867
      dx2y2   :     2.003735
      dxy     :     2.000069
      f0      :     0.000011  f :     0.000069
      f+1     :     0.000000
      f-1     :     0.000005
      f+2     :     0.000021
      f-2     :     0.000001
      f+3     :     0.000002
      f-3     :     0.000028
      g0      :     0.000004  g :     0.000052
      g+1     :     0.000000
      g-1     :     0.000008
      g+2     :     0.000007
      g-2     :     0.000003
      g+3     :     0.000006
      g-3     :     0.000006
      g+4     :     0.000009
      g-4     :     0.000008

SPIN
  0 Ins       :    -0.001949  s :    -0.001949
      pz      :     0.109850  p :     0.999939
      px      :     0.004692
      py      :     0.885396
      dz2     :     0.000225  d :     0.001985
      dxz     :     0.000008
      dyz     :     0.000577
      dx2y2   :     0.001142
      dxy     :     0.000032
      f0      :     0.000010  f :     0.000061
      f+1     :     0.000000
      f-1     :     0.000004
      f+2     :     0.000020
      f-2     :     0.000000
      f+3     :     0.000001
      f-3     :     0.000026
      g0      :    -0.000003  g :    -0.000036
      g+1     :    -0.000000
      g-1     :    -0.000005
      g+2     :    -0.000005
      g-2     :    -0.000002
      g+3     :    -0.000004
      g-3     :    -0.000005
      g+4     :    -0.000006
      g-4     :    -0.000006


                     *******************************
                     * LOEWDIN POPULATION ANALYSIS *
                     *******************************

-------------------------------------------
LOEWDIN ATOMIC CHARGES AND SPIN POPULATIONS
-------------------------------------------
   0 In:   -0.000000    1.000000

----------------------------------------------------
LOEWDIN REDUCED ORBITAL CHARGES AND SPIN POPULATIONS
----------------------------------------------------
CHARGE
  0 Ins       :     3.993559  s :     3.993559
      pz      :     2.109848  p :     6.999931
      px      :     2.004690
      py      :     2.885393
      dz2     :     2.000715  d :    10.006389
      dxz     :     2.000003
      dyz     :     2.001867
      dx2y2   :     2.003735
      dxy     :     2.000069
      f0      :     0.000011  f :     0.000069
      f+1     :     0.000000
      f-1     :     0.000005
      f+2     :     0.000021
      f-2     :     0.000001
      f+3     :     0.000002
      f-3     :     0.000028
      g0      :     0.000004  g :     0.000052
      g+1     :     0.000000
      g-1     :     0.000008
      g+2     :     0.000007
      g-2     :     0.000003
      g+3     :     0.000006
      g-3     :     0.000006
      g+4     :     0.000009
      g-4     :     0.000008

SPIN
  0 Ins       :    -0.001949  s :    -0.001949
      pz      :     0.109850  p :     0.999939
      px      :     0.004692
      py      :     0.885396
      dz2     :     0.000225  d :     0.001985
      dxz     :     0.000008
      dyz     :     0.000577
      dx2y2   :     0.001142
      dxy     :     0.000032
      f0      :     0.000010  f :     0.000061
      f+1     :     0.000000
      f-1     :     0.000004
      f+2     :     0.000020
      f-2     :     0.000000
      f+3     :     0.000001
      f-3     :     0.000026
      g0      :    -0.000003  g :    -0.000036
      g+1     :    -0.000000
      g-1     :    -0.000005
      g+2     :    -0.000005
      g-2     :    -0.000002
      g+3     :    -0.000004
      g-3     :    -0.000005
      g+4     :    -0.000006
      g-4     :    -0.000006


                      *****************************
                      * MAYER POPULATION ANALYSIS *
                      *****************************

  NA   - Mulliken gross atomic population
  ZA   - Total nuclear charge
  QA   - Mulliken gross atomic charge
  VA   - Mayer's total valence
  BVA  - Mayer's bonded valence
  FA   - Mayer's free valence

  ATOM       NA         ZA         QA         VA         BVA        FA
  0 In    21.0000    21.0000    -0.0000     1.0270     0.0000     1.0270

  Mayer bond orders larger than 0.100000


-------
TIMINGS
-------

Total SCF time: 0 days 0 hours 0 min 5 sec 

Total time                  ....       5.782 sec
Sum of individual times     ....       5.558 sec  ( 96.1%)

Fock matrix formation       ....       3.915 sec  ( 67.7%)
Diagonalization             ....       0.042 sec  (  0.7%)
Density matrix formation    ....       0.009 sec  (  0.1%)
Population analysis         ....       0.004 sec  (  0.1%)
Initial guess               ....       1.544 sec  ( 26.7%)
Orbital Transformation      ....       0.000 sec  (  0.0%)
Orbital Orthonormalization  ....       0.000 sec  (  0.0%)
DIIS solution               ....       0.019 sec  (  0.3%)


           ************************************************************
           *        Program running with 24 parallel MPI-processes    *
           *              working on a common directory               *
           ************************************************************


------------------------------------------------------------------------------- 
                              ORCA-MATRIX DRIVEN CI                            
------------------------------------------------------------------------------- 

--------------------------------
AUTOMATIC CHOICE OF INCORE LEVEL
--------------------------------

Memory available                           ...   2500.00 MB
Memory needed for S+T                      ...      4.20 MB
Memory needed for J+K                      ...      8.44 MB
Memory needed for DIIS                     ...     58.87 MB
Memory needed for 3-ext                    ...     28.38 MB
Memory needed for 4-ext                    ...    166.24 MB
Memory needed for triples                  ...     20.27 MB
 -> Final InCoreLevel    ... 5
 -> check shows that triples correction can be computed


Wavefunction type
-----------------
Correlation treatment                      ...      CCSD     
Single excitations                         ... ON
Orbital optimization                       ... OFF
Calculation of Z vector                    ... OFF
Calculation of Brueckner orbitals          ... OFF
Perturbative triple excitations            ... ON
Calculation of F12 correction              ... OFF
Frozen core treatment                      ... chemical core (8 el)
Reference Wavefunction                     ... UHF
  Alpha-MOs occ    :     4 ...   10 (  7 MO's/  7 electrons)
  Beta-MOs occ     :     4 ...    9 (  6 MO's/  6 electrons)
  Alpha-MOs virt   :    11 ...   91 ( 81 MO's              )
  Beta-MOs virt    :    10 ...   91 ( 82 MO's              )
Number of AO's                             ...     92
Number of electrons                        ...     21
Number of correlated electrons             ...     13

Algorithmic settings
--------------------
Integral transformation                    ... AO direct full transformation
K(C) Formation                             ... FULL-MO TRAFO
Maximum number of iterations               ...        50
Convergence tolerance (max. residuum)      ... 1.000e-05
Level shift for amplitude update           ... 2.000e-01
Maximum number of DIIS vectors             ...         7
DIIS turned on at iteration                ...         0
Damping before turning on DIIS             ...     0.500
Damping after turning on DIIS              ...     0.000
Pair specific amplitude update             ... OFF
Natural orbital iterations                 ... OFF
Perturbative natural orbital generation    ... OFF
Printlevel                                 ... 2

Memory handling:
----------------
Maximum memory for working arrays          ...   2500 MB
Data storage in matrix containers          ... UNCOMPRESSED
Data type for integral storage             ... DOUBLE
In-Core Storage of quantities:
   Amplitudes+Sigma Vector      ... YES
   J+K operators                ... YES
   DIIS vectors                 ... YES
   3-external integrals         ... YES
   4-external integrals         ... YES


Initializing the integral package          ... done
Warning: reference  - re-canonicalizations have been set to INT 1 VIRT 1

--------------------------
UNRESTRICTED FOCK OPERATOR
--------------------------

<ss|ss>:          406 b            0 skpd (  0.0%)    0.001 s ( 0.003 ms/b)
<ss|sp>:         1372 b            0 skpd (  0.0%)    0.003 s ( 0.002 ms/b)
<ss|sd>:          980 b            0 skpd (  0.0%)    0.004 s ( 0.004 ms/b)
<ss|sf>:          588 b            0 skpd (  0.0%)    0.001 s ( 0.002 ms/b)
<ss|sg>:          392 b            0 skpd (  0.0%)    0.001 s ( 0.002 ms/b)
<ss|pp>:          784 b            0 skpd (  0.0%)    0.002 s ( 0.003 ms/b)
<ss|pd>:          980 b            0 skpd (  0.0%)    0.004 s ( 0.004 ms/b)
<ss|pf>:          588 b            0 skpd (  0.0%)    0.001 s ( 0.002 ms/b)
<ss|pg>:          392 b            0 skpd (  0.0%)    0.001 s ( 0.002 ms/b)
<ss|dd>:          420 b            0 skpd (  0.0%)    0.007 s ( 0.017 ms/b)
<ss|df>:          420 b            0 skpd (  0.0%)    0.002 s ( 0.005 ms/b)
<ss|dg>:          280 b            0 skpd (  0.0%)    0.002 s ( 0.007 ms/b)
<ss|ff>:          168 b            0 skpd (  0.0%)    0.000 s ( 0.002 ms/b)
<ss|fg>:          168 b            0 skpd (  0.0%)    0.000 s ( 0.003 ms/b)
<ss|gg>:           84 b            0 skpd (  0.0%)    0.001 s ( 0.007 ms/b)
<sp|sp>:         1225 b            0 skpd (  0.0%)    0.003 s ( 0.003 ms/b)
<sp|sd>:         1715 b            0 skpd (  0.0%)    0.007 s ( 0.004 ms/b)
<sp|sf>:         1029 b            0 skpd (  0.0%)    0.002 s ( 0.002 ms/b)
<sp|sg>:          686 b            0 skpd (  0.0%)    0.002 s ( 0.002 ms/b)
<sp|pp>:         1372 b            0 skpd (  0.0%)    0.004 s ( 0.003 ms/b)
<sp|pd>:         1715 b            0 skpd (  0.0%)    0.009 s ( 0.005 ms/b)
<sp|pf>:         1029 b            0 skpd (  0.0%)    0.002 s ( 0.002 ms/b)
<sp|pg>:          686 b            0 skpd (  0.0%)    0.002 s ( 0.003 ms/b)
<sp|dd>:          735 b            0 skpd (  0.0%)    0.018 s ( 0.024 ms/b)
<sp|df>:          735 b            0 skpd (  0.0%)    0.004 s ( 0.006 ms/b)
<sp|dg>:          490 b            0 skpd (  0.0%)    0.005 s ( 0.010 ms/b)
<sp|ff>:          294 b            0 skpd (  0.0%)    0.001 s ( 0.003 ms/b)
<sp|fg>:          294 b            0 skpd (  0.0%)    0.001 s ( 0.004 ms/b)
<sp|gg>:          147 b            0 skpd (  0.0%)    0.002 s ( 0.012 ms/b)
<sd|sd>:          630 b            0 skpd (  0.0%)    0.008 s ( 0.013 ms/b)
<sd|sf>:          735 b            0 skpd (  0.0%)    0.002 s ( 0.003 ms/b)
<sd|sg>:          490 b            0 skpd (  0.0%)    0.002 s ( 0.005 ms/b)
<sd|pp>:          980 b            0 skpd (  0.0%)    0.006 s ( 0.006 ms/b)
<sd|pd>:         1225 b            0 skpd (  0.0%)    0.014 s ( 0.011 ms/b)
<sd|pf>:          735 b            0 skpd (  0.0%)    0.003 s ( 0.004 ms/b)
<sd|pg>:          490 b            0 skpd (  0.0%)    0.004 s ( 0.008 ms/b)
<sd|dd>:          525 b            0 skpd (  0.0%)    0.026 s ( 0.050 ms/b)
<sd|df>:          525 b            0 skpd (  0.0%)    0.006 s ( 0.011 ms/b)
<sd|dg>:          350 b            0 skpd (  0.0%)    0.009 s ( 0.026 ms/b)
<sd|ff>:          210 b            0 skpd (  0.0%)    0.002 s ( 0.007 ms/b)
<sd|fg>:          210 b            0 skpd (  0.0%)    0.002 s ( 0.011 ms/b)
<sd|gg>:          105 b            0 skpd (  0.0%)    0.003 s ( 0.031 ms/b)
<sf|sf>:          231 b            0 skpd (  0.0%)    0.001 s ( 0.003 ms/b)
<sf|sg>:          294 b            0 skpd (  0.0%)    0.001 s ( 0.004 ms/b)
<sf|pp>:          588 b            0 skpd (  0.0%)    0.003 s ( 0.005 ms/b)
<sf|pd>:          735 b            0 skpd (  0.0%)    0.006 s ( 0.009 ms/b)
<sf|pf>:          441 b            0 skpd (  0.0%)    0.001 s ( 0.003 ms/b)
<sf|pg>:          294 b            0 skpd (  0.0%)    0.002 s ( 0.008 ms/b)
<sf|dd>:          315 b            0 skpd (  0.0%)    0.012 s ( 0.039 ms/b)
<sf|df>:          315 b            0 skpd (  0.0%)    0.003 s ( 0.011 ms/b)
<sf|dg>:          210 b            0 skpd (  0.0%)    0.005 s ( 0.026 ms/b)
<sf|ff>:          126 b            0 skpd (  0.0%)    0.001 s ( 0.008 ms/b)
<sf|fg>:          126 b            0 skpd (  0.0%)    0.002 s ( 0.013 ms/b)
<sf|gg>:           63 b            0 skpd (  0.0%)    0.002 s ( 0.036 ms/b)
<sg|sg>:          105 b            0 skpd (  0.0%)    0.001 s ( 0.010 ms/b)
<sg|pp>:          392 b            0 skpd (  0.0%)    0.004 s ( 0.010 ms/b)
<sg|pd>:          490 b            0 skpd (  0.0%)    0.009 s ( 0.017 ms/b)
<sg|pf>:          294 b            0 skpd (  0.0%)    0.002 s ( 0.006 ms/b)
<sg|pg>:          196 b            0 skpd (  0.0%)    0.003 s ( 0.016 ms/b)
<sg|dd>:          210 b            0 skpd (  0.0%)    0.016 s ( 0.076 ms/b)
<sg|df>:          210 b            0 skpd (  0.0%)    0.005 s ( 0.022 ms/b)
<sg|dg>:          140 b            0 skpd (  0.0%)    0.008 s ( 0.054 ms/b)
<sg|ff>:           84 b            0 skpd (  0.0%)    0.001 s ( 0.014 ms/b)
<sg|fg>:           84 b            0 skpd (  0.0%)    0.002 s ( 0.023 ms/b)
<sg|gg>:           42 b            0 skpd (  0.0%)    0.003 s ( 0.074 ms/b)
<pp|pp>:          406 b            0 skpd (  0.0%)    0.003 s ( 0.008 ms/b)
<pp|pd>:          980 b            0 skpd (  0.0%)    0.010 s ( 0.010 ms/b)
<pp|pf>:          588 b            0 skpd (  0.0%)    0.002 s ( 0.003 ms/b)
<pp|pg>:          392 b            0 skpd (  0.0%)    0.003 s ( 0.008 ms/b)
<pp|dd>:          420 b            0 skpd (  0.0%)    0.017 s ( 0.041 ms/b)
<pp|df>:          420 b            0 skpd (  0.0%)    0.005 s ( 0.011 ms/b)
<pp|dg>:          280 b            0 skpd (  0.0%)    0.007 s ( 0.026 ms/b)
<pp|ff>:          168 b            0 skpd (  0.0%)    0.001 s ( 0.008 ms/b)
<pp|fg>:          168 b            0 skpd (  0.0%)    0.002 s ( 0.012 ms/b)
<pp|gg>:           84 b            0 skpd (  0.0%)    0.003 s ( 0.036 ms/b)
<pd|pd>:          630 b            0 skpd (  0.0%)    0.018 s ( 0.029 ms/b)
<pd|pf>:          735 b            0 skpd (  0.0%)    0.004 s ( 0.006 ms/b)
<pd|pg>:          490 b            0 skpd (  0.0%)    0.008 s ( 0.017 ms/b)
<pd|dd>:          525 b            0 skpd (  0.0%)    0.042 s ( 0.081 ms/b)
<pd|df>:          525 b            0 skpd (  0.0%)    0.012 s ( 0.023 ms/b)
<pd|dg>:          350 b            0 skpd (  0.0%)    0.019 s ( 0.054 ms/b)
<pd|ff>:          210 b            0 skpd (  0.0%)    0.003 s ( 0.016 ms/b)
<pd|fg>:          210 b            0 skpd (  0.0%)    0.005 s ( 0.025 ms/b)
<pd|gg>:          105 b            0 skpd (  0.0%)    0.008 s ( 0.072 ms/b)
<pf|pf>:          231 b            0 skpd (  0.0%)    0.001 s ( 0.006 ms/b)
<pf|pg>:          294 b            0 skpd (  0.0%)    0.004 s ( 0.014 ms/b)
<pf|dd>:          315 b            0 skpd (  0.0%)    0.019 s ( 0.061 ms/b)
<pf|df>:          315 b            0 skpd (  0.0%)    0.006 s ( 0.019 ms/b)
<pf|dg>:          210 b            0 skpd (  0.0%)    0.009 s ( 0.044 ms/b)
<pf|ff>:          126 b            0 skpd (  0.0%)    0.002 s ( 0.017 ms/b)
<pf|fg>:          126 b            0 skpd (  0.0%)    0.004 s ( 0.028 ms/b)
<pf|gg>:           63 b            0 skpd (  0.0%)    0.005 s ( 0.077 ms/b)
<pg|pg>:          105 b            0 skpd (  0.0%)    0.003 s ( 0.030 ms/b)
<pg|dd>:          210 b            0 skpd (  0.0%)    0.027 s ( 0.127 ms/b)
<pg|df>:          210 b            0 skpd (  0.0%)    0.008 s ( 0.036 ms/b)
<pg|dg>:          140 b            0 skpd (  0.0%)    0.010 s ( 0.070 ms/b)
<pg|ff>:           84 b            0 skpd (  0.0%)    0.002 s ( 0.027 ms/b)
<pg|fg>:           84 b            0 skpd (  0.0%)    0.004 s ( 0.045 ms/b)
<pg|gg>:           42 b            0 skpd (  0.0%)    0.006 s ( 0.145 ms/b)
<dd|dd>:          120 b            0 skpd (  0.0%)    0.043 s ( 0.361 ms/b)
<dd|df>:          225 b            0 skpd (  0.0%)    0.012 s ( 0.055 ms/b)
<dd|dg>:          150 b            0 skpd (  0.0%)    0.017 s ( 0.111 ms/b)
<dd|ff>:           90 b            0 skpd (  0.0%)    0.003 s ( 0.037 ms/b)
<dd|fg>:           90 b            0 skpd (  0.0%)    0.005 s ( 0.056 ms/b)
<dd|gg>:           45 b            0 skpd (  0.0%)    0.007 s ( 0.161 ms/b)
<df|df>:          120 b            0 skpd (  0.0%)    0.005 s ( 0.045 ms/b)
<df|dg>:          150 b            0 skpd (  0.0%)    0.011 s ( 0.070 ms/b)
<df|ff>:           90 b            0 skpd (  0.0%)    0.003 s ( 0.033 ms/b)
<df|fg>:           90 b            0 skpd (  0.0%)    0.005 s ( 0.053 ms/b)
<df|gg>:           45 b            0 skpd (  0.0%)    0.006 s ( 0.143 ms/b)
<dg|dg>:           55 b            0 skpd (  0.0%)    0.008 s ( 0.154 ms/b)
<dg|ff>:           60 b            0 skpd (  0.0%)    0.003 s ( 0.049 ms/b)
<dg|fg>:           60 b            0 skpd (  0.0%)    0.005 s ( 0.079 ms/b)
<dg|gg>:           30 b            0 skpd (  0.0%)    0.006 s ( 0.209 ms/b)
<ff|ff>:           21 b            0 skpd (  0.0%)    0.001 s ( 0.051 ms/b)
<ff|fg>:           36 b            0 skpd (  0.0%)    0.002 s ( 0.059 ms/b)
<ff|gg>:           18 b            0 skpd (  0.0%)    0.003 s ( 0.176 ms/b)
<fg|fg>:           21 b            0 skpd (  0.0%)    0.003 s ( 0.130 ms/b)
<fg|gg>:           18 b            0 skpd (  0.0%)    0.005 s ( 0.267 ms/b)
<gg|gg>:            6 b            0 skpd (  0.0%)    0.003 s ( 0.574 ms/b)
Recanonicalizing the internal orbitals
Recanonicalizing the virtual orbitals
Time needed for Fock operator              ...            0.729 sec
Reference energy                           ...   -189.210635736
Warning: for UHF the TrafoType has to be JK
Warning: for UHF the K(C)-option cannot be MO but must be AOX

-------------------------------
PARTIAL EXCHANGE TRANSFORMATION
-------------------------------

Transformation type                        ... two-operators
Generation of integrals (i,mue|j,nue)      ... ON
Generation of integrals (mue,kappa|nue,tau)... ON
Generation of integrals (i,mue|a,nue)      ... ON
Dimension of the basis                     ...   92
Number of internal alpha-MOs               ...    7 (   4-  10)
Number of internal beta-MOs                ...    6 (   4-   9)
Number of external alpha-MOs               ...   81 (  11-  91)
Number of external beta-MOs                ...   82 (  10-  91)
Pair cutoff                                ... 0.000e+00 Eh
Number of AO pairs in the trafo            ... 4278
Total Number of distinct AO pairs          ... 4278
Memory devoted for trafo                   ... 2500.0 MB 
Max. Number of MO pairs treated together   ... 38714      
Number Format for Storage                  ... Double (8 Byte)
Integral package used                      ... LIBINT

Starting integral evaluation:
    ... done with AO integral generation
Closing buffer AOK[aa] ( 0.00 GB; CompressionRatio= 0.97)
Closing buffer AOK[bb] ( 0.00 GB; CompressionRatio= 0.96)
Closing buffer AOK[ab] ( 0.00 GB; CompressionRatio= 0.97)
Closing buffer AOK[ba] ( 0.00 GB; CompressionRatio= 0.97)
Collecting buffer AOK 
Closing buffer IAAO1[aa] ( 0.00 GB; CompressionRatio= 1.00)
Closing buffer IAAO1[bb] ( 0.00 GB; CompressionRatio= 1.00)
Closing buffer IAAO1[ab] ( 0.00 GB; CompressionRatio= 1.00)
Closing buffer IAAO1[ba] ( 0.00 GB; CompressionRatio= 1.00)
Closing buffer IAAO2[aa] ( 0.00 GB; CompressionRatio= 1.00)
Closing buffer IAAO2[bb] ( 0.00 GB; CompressionRatio= 1.00)
Closing buffer IAAO2[ab] ( 0.00 GB; CompressionRatio= 1.00)
Closing buffer IAAO2[ba] ( 0.00 GB; CompressionRatio= 1.00)
Collecting buffer IAAO 
Closing buffer PRQS    ( 0.00 GB; CompressionRatio= 1.00)
Collecting buffer PRQS 
Number of alpha/alpha MO pairs in trafo    ...   28
Number of beta /beta  MO pairs in trafo    ...   21
Number of alpha/ beta MO pairs in trafo    ...   42
------------------------
SORTING OF (i,mue|j,nue)
------------------------

SORTING OF ALPHA/ALPHA PAIRS
IBATCH = 1 of  1
Closing buffer KAO[aa] ( 0.00 GB; CompressionRatio= 1.00)
Collecting buffer KAO 
SORTING OF BETA /BETA  PAIRS
IBATCH = 1 of  1
Closing buffer KAO[bb] ( 0.00 GB; CompressionRatio= 1.00)
Collecting buffer KAO 
SORTING OF ALPHA/BETA  PAIRS
IBATCH = 1 of  1
Closing buffer KAO[ab] ( 0.00 GB; CompressionRatio= 0.999822810230)
Collecting buffer KAO[ab] 
------------------------
SORTING OF (i,mue|a,nue)
------------------------

Number of alpha/alpha (i,a) pairs in trafo  ...  567
Number of beta /beta  (i,a) pairs in trafo  ...  492
Number of alpha/ beta (i,a) pairs in trafo  ...  574
Number of beta /alpha (i,a) pairs in trafo  ...  486
Setting up the alpha/alpha list             ... done
Setting up the beta /beta  list             ... done
Setting up the alpha/beta  list             ... done
Setting up the beta /alpha list             ... done
    ... Now sorting (i,mue|a,nue)integrals
    ... Integrals (i,b|a,c) will be made on the fly
SORTING OF ALPHA/ALPHA PAIRS
IBATCH = 1 of  1
Closing buffer IPAQ[aa]  0.00 GB; CompressionRatio= 1.00)
SORTING OF BETA /BETA  PAIRS
IBATCH = 1 of  1
Closing buffer IPAQ[bb]( 0.00 GB; CompressionRatio= 1.00)
SORTING OF ALPHA/BETA  PAIRS (NMatSort_ab=24)
IBATCH = 1 of  1
Closing buffer IPAQ[ab]( 0.00 GB; CompressionRatio= 1.00)
SORTING OF BETA/ALPHA  PAIRS
IBATCH = 1 of  1
Closing buffer IPAQ[ba]( 0.00 GB; CompressionRatio= 1.00)
N(AO-Batches) Done                         ...       576 
N(AO-Batches) Skipped                      ...         0 
N(IJ)-pairs Skipped                        ...         0 
TOTAL TIME for half transformation         ...     1.694 sec
AO-integral generation                     ...     0.042 sec
Half transformation                        ...     0.002 sec
K-integral sorting                         ...     0.454 sec
<ss|**>: 
------------------------------
PARTIAL COULOMB TRANSFORMATION
------------------------------

Transformation type                        ... two-operators
Dimension of the basis                     ...   92
Number of internal alpha-MOs               ...    7 (4-10)
Number of internal beta-MOs                ...    6 (4-9)
Pair cutoff                                ... 0.000e+00 Eh
Number of AO pairs included in the trafo   ... 4278
Total Number of distinct AO pairs          ... 4278
Memory devoted for trafo                   ... 2500.0 MB 
Max. Number of MO pairs treated together   ... 76596      
Max. Number of MOs treated per batch       ...  832      
Number Format for Storage                  ... Double (8 Byte)
AO-integral source                         ... DIRECT
Integral package used                      ... LIBINT

Starting integral evaluation:
<sp|**>:         8400 b        0 skpd     0.022 s (  0.003 ms/b)
<sd|**>:        14700 b        0 skpd     0.031 s (  0.002 ms/b)
<sf|**>:        10500 b        0 skpd     0.080 s (  0.008 ms/b)
<sg|**>:         6300 b        0 skpd     0.018 s (  0.003 ms/b)
<pp|**>:         4200 b        0 skpd     0.034 s (  0.008 ms/b)
        8400 b        0 skpd     0.052 s (  0.006 ms/b)
<pd|**>:        10500 b        0 skpd     0.137 s (  0.013 ms/b)
<pf|**>:         6300 b        0 skpd     0.027 s (  0.004 ms/b)
<pg|**>:         4200 b        0 skpd     0.048 s (  0.012 ms/b)
<dd|**>:         4500 b        0 skpd     0.304 s (  0.067 ms/b)
<df|**>:         4500 b        0 skpd     0.067 s (  0.015 ms/b)
<dg|**>:         3000 b        0 skpd     0.108 s (  0.036 ms/b)
<ff|**>:         1800 b        0 skpd     0.020 s (  0.011 ms/b)
<fg|**>:         1800 b        0 skpd     0.029 s (  0.016 ms/b)
<gg|**>:          900 b        0 skpd     0.045 s (  0.050 ms/b)
Closing buffer AOJ[aa] ( 0.00 GB; CompressionRatio= 0.95)
Closing buffer AOJ[bb] ( 0.00 GB; CompressionRatio= 0.00)
Collecting buffer AOJ 
    ... done with AO integral generation
Number of Alpha-MO pairs included          ...   28
Number of Beta-MO pairs included           ...   21
    ... Now sorting integrals
SORTING ALPHA/ALPHA PAIRS
IBATCH = 1 of  1
Closing buffer JAO[aa] ( 0.00 GB; CompressionRatio= 1.00)
SORTING BETA/BETA PAIRS
IBATCH = 1 of  1
Closing buffer JAO[bb] ( 0.00 GB; CompressionRatio= 1.00)
Collecting buffer JAO 
TOTAL TIME for half transformation         ...     1.038 sec
AO-integral generation                     ...     1.015 sec
Half transformation                        ...     0.008 sec
J-integral sorting                         ...     0.011 sec

-------------------------- SECOND HALF TRANSFORMATION -------------------------
Formation of (ij|kl),(ij|ka), (ij|ab)      ... ok (     0.025 sec)
Formation of (ik|jl),(ik|ja), (ia|jb)      ... ok (     0.037 sec)


-----------------------
SPIN UNRESTRICTED GUESS
-----------------------

Entering MDCI_UHF_Guess, Tailored=0
Spin-components of the MP2 energy:
EMP2(aa)=     -0.025934887
EMP2(bb)=     -0.020236226
EMP2(ab)=     -0.111221875

Initial guess performed in     0.012 sec
E(0)                                       ...   -189.210635736
E(MP2)                                     ...     -0.157392988
Initial E(tot)                             ...   -189.368028724
<T|T>                                      ...      0.059426517
Number of pairs included                   ... 78

------------------------------------------------
                  UHF COUPLED CLUSTER ITERATIONS
------------------------------------------------

Number of amplitudes to be optimized       ...       398803

Iter       E(tot)           E(Corr)          Delta-E          Residual     Time      <S|S>**1/2
  0   -189.368028724     -0.157392988     -0.000000000      0.019681877    0.78      0.000000446
                           *** Turning on DIIS ***
  1   -189.368028309     -0.157392573      0.000000415      0.005591784    0.88      0.032843949
  2   -189.372954592     -0.162318856     -0.004926283      0.003188128    0.91      0.042576368
  3   -189.375039035     -0.164403299     -0.002084442      0.001004463    0.92      0.051606602
  4   -189.375402547     -0.164766811     -0.000363512      0.000251955    0.90      0.054224230
  5   -189.375440049     -0.164804313     -0.000037502      0.000126769    0.90      0.054691982
  6   -189.375447898     -0.164812162     -0.000007849      0.000063957    0.92      0.054785798
  7   -189.375448227     -0.164812491     -0.000000329      0.000024921    0.91      0.054813283
  8   -189.375448573     -0.164812837     -0.000000345      0.000009806    0.90      0.054826557
               --- The Coupled-Cluster iterations have converged ---

----------------------
COUPLED CLUSTER ENERGY
----------------------

E(0)                                       ...   -189.210635736
E(CORR)                                    ...     -0.164812837
E(TOT)                                     ...   -189.375448573
Singles norm <S|S>**1/2                    ...      0.054826557 ( 0.034572635, 0.020253922)  
T1 diagnostic                              ...      0.015206151                              

------------------
LARGEST AMPLITUDES
------------------
   9a-> 11a   9b-> 14b       0.035966
   9a-> 12a   9b-> 15b       0.035966
  10a-> 26a   9b-> 16b       0.034345
   9a-> 11a   9b-> 23b       0.032064
   9a-> 12a   9b-> 22b       0.032064
  10a-> 26a   9b-> 24b       0.029787
   9a-> 26a  -1a-> -1a       0.028442
   9a-> 11a   9b-> 10b       0.028401
   9a-> 12a   9b-> 11b       0.028401
   9a-> 16a   9b-> 15b       0.028377
   9a-> 15a   9b-> 14b       0.028377
   9a-> 24a   9b-> 15b       0.028214
   9a-> 23a   9b-> 14b       0.028214
   9a-> 25a  -1a-> -1a       0.026486
   9a-> 16a   9b-> 22b       0.026360
   9a-> 15a   9b-> 23b       0.026360

----------------------
UHF TRIPLES CORRECTION (Algorithm 1)
----------------------

Multiplier for the singles contribution    ...      1.000000000

SPIN-CASE Alpha-Alpha-Alpha:
10% done
20% done
30% done
40% done
50% done
60% done
70% done
80% done
90% done


SPIN-CASE Beta-Beta-Beta:
10% done
20% done
30% done
40% done
50% done
60% done
70% done
80% done
90% done


SPIN-CASE Alpha-Alpha-Beta:
10% done
20% done
30% done
40% done
50% done
60% done
70% done
80% done
90% done


SPIN-CASE Beta-Beta-Alpha:
10% done
20% done
30% done
40% done
50% done
60% done
70% done
80% done
90% done


Triples Correction (T)                     ...     -0.007146077
    alpha-alpha-alpha ... -0.000272401 (  3.8%)
    alpha-alpha-beta  ... -0.003870538 ( 54.2%)
    alpha-beta -beta  ... -0.002833788 ( 39.7%)
    beta -beta -beta  ... -0.000169350 (  2.4%)
Scaling of triples based on CCSD energies (Peterson et al. Molecular Physics 113, 1551 (2015))
E(T*) = f*E(T) where f = E(F12-CCSD)/E(CCSD) 
f = CCSD (with F12)/ CCSD (without F12)    ...      1.000000000
Scaled triples correction (T)              ...     -0.007146077

Final correlation energy                   ...     -0.171958913
E(CCSD)                                    ...   -189.375448573
E(CCSD(T))                                 ...   -189.382594649



        !!!!!!!!!!!!!!!!!!!!!!!!!!!!!!!!!!!!!!!!!!!!!!!!!!!!!!!!!!!!!!!!!!!!!!!!!! 
        !  Warning: Densities are linearized densities                           !
        !!!!!!!!!!!!!!!!!!!!!!!!!!!!!!!!!!!!!!!!!!!!!!!!!!!!!!!!!!!!!!!!!!!!!!!!!! 

NORM  =      1.084327591 sqrt=     1.041310516
W(HF) =      0.922230522
------------------------------------------------------------------------------
                           ORCA POPULATION ANALYSIS
------------------------------------------------------------------------------
Input electron density              ... 49_In.mdcip
Input spin density                  ... 49_In.mdcir
BaseName (.gbw .S,...)              ... 49_In

                    ********************************
                    * MULLIKEN POPULATION ANALYSIS *
                    ********************************

------------------------------------------
MULLIKEN ATOMIC CHARGES AND SPIN DENSITIES
------------------------------------------
   0 In:   -0.000000    1.000000
Sum of atomic charges       :   -0.0000000
Sum of atomic spin densities:    1.0000000

---------------------------------------------------
MULLIKEN REDUCED ORBITAL CHARGES AND SPIN DENSITIES
---------------------------------------------------
CHARGE
  0 Ins       :     3.921184  s :     3.921184
      pz      :     2.140671  p :     7.065359
      px      :     2.039755
      py      :     2.884933
      dz2     :     1.996972  d :     9.991963
      dxz     :     1.994880
      dyz     :     2.000487
      dx2y2   :     1.999777
      dxy     :     1.999848
      f0      :     0.002805  f :     0.019959
      f+1     :     0.002728
      f-1     :     0.002906
      f+2     :     0.002859
      f-2     :     0.002843
      f+3     :     0.002909
      f-3     :     0.002908
      g0      :     0.000156  g :     0.001535
      g+1     :     0.000129
      g-1     :     0.000187
      g+2     :     0.000165
      g-2     :     0.000164
      g+3     :     0.000176
      g-3     :     0.000176
      g+4     :     0.000191
      g-4     :     0.000191

SPIN
  0 Ins       :     0.014802  s :     0.014802
      pz      :     0.106023  p :     0.972196
      px      :     0.003416
      py      :     0.862757
      dz2     :     0.001560  d :     0.011838
      dxz     :     0.000374
      dyz     :     0.003554
      dx2y2   :     0.003174
      dxy     :     0.003175
      f0      :     0.000115  f :     0.001124
      f+1     :     0.000036
      f-1     :     0.000216
      f+2     :     0.000166
      f-2     :     0.000155
      f+3     :     0.000218
      f-3     :     0.000218
      g0      :     0.000003  g :     0.000041
      g+1     :     0.000001
      g-1     :     0.000006
      g+2     :     0.000004
      g-2     :     0.000004
      g+3     :     0.000005
      g-3     :     0.000005
      g+4     :     0.000006
      g-4     :     0.000006


                     *******************************
                     * LOEWDIN POPULATION ANALYSIS *
                     *******************************

-----------------------------------------
LOEWDIN ATOMIC CHARGES AND SPIN DENSITIES
-----------------------------------------
   0 In:   -0.000000    1.000000

--------------------------------------------------
LOEWDIN REDUCED ORBITAL CHARGES AND SPIN DENSITIES
--------------------------------------------------
CHARGE
  0 Ins       :     3.921184  s :     3.921184
      pz      :     2.140671  p :     7.065359
      px      :     2.039755
      py      :     2.884933
      dz2     :     1.996972  d :     9.991963
      dxz     :     1.994880
      dyz     :     2.000487
      dx2y2   :     1.999777
      dxy     :     1.999848
      f0      :     0.002805  f :     0.019959
      f+1     :     0.002728
      f-1     :     0.002906
      f+2     :     0.002859
      f-2     :     0.002843
      f+3     :     0.002909
      f-3     :     0.002908
      g0      :     0.000156  g :     0.001535
      g+1     :     0.000129
      g-1     :     0.000187
      g+2     :     0.000165
      g-2     :     0.000164
      g+3     :     0.000176
      g-3     :     0.000176
      g+4     :     0.000191
      g-4     :     0.000191

SPIN
  0 Ins       :     0.014802  s :     0.014802
      pz      :     0.106023  p :     0.972196
      px      :     0.003416
      py      :     0.862757
      dz2     :     0.001560  d :     0.011838
      dxz     :     0.000374
      dyz     :     0.003554
      dx2y2   :     0.003174
      dxy     :     0.003175
      f0      :     0.000115  f :     0.001124
      f+1     :     0.000036
      f-1     :     0.000216
      f+2     :     0.000166
      f-2     :     0.000155
      f+3     :     0.000218
      f-3     :     0.000218
      g0      :     0.000003  g :     0.000041
      g+1     :     0.000001
      g-1     :     0.000006
      g+2     :     0.000004
      g-2     :     0.000004
      g+3     :     0.000005
      g-3     :     0.000005
      g+4     :     0.000006
      g-4     :     0.000006


                      *****************************
                      * MAYER POPULATION ANALYSIS *
                      *****************************

  NA   - Mulliken gross atomic population
  ZA   - Total nuclear charge
  QA   - Mulliken gross atomic charge
  VA   - Mayer's total valence
  BVA  - Mayer's bonded valence
  FA   - Mayer's free valence

  ATOM       NA         ZA         QA         VA         BVA        FA
  0 In    21.0000    21.0000    -0.0000     1.5683     0.0000     1.5683





------------------------------------------------------------------------------- 
                                     TIMINGS                                   
------------------------------------------------------------------------------- 


Total execution time                   ...       12.555 sec

Fock Matrix Formation                  ...        0.729 sec (  5.8%)
Initial Guess                          ...        0.012 sec (  0.1%)
DIIS Solver                            ...        0.268 sec (  2.1%)
State Vector Update                    ...        0.014 sec (  0.1%)
Sigma-vector construction              ...        7.748 sec ( 61.7%)
  <D|H|D>(0-ext Fock)                  ...        0.004 sec (  0.1% of sigma)
  <D|H|D>(0-ext)                       ...        0.009 sec (  0.1% of sigma)
  <D|H|D>(2-ext Fock)                  ...        0.002 sec (  0.0% of sigma)
  <D|H|D>(2-ext)                       ...        0.060 sec (  0.8% of sigma)
  <D|H|D>(4-ext)                       ...        2.500 sec ( 32.3% of sigma)
  <S|H|0>                              ...        0.191 sec (  2.5% of sigma)
  <S|H|S>                              ...        0.001 sec (  0.0% of sigma)
  <S|H|D>(1-ext)                       ...        0.002 sec (  0.0% of sigma)
  <D|H|S>(1-ext)                       ...        0.032 sec (  0.4% of sigma)
  Fock-dressing                        ...        3.945 sec ( 50.9% of sigma)
  (ik|jl)-dressing                     ...        0.012 sec (  0.2% of sigma)
  (ij|ab),(ia|jb)-dressing             ...        0.765 sec (  9.9% of sigma)
  Pair energies                        ...        0.002 sec (  0.0% of sigma)
Total Time for computing (T)           ...        0.670 sec (  5.3% of ALL)
  I/O of integral and amplitudes       ...        0.190 sec ( 28.3% of (T))
  External N**7 contributions          ...        0.151 sec ( 22.5% of (T))
  Internal N**7 contributions          ...        0.076 sec ( 11.3% of (T))
  N**6 triples energy contributions    ...        0.224 sec ( 33.4% of (T))


-------------------------   --------------------
FINAL SINGLE POINT ENERGY      -189.382594649431
-------------------------   --------------------


                            ***************************************
                            *     ORCA property calculations      *
                            ***************************************

                                    ---------------------
                                    Active property flags
                                    ---------------------
   (+) Dipole Moment


------------------------------------------------------------------------------
                       ORCA ELECTRIC PROPERTIES CALCULATION
------------------------------------------------------------------------------

Dipole Moment Calculation                       ... on
Quadrupole Moment Calculation                   ... off
Polarizability Calculation                      ... off
GBWName                                         ... 49_In.gbw
Electron density file                           ... 49_In.scfp
The origin for moment calculation is the CENTER OF MASS  = ( 0.000000,  0.000000  0.000000)

-------------
DIPOLE MOMENT
-------------
                                X             Y             Z
Electronic contribution:      0.00000      -0.00000       0.00000
Nuclear contribution   :      0.00000       0.00000       0.00000
                        -----------------------------------------
Total Dipole Moment    :      0.00000      -0.00000       0.00000
                        -----------------------------------------
Magnitude (a.u.)       :      0.00000
Magnitude (Debye)      :      0.00000



--------------------
Rotational spectrum 
--------------------
 
Rotational constants in cm-1:     0.000000     0.000000     0.000000 
Rotational constants in MHz :     0.000000     0.000000     0.000000 

 Dipole components along the rotational axes: 
x,y,z [a.u.] :     0.000000    -0.000000     0.000000 
x,y,z [Debye]:     0.000000    -0.000000     0.000000 

 

                           *** MDCI DENSITY ***

------------------------------------------------------------------------------
                       ORCA ELECTRIC PROPERTIES CALCULATION
------------------------------------------------------------------------------

Dipole Moment Calculation                       ... on
Quadrupole Moment Calculation                   ... off
Polarizability Calculation                      ... off
GBWName                                         ... 49_In.gbw
Electron density file                           ... 49_In.mdcip
The origin for moment calculation is the CENTER OF MASS  = ( 0.000000,  0.000000  0.000000)

-------------
DIPOLE MOMENT
-------------
                                X             Y             Z
Electronic contribution:     -0.00000      -0.00000       0.00000
Nuclear contribution   :      0.00000       0.00000       0.00000
                        -----------------------------------------
Total Dipole Moment    :     -0.00000      -0.00000       0.00000
                        -----------------------------------------
Magnitude (a.u.)       :      0.00000
Magnitude (Debye)      :      0.00000



--------------------
Rotational spectrum 
--------------------
 
Rotational constants in cm-1:     0.000000     0.000000     0.000000 
Rotational constants in MHz :     0.000000     0.000000     0.000000 

 Dipole components along the rotational axes: 
x,y,z [a.u.] :    -0.000000    -0.000000     0.000000 
x,y,z [Debye]:    -0.000000    -0.000000     0.000000 

 

Timings for individual modules:

Sum of individual times         ...       20.359 sec (=   0.339 min)
GTO integral calculation        ...        0.997 sec (=   0.017 min)   4.9 %
SCF iterations                  ...        6.212 sec (=   0.104 min)  30.5 %
MDCI module                     ...       13.150 sec (=   0.219 min)  64.6 %
                             ****ORCA TERMINATED NORMALLY****
TOTAL RUN TIME: 0 days 0 hours 0 minutes 21 seconds 47 msec
