
                                 *****************
                                 * O   R   C   A *
                                 *****************

           --- An Ab Initio, DFT and Semiempirical electronic structure package ---

                  #######################################################
                  #                        -***-                        #
                  #          Department of theory and spectroscopy      #
                  #               Directorship: Frank Neese             #
                  #        Max Planck Institute fuer Kohlenforschung    #
                  #                Kaiser Wilhelm Platz 1               #
                  #                 D-45470 Muelheim/Ruhr               #
                  #                      Germany                        #
                  #                                                     #
                  #                  All rights reserved                #
                  #                        -***-                        #
                  #######################################################


                         Program Version 4.2.0 -  RELEASE  -


 With contributions from (in alphabetic order):
   Daniel Aravena         : Magnetic Suceptibility
   Michael Atanasov       : Ab Initio Ligand Field Theory (pilot matlab implementation)
   Alexander A. Auer      : GIAO ZORA, VPT2
   Ute Becker             : Parallelization
   Giovanni Bistoni       : ED, misc. LED, open-shell LED, HFLED
   Martin Brehm           : Molecular dynamics
   Dmytro Bykov           : SCF Hessian
   Vijay G. Chilkuri      : MRCI spin determinant printing, contributions to CSF-ICE
   Dipayan Datta          : RHF DLPNO-CCSD density
   Achintya Kumar Dutta   : EOM-CC, STEOM-CC
   Dmitry Ganyushin       : Spin-Orbit,Spin-Spin,Magnetic field MRCI
   Miquel Garcia          : C-PCM Hessian, Gaussian charge scheme
   Yang Guo               : DLPNO-NEVPT2, CIM, IAO-localization
   Andreas Hansen         : Spin unrestricted coupled pair/coupled cluster methods
   Benjamin Helmich-Paris : CASSCF linear response (MC-RPA)
   Lee Huntington         : MR-EOM, pCC
   Robert Izsak           : Overlap fitted RIJCOSX, COSX-SCS-MP3, EOM
   Christian Kollmar      : KDIIS, OOCD, Brueckner-CCSD(T), CCSD density
   Simone Kossmann        : Meta GGA functionals, TD-DFT gradient, OOMP2, MP2 Hessian
   Martin Krupicka        : AUTO-CI
   Lucas Lang             : DCDCAS
   Dagmar Lenk            : GEPOL surface, SMD
   Dimitrios Liakos       : Extrapolation schemes; Compound Job, initial MDCI parallelization
   Dimitrios Manganas     : Further ROCIS development; embedding schemes
   Dimitrios Pantazis     : SARC Basis sets
   Taras Petrenko         : DFT Hessian,TD-DFT gradient, ASA, ECA, R-Raman, ABS, FL, XAS/XES, NRVS
   Peter Pinski           : DLPNO-MP2, DLPNO-MP2 Gradient
   Christoph Reimann      : Effective Core Potentials
   Marius Retegan         : Local ZFS, SOC
   Christoph Riplinger    : Optimizer, TS searches, QM/MM, DLPNO-CCSD(T), (RO)-DLPNO pert. Triples
   Tobias Risthaus        : Range-separated hybrids, TD-DFT gradient, RPA, STAB
   Michael Roemelt        : Original ROCIS implementation
   Masaaki Saitow         : Open-shell DLPNO-CCSD energy and density
   Barbara Sandhoefer     : DKH picture change effects
   Avijit Sen             : IP-ROCIS
   Kantharuban Sivalingam : CASSCF convergence, NEVPT2, FIC-MRCI
   Bernardo de Souza      : ESD, SOC TD-DFT
   Georgi Stoychev        : AutoAux, RI-MP2 NMR
   Willem Van den Heuvel  : Paramagnetic NMR
   Boris Wezisla          : Elementary symmetry handling
   Frank Wennmohs         : Technical directorship


 We gratefully acknowledge several colleagues who have allowed us to
 interface, adapt or use parts of their codes:
   Stefan Grimme, W. Hujo, H. Kruse,             : VdW corrections, initial TS optimization,
                  C. Bannwarth                     DFT functionals, gCP, sTDA/sTD-DF
   Ed Valeev, F. Pavosevic, A. Kumar             : LibInt (2-el integral package), F12 methods
   Garnet Chan, S. Sharma, J. Yang, R. Olivares  : DMRG
   Ulf Ekstrom                                   : XCFun DFT Library
   Mihaly Kallay                                 : mrcc  (arbitrary order and MRCC methods)
   Andreas Klamt, Michael Diedenhofen            : otool_cosmo (COSMO solvation model)
   Jiri Pittner, Ondrej Demel                    : Mk-CCSD
   Frank Weinhold                                : gennbo (NPA and NBO analysis)
   Christopher J. Cramer and Donald G. Truhlar   : smd solvation model
   Lars Goerigk                                  : TD-DFT with DH, B97 family of functionals
   V. Asgeirsson, H. Jonsson                     : NEB implementation
   FAccTs GmbH                                   : IRC, NEB, NEB-TS, Multilevel, MM, QM/MM, CI optimization
   S Lehtola, MJT Oliveira, MAL Marques          : LibXC Library


 Your calculation uses the libint2 library for the computation of 2-el integrals
 For citations please refer to: http://libint.valeyev.net

 Your ORCA version has been built with support for libXC version: 4.2.3
 For citations please refer to: https://tddft.org/programs/libxc/

 This ORCA versions uses:
   CBLAS   interface :  Fast vector & matrix operations
   LAPACKE interface :  Fast linear algebra routines
   SCALAPACK package :  Parallel linear algebra routines


----- Orbital basis set information -----
Your calculation utilizes the basis: def2-SVP
   F. Weigend and R. Ahlrichs, Phys. Chem. Chem. Phys. 7, 3297 (2005).

----- AuxJ basis set information -----
Your calculation utilizes the auxiliary basis: def2/J
   F. Weigend, Phys. Chem. Chem. Phys. 8, 1057 (2006).

================================================================================
                                        WARNINGS
                       Please study these warnings very carefully!
================================================================================


INFO   : the flag for use of LIBINT has been found!

================================================================================
                                       INPUT FILE
================================================================================
NAME = 51_Sb_atom51.inp
|  1> # input to generate an atomic fitting density for Sb
|  2> # this file is use internally by ORCA
|  3> #
|  4> # atomic ground state (S=4): 1s2 2s2 2p6 3s2 3p6 4s2 3d10 4p6 5s2 4d10 5p3 
|  5> #
|  6> ! RHF AllowRHF def2-SVP def2/J  NoMulliken NoLoewdin NoMayer NoPrintMOs 
|  7> 
|  8> %output print[p_atomdensfit] 2 end
|  9> 
| 10> %scf
| 11>   guess hcore
| 12>   maxiter 1000
| 13>   maxdisk 500000
| 14>   SCFMode Conventional
| 15>   lshift 1.000000
| 16>   hftyp rohf
| 17>   rohf_case sahf
| 18>   rohf_numop   2
| 19>   rohf_norb[1] 3
| 20>   rohf_nel[1]  3
| 21> end
| 22> 
| 23> %basis
| 24>   NewECP 51
| 25>     N_core 28
| 26>     lmax g
| 27>     s 2
| 28>       1      16.3308650000    281.0715810000  2
| 29>       2       8.5565420000     61.7166040000  2
| 30>     p 4
| 31>       1      14.4703370000     67.4573800000  2
| 32>       2      13.8161940000    134.9335030000  2
| 33>       3       8.4249240000     14.7163440000  2
| 34>       4       8.0927280000     29.5185120000  2
| 35>     d 4
| 36>       1      14.8863310000     35.4478150000  2
| 37>       2      15.1463190000     53.1434660000  2
| 38>       3       5.9082670000      9.1792230000  2
| 39>       4       5.5943220000     13.2402530000  2
| 40>     f 2
| 41>       1      14.4449780000    -15.3668010000  2
| 42>       2      14.4492950000    -20.2961380000  2
| 43>     g 1
| 44>       1       1.0000000000      0.0000000000  2
| 45>   end
| 46>   NewGTO 51
| 47>     s 10 
| 48>      1   12338.8000000000      0.0000417739
| 49>      2    1854.7000000000      0.0003056089
| 50>      3     418.4430000000      0.0012059459
| 51>      4      99.3430000000      0.0031033593
| 52>      5      28.5958000000     -0.0666293331
| 53>      6      17.8648000000      0.3081746817
| 54>      7       8.4571400000     -0.6021209612
| 55>      8       5.2841200000     -0.3330521245
| 56>      9       2.3201200000      0.7483998850
| 57>     10       1.2105100000      0.7171684157
| 58>     s 10 
| 59>      1   12338.8000000000     -0.0000254074
| 60>      2    1854.7000000000     -0.0001842040
| 61>      3     418.4430000000     -0.0007622234
| 62>      4      99.3430000000     -0.0017229425
| 63>      5      28.5958000000      0.0346239994
| 64>      6      17.8648000000     -0.1715113878
| 65>      7       8.4571400000      0.3869014377
| 66>      8       5.2841200000      0.1487812499
| 67>      9       2.3201200000     -0.5176322840
| 68>     10       1.2105100000     -0.7657947655
| 69>     s 1 
| 70>      1       0.5704940000      1.0000000000
| 71>     s 1 
| 72>      1       0.3039500000      1.0000000000
| 73>     s 1 
| 74>      1       0.1393180000      1.0000000000
| 75>     s 1 
| 76>      1       0.0631980000      1.0000000000
| 77>     s 1 
| 78>      1       0.0260000000      1.0000000000
| 79>     p 7 
| 80>      1     162.8930000000      0.0004035625
| 81>      2      30.3996000000     -0.0051634476
| 82>      3      19.0004000000      0.0588996771
| 83>      4       9.3225600000     -0.2747281280
| 84>      5       3.0166800000      0.3716832104
| 85>      6       1.8621900000      0.4356677749
| 86>      7       1.1033100000      0.3507463881
| 87>     p 7 
| 88>      1     162.8930000000     -0.0002500883
| 89>      2      30.3996000000      0.0013364936
| 90>      3      19.0004000000     -0.0368624836
| 91>      4       9.3225600000      0.2025715558
| 92>      5       3.0166800000     -0.3596431683
| 93>      6       1.8621900000     -0.3179268196
| 94>      7       1.1033100000     -0.4593558098
| 95>     p 1 
| 96>      1       0.5872790000      1.0000000000
| 97>     p 1 
| 98>      1       0.2512180000      1.0000000000
| 99>     p 1 
|100>      1       0.1118480000      1.0000000000
|101>     p 1 
|102>      1       0.0485120000      1.0000000000
|103>     p 1 
|104>      1       0.0189000000      1.0000000000
|105>   end
|106>   NewAuxGTO 51
|107>     S 1
|108>      1 1310.72 1.0
|109>     S 1
|110>      1  655.36 1.0
|111>     S 1
|112>      1  327.68 1.0
|113>     S 1
|114>      1  163.84 1.0
|115>     S 1
|116>      1   81.82 1.0
|117>     S 1
|118>      1   40.96 1.0
|119>     S 1
|120>      1   20.48 1.0
|121>     S 1
|122>      1   10.24 1.0
|123>     S 1
|124>      1    5.12 1.0
|125>     S 1
|126>      1    2.56 1.0
|127>     S 1
|128>      1    1.28 1.0
|129>     S 1
|130>      1    0.64 1.0
|131>     S 1
|132>      1    0.32 1.0
|133>     S 1
|134>      1    0.16 1.0
|135>     S 1
|136>      1    0.08 1.0
|137>     S 1
|138>      1    0.04 1.0
|139>     S 1
|140>      1    0.02 1.0
|141>     S 1
|142>      1    0.01 1.0
|143>   end
|144> end
|145> 
|146> * xyz 0 4
|147> 51  0.0 0.0 0.0
|148> *
|149> 
|150> 
|151>                          ****END OF INPUT****
================================================================================

                       ****************************
                       * Single Point Calculation *
                       ****************************

---------------------------------
CARTESIAN COORDINATES (ANGSTROEM)
---------------------------------
  Sb     0.000000    0.000000    0.000000

----------------------------
CARTESIAN COORDINATES (A.U.)
----------------------------
  NO LB      ZA    FRAG     MASS         X           Y           Z
   0 Sb   23.0000*   0   121.750    0.000000    0.000000    0.000000
* core charge reduced due to ECP

--------------------------------
INTERNAL COORDINATES (ANGSTROEM)
--------------------------------
 Sb     0   0   0     0.000000000000     0.00000000     0.00000000

---------------------------
INTERNAL COORDINATES (A.U.)
---------------------------
 Sb     0   0   0     0.000000000000     0.00000000     0.00000000

---------------------
BASIS SET INFORMATION
---------------------
There are 1 groups of distinct atoms

 Group   1 Type Sb  : 25s19p contracted to 7s7p pattern {101011111/7711111}

Atom   0Sb   basis set group =>   1
---------------------------------
AUXILIARY/J BASIS SET INFORMATION
---------------------------------
There are 1 groups of distinct atoms

 Group   1 Type Sb  : 18s contracted to 18s pattern {111111111111111111}

Atom   0Sb   basis set group =>   1
-------------------------
ECP PARAMETER INFORMATION
-------------------------

 Group 1, Type Sb ECP (replacing 28 core electrons, lmax=4)

Atom   0Sb   ECP group =>   1

------------------------------------------------------------------------------
                           ORCA GTO INTEGRAL CALCULATION
------------------------------------------------------------------------------

                         BASIS SET STATISTICS AND STARTUP INFO

 # of primitive gaussian shells          ...   44
 # of primitive gaussian functions       ...   82
 # of contracted shells                  ...   14
 # of contracted basis functions         ...   28
 Highest angular momentum                ...    1
 Maximum contraction depth               ...   10
 Integral package used                   ... LIBINT
 Integral threshhold            Thresh   ...  1.000e-10
 Primitive cut-off              TCut     ...  1.000e-11
 Storage cut-off                TCutStore... -1.000e+00
 Buffer length                           ... 1048576 integrals/buffer
 Generate file with integrals 4 distinct ...false


------------------------------ INTEGRAL EVALUATION ----------------------------


 * One electron integrals 

   ECP integrals                         ... done
 Pre-screening matrix                    ... done
 Shell pair data                         ... done (   0.000 sec)
 Statistics run                          ... done
 Maximum amount of storage needed        ...     0 MB
 Maximum amount of storage dedicated     ... 500000 MB
 Beginning two electron integral evaluation:
 Starting repulsion integrals
  <ss|ss>  ...          406 b.         0 skpd (  0.0%)     0.001 s. (  0.003 ms/b)
  <ss|sp>  ...         1372 b.         0 skpd (  0.0%)     0.005 s. (  0.004 ms/b)
  <ss|pp>  ...          784 b.         0 skpd (  0.0%)     0.009 s. (  0.012 ms/b)
  <sp|sp>  ...         1225 b.         0 skpd (  0.0%)     0.011 s. (  0.009 ms/b)
  <sp|pp>  ...         1372 b.         0 skpd (  0.0%)     0.017 s. (  0.013 ms/b)
  <pp|pp>  ...          406 b.         0 skpd (  0.0%)     0.011 s. (  0.027 ms/b)


                                      INTEGRAL STATISTICS

Integral type statistics:
 Number of integrals retained            ...      82621 
 One   Center Integrals retained         ...      82621 (100.0%)
 Two   Center Integrals retained         ...          0 (  0.0%)
 Three Center Integrals retained         ...          0 (  0.0%)
 Four  Center Integrals retained         ...          0 (  0.0%)

Storage statistics:
 Number of char integrals                ...          0 (  0.0%)
 Number of short int integrals           ...          0 (  0.0%)
 Number of double/float integrals        ...      82621 (100.0%)
 Amount of memory used                   ...          1 MB
 Amount of memory estimated              ...          0 MB ( 96.2%)

Prescreening statistics:
 Total number of shell quadruples        ...       5565 
 Number of skipped shell quadruples      ...          0 (  0.0%)
 # of negligible batches done            ...          0 (  0.0%)

Timings:
 Total evaluation time               ...     0.233 sec (   0.004 min)
 One electron matrix time            ...     0.009 sec (   0.000 min) =  4.1%
 Schwartz matrix evaluation time     ...     0.091 sec (   0.002 min) = 38.9%
 Statistics run                      ...     0.001 sec (   0.000 min) =  0.4%
 Repulsion integral time             ...     0.055 sec (   0.001 min) = 23.5%

-------------------------------------------------------------------------------
                                 ORCA SCF
-------------------------------------------------------------------------------

------------
SCF SETTINGS
------------
Hamiltonian:
 Ab initio Hamiltonian  Method          .... Hartree-Fock(GTOs)


General Settings:
 Integral files         IntName         .... 51_Sb_atom51
 Hartree-Fock type      HFTyp           .... ROHF
 Total Charge           Charge          ....    0
 Multiplicity           Mult            ....    4
 Number of Electrons    NEL             ....   23
 Basis Dimension        Dim             ....   28
 Nuclear Repulsion      ENuc            ....      0.0000000000 Eh

Convergence Acceleration:
 DIIS                   CNVDIIS         .... on
   Start iteration      DIISMaxIt       ....    12
   Startup error        DIISStart       ....  0.200000
   # of expansion vecs  DIISMaxEq       ....     5
   Bias factor          DIISBfac        ....   1.050
   Max. coefficient     DIISMaxC        ....  10.000
 Newton-Raphson         CNVNR           .... off
 SOSCF                  CNVSOSCF        .... off
 Level Shifting         CNVShift        .... on
   Level shift para.    LevelShift      ....    1.0000
   Turn off err/grad.   ShiftErr        ....    0.0010
 Zerner damping         CNVZerner       .... off
 Static damping         CNVDamp         .... on
   Fraction old density DampFac         ....    0.7000
   Max. Damping (<1)    DampMax         ....    0.9800
   Min. Damping (>=0)   DampMin         ....    0.0000
   Turn off err/grad.   DampErr         ....    0.1000
 Fernandez-Rico         CNVRico         .... off

SCF Procedure:
 Maximum # iterations   MaxIter         ....  1000
 SCF integral mode      SCFMode         .... Conventional
 Integral Threshold     Thresh          ....  1.000e-10 Eh
 Primitive CutOff       TCut            ....  1.000e-11 Eh
 Integral Buffer length BufferLength    .... 1048576
 Integral index format  IndFormat       ....     0
 Integral value format  ValFormat       ....     0
 Integral Storage       Thresh          ....  1.000e-10 Eh

Convergence Tolerance:
 Convergence Check Mode ConvCheckMode   .... Total+1el-Energy
 Convergence forced     ConvForced      .... 0
 Energy Change          TolE            ....  1.000e-06 Eh
 1-El. energy change                    ....  1.000e-03 Eh
 DIIS Error             TolErr          ....  1.000e-06


Diagonalization of the overlap matrix:
Smallest eigenvalue                        ... 5.750e-04
Time for diagonalization                   ...    0.000 sec
Threshold for overlap eigenvalues          ... 1.000e-08
Number of eigenvalues below threshold      ... 0
Time for construction of square roots      ...    0.000 sec
Total time needed                          ...    0.001 sec

--------------------
INITIAL GUESS: HCORE
--------------------
AVERAGE-CONFIGURATION (SAHF) CASE FOUND

-------------------
FINAL ROHF SETTINGS
-------------------
Number of operators             ... 2
  operator   0:  10 orbitals  20 electrons n(mue)= 2.000
  operator   1:   3 orbitals   3 electrons n(mue)= 1.000
Vector coupling coefficients a and b (Zerner convention):
   1.000    1.000           1.000    1.000 
   1.000    1.000           1.000    2.000 

                      -----------------
                      INTIAL GUESS DONE 
                      -----------------

 InCore treatment chosen:
   Memory dedicated               ...    1024 MB
   Memory needed                  ...      1 MB
   Number of tiny    integrals    ...       0
   Number of small   integrals    ...       0
   Number of regular integrals    ...   82621

--------------
SCF ITERATIONS
--------------
ITER       Energy         Delta-E        Max-DP      RMS-DP      [F,P]     Damp
  0   -205.7178080587   0.00000000000016.74850147  1.07010186  1.1423719 0.7000
  1   -207.5758539766  -1.85804591789920.97036516  1.21971353  0.4884398 0.7000
  2   -208.9118865493  -1.33603257261419.28660426  1.02736797  0.3729818 0.7000
  3   -209.8058868403  -0.89400029105615.10574495  0.78124172  0.2486116 0.7000
                            ****Activating DIIS****
  4   -210.4086240893  -0.60273724898310.81878880  0.58078704  0.1593407 0.7000
  5   -210.9346692928  -0.52604520346124.89528153  1.34588661  0.0782965 0.0000
  6   -211.7847141735  -0.850044880757 2.23390534  0.09281573  0.0447115 0.0000
  7   -211.8154965612  -0.030782387661 1.72231568  0.07142889  0.0334805 0.0000
  8   -211.8275312579  -0.012034696691 0.73082129  0.04228312  0.0253511 0.0000
  9   -211.8330398499  -0.005508592051 1.19331526  0.06131241  0.0197899 0.0000
 10   -211.8378675945  -0.004827744609 0.76918147  0.03492933  0.0118190 0.0000
 11   -211.8393568728  -0.001489278239 0.38938131  0.01647586  0.0075839 0.0000
 12   -211.8399081633  -0.000551290565 0.45807988  0.01881640  0.0056147 0.0000
 13   -211.8403604322  -0.000452268859 0.34055265  0.01365916  0.0034104 0.0000
 14   -211.8405692709  -0.000208838691 0.18265372  0.00719173  0.0018405 0.0000
 15   -211.8406450851  -0.000075814204 0.10575811  0.00420751  0.0010240 0.0000
 16   -211.8406771781  -0.000032093049 0.03055328  0.00135367  0.0005695 0.0000
 17   -211.8406839844  -0.000006806277 0.00729118  0.00050212  0.0004553 0.0000
 18   -211.8406856639  -0.000001679441 0.01349609  0.00073465  0.0004415 0.0000
 19   -211.8406869862  -0.000001322395 0.02164320  0.00101194  0.0003933 0.0000
 20   -211.8406883345  -0.000001348238 0.03143221  0.00139065  0.0003040 0.0000
 21   -211.8406895351  -0.000001200625 0.01956021  0.00081649  0.0001689 0.0000
                 **** Energy Check signals convergence ****

               *****************************************************
               *                     SUCCESS                       *
               *           SCF CONVERGED AFTER  22 CYCLES          *
               *****************************************************


----------------
TOTAL SCF ENERGY
----------------

Total Energy       :         -211.84068992 Eh           -5764.47823 eV

Components:
Nuclear Repulsion  :            0.00000000 Eh               0.00000 eV
Electronic Energy  :         -211.84068992 Eh           -5764.47823 eV
One Electron Energy:         -332.10367093 Eh           -9037.00032 eV
Two Electron Energy:          120.26298101 Eh            3272.52209 eV

Virial components:
Potential Energy   :         -272.11303662 Eh           -7404.57217 eV
Kinetic Energy     :           60.27234669 Eh            1640.09393 eV
Virial Ratio       :            4.51472444


---------------
SCF CONVERGENCE
---------------

  Last Energy change         ...   -3.8755e-07  Tolerance :   1.0000e-06
  Last MAX-Density change    ...    4.9735e-03  Tolerance :   1.0000e-05
  Last RMS-Density change    ...    1.9134e-04  Tolerance :   1.0000e-06
  Last DIIS Error            ...    8.1001e-05  Tolerance :   1.0000e-06

             **** THE GBW FILE WAS UPDATED (51_Sb_atom51.gbw) ****
             **** DENSITY FILE WAS UPDATED (51_Sb_atom51.scfp) ****
             **** ENERGY FILE WAS UPDATED (51_Sb_atom51.en.tmp) ****
             **** THE GBW FILE WAS UPDATED (51_Sb_atom51.gbw) ****
             **** DENSITY FILE WAS UPDATED (51_Sb_atom51.scfp) ****
----------------
ORBITAL ENERGIES
----------------

  NO   OCC          E(Eh)            E(eV) 
   0   2.0000     -10.711383      -291.4716 
   1   2.0000      -8.470343      -230.4898 
   2   2.0000      -8.470343      -230.4898 
   3   2.0000      -8.463307      -230.2983 
   4   2.0000      -2.730906       -74.3117 
   5   2.0000      -1.909411       -51.9577 
   6   2.0000      -1.909411       -51.9577 
   7   2.0000      -1.896308       -51.6012 
   8   2.0000      -0.530877       -14.4459 
   9   2.0000      -0.303511        -8.2590 
  10   1.0000      -0.352687        -9.5971 
  11   1.0000      -0.352687        -9.5971 
  12   1.0000      -0.080447        -2.1891 
  13   0.0000       0.027230         0.7410 
  14   0.0000       0.027230         0.7410 
  15   0.0000       0.034384         0.9356 
  16   0.0000       0.233394         6.3510 
  17   0.0000       0.233394         6.3510 
  18   0.0000       0.251630         6.8472 
  19   0.0000       0.325251         8.8505 
  20   0.0000       1.027889        27.9703 
  21   0.0000       1.027889        27.9703 
  22   0.0000       1.053253        28.6605 
  23   0.0000       1.458096        39.6768 
  24   0.0000      35.955106       978.3882 
  25   0.0000      35.955106       978.3882 
  26   0.0000      35.960071       978.5233 
  27   0.0000      52.771204      1435.9775 
CleanUpVectors: The p-vectors have cracked symmetry
CleanUpVectors: The p-vectors have cracked symmetry
CleanUpVectors: The p-vectors have cracked symmetry
CleanUpVectors: The p-vectors have cracked symmetry
CleanUpVectors: The p-vectors have cracked symmetry
CleanUpVectors: The p-vectors have cracked symmetry
CleanUpVectors: The p-vectors have cracked symmetry
CleanUpVectors: The p-vectors have cracked symmetry
CleanUpVectors: The p-vectors have cracked symmetry
CleanUpVectors: The p-vectors have cracked symmetry
CleanUpVectors: The p-vectors have cracked symmetry
CleanUpVectors: The p-vectors have cracked symmetry
CleanUpVectors: The p-vectors have cracked symmetry
CleanUpVectors: The p-vectors have cracked symmetry
CleanUpVectors: The p-vectors have cracked symmetry
CleanUpVectors: The p-vectors have cracked symmetry
CleanUpVectors: The p-vectors have cracked symmetry
CleanUpVectors: The p-vectors have cracked symmetry
CleanUpVectors: The p-vectors have cracked symmetry
CleanUpVectors: The p-vectors have cracked symmetry
--------------------------
ATOM BASIS FOR ELEMENT Sb
--------------------------
 NewGTO Sb
 S 25
    1      12338.799999999999        -0.000029440636
    2       1854.700000000000        -0.000215381383
    3        418.443000000000        -0.000849904228
    4         99.343000000000        -0.002187128122
    5         28.595800000000         0.046957788022
    6         17.864800000000        -0.217189647619
    7          8.457140000000         0.424351665315
    8          5.284120000000         0.234722311255
    9          2.320120000000        -0.527443417496
   10          1.210510000000        -0.505432680681
   11      12338.799999999999        -0.000013028360
   12       1854.700000000000        -0.000094455787
   13        418.443000000000        -0.000390851506
   14         99.343000000000        -0.000883487269
   15         28.595800000000         0.017754430394
   16         17.864800000000        -0.087947292317
   17          8.457140000000         0.198394603856
   18          5.284120000000         0.076291774232
   19          2.320120000000        -0.265430525505
   20          1.210510000000        -0.392682823925
   21          0.570494000000         0.464362502768
   22          0.303950000000        -0.373699959890
   23          0.139318000000         0.188431930101
   24          0.063198000000        -0.078780413228
   25          0.026000000000         0.018891776711
 P 44
    1        162.893000000000        -0.000004480843
    2         30.399600000000         0.000057330888
    3         19.000400000000        -0.000653976002
    4          9.322560000000         0.003050366515
    5          3.016680000000        -0.004126880009
    6          1.862190000000        -0.004837314628
    7          1.103310000000        -0.003894413890
    8        162.893000000000        -0.000003497679
    9         30.399600000000         0.000044751636
   10         19.000400000000        -0.000510483905
   11          9.322560000000         0.002381070569
   12          3.016680000000        -0.003221380933
   13          1.862190000000        -0.003775935592
   14          1.103310000000        -0.003039921350
   15        162.893000000000        -0.000289562735
   16         30.399600000000         0.003704858630
   17         19.000400000000        -0.042261487650
   18          9.322560000000         0.197121953130
   19          3.016680000000        -0.266688820373
   20          1.862190000000        -0.312598798417
   21          1.103310000000        -0.251666305809
   22        162.893000000000        -0.000001567258
   23         30.399600000000         0.000008375561
   24         19.000400000000        -0.000231010446
   25          9.322560000000         0.001269478909
   26          3.016680000000        -0.002253817991
   27          1.862190000000        -0.001992389260
   28          1.103310000000        -0.002878698888
   29        162.893000000000        -0.000001223378
   30         30.399600000000         0.000006537838
   31         19.000400000000        -0.000180323306
   32          9.322560000000         0.000990936287
   33          3.016680000000        -0.001759296681
   34          1.862190000000        -0.001555229316
   35          1.103310000000        -0.002247069381
   36        162.893000000000        -0.000101279925
   37         30.399600000000         0.000541248715
   38         19.000400000000        -0.014928445515
   39          9.322560000000         0.082036752229
   40          3.016680000000        -0.145647089356
   41          1.862190000000        -0.128752941761
   42          1.103310000000        -0.186028381944
   43          0.587279000000         0.003623706077
   44          0.587279000000         0.002828610872
 S 25
    1      12338.799999999999         0.000038090961
    2       1854.700000000000         0.000278665304
    3        418.443000000000         0.001099625308
    4         99.343000000000         0.002829755817
    5         28.595800000000        -0.060755047909
    6         17.864800000000         0.281004876978
    7          8.457140000000        -0.549035779626
    8          5.284120000000        -0.303689033623
    9          2.320120000000         0.682418219612
   10          1.210510000000         0.653940230634
   11      12338.799999999999        -0.000068455243
   12       1854.700000000000        -0.000496301452
   13        418.443000000000        -0.002053661051
   14         99.343000000000        -0.004642129729
   15         28.595800000000         0.093287557165
   16         17.864800000000        -0.462103704687
   17          8.457140000000         1.042429835144
   18          5.284120000000         0.400861818265
   19          2.320120000000        -1.394658390734
   20          1.210510000000        -2.063283393052
   21          0.570494000000         2.079327840315
   22          0.303950000000        -0.212459822654
   23          0.139318000000         0.367293000527
   24          0.063198000000        -0.149576637674
   25          0.026000000000         0.035946565074
 P 44
    1        162.893000000000         0.000004498141
    2         30.399600000000        -0.000057552217
    3         19.000400000000         0.000656500703
    4          9.322560000000        -0.003062142578
    5          3.016680000000         0.004142811996
    6          1.862190000000         0.004855989277
    7          1.103310000000         0.003909448432
    8        162.893000000000        -0.000000232337
    9         30.399600000000         0.000002972674
   10         19.000400000000        -0.000033909425
   11          9.322560000000         0.000158165090
   12          3.016680000000        -0.000213983580
   13          1.862190000000        -0.000250820450
   14          1.103310000000        -0.000201929938
   15        162.893000000000         0.000303706875
   16         30.399600000000        -0.003885828184
   17         19.000400000000         0.044325815426
   18          9.322560000000        -0.206750680031
   19          3.016680000000         0.279715648579
   20          1.862190000000         0.327868170558
   21          1.103310000000         0.263959336039
   22        162.893000000000        -0.000006587438
   23         30.399600000000         0.000035203838
   24         19.000400000000        -0.000970974281
   25          9.322560000000         0.005335825250
   26          3.016680000000        -0.009473161673
   27          1.862190000000        -0.008374334417
   28          1.103310000000        -0.012099637183
   29        162.893000000000         0.000000340253
   30         30.399600000000        -0.000001818341
   31         19.000400000000         0.000050152542
   32          9.322560000000        -0.000275604828
   33          3.016680000000         0.000489305585
   34          1.862190000000         0.000432549211
   35          1.103310000000         0.000624967699
   36        162.893000000000        -0.000444772623
   37         30.399600000000         0.002376903532
   38         19.000400000000        -0.065558538760
   39          9.322560000000         0.360265882698
   40          3.016680000000        -0.639611829866
   41          1.862190000000        -0.565420874833
   42          1.103310000000        -0.816947007376
   43          0.587279000000         0.020870573579
   44          0.587279000000        -0.001078002105
 S 25
    1      12338.799999999999         0.000015344285
    2       1854.700000000000         0.000112255499
    3        418.443000000000         0.000442965040
    4         99.343000000000         0.001139918197
    5         28.595800000000        -0.024474120428
    6         17.864800000000         0.113197955342
    7          8.457140000000        -0.221169569481
    8          5.284120000000        -0.122335875575
    9          2.320120000000         0.274900378879
   10          1.210510000000         0.263428513482
   11      12338.799999999999        -0.000021716700
   12       1854.700000000000        -0.000157446373
   13        418.443000000000        -0.000651502191
   14         99.343000000000        -0.001472666430
   15         28.595800000000         0.029594488269
   16         17.864800000000        -0.146597500062
   17          8.457140000000         0.330699811043
   18          5.284120000000         0.127169161017
   19          2.320120000000        -0.442440585194
   20          1.210510000000        -0.654554776932
   21          0.570494000000         0.938475335193
   22          0.303950000000        -0.284875244280
   23          0.139318000000         0.314026922125
   24          0.063198000000        -2.211731541979
   25          0.026000000000         2.219011732289
 S 25
    1      12338.799999999999         0.000019272114
    2       1854.700000000000         0.000140990656
    3        418.443000000000         0.000556355210
    4         99.343000000000         0.001431714405
    5         28.595800000000        -0.030739004653
    6         17.864800000000         0.142174362760
    7          8.457140000000        -0.277784545735
    8          5.284120000000        -0.153651407395
    9          2.320120000000         0.345269365260
   10          1.210510000000         0.330860932285
   11      12338.799999999999        -0.000029696193
   12       1854.700000000000        -0.000215297811
   13        418.443000000000        -0.000890887438
   14         99.343000000000        -0.002013776839
   15         28.595800000000         0.040468563551
   16         17.864800000000        -0.200462673786
   17          8.457140000000         0.452210769720
   18          5.284120000000         0.173895666910
   19          2.320120000000        -0.605009107671
   20          1.210510000000        -0.895061652944
   21          0.570494000000         0.243333150787
   22          0.303950000000         3.733433597866
   23          0.139318000000        -7.955721092838
   24          0.063198000000         6.856685900543
   25          0.026000000000        -2.334341201944
 S 25
    1      12338.799999999999         0.000128117676
    2       1854.700000000000         0.000937281459
    3        418.443000000000         0.003698553060
    4         99.343000000000         0.009517789342
    5         28.595800000000        -0.204347577943
    6         17.864800000000         0.945150534439
    7          8.457140000000        -1.846663538794
    8          5.284120000000        -1.021447938976
    9          2.320120000000         2.295290928442
   10          1.210510000000         2.199506162032
   11      12338.799999999999        -0.000161503089
   12       1854.700000000000        -0.001170899622
   13        418.443000000000        -0.004845101576
   14         99.343000000000        -0.010951948500
   15         28.595800000000         0.220088748341
   16         17.864800000000        -1.090218557107
   17          8.457140000000         2.459353472458
   18          5.284120000000         0.945733584639
   19          2.320120000000        -3.290348990894
   20          1.210510000000        -4.867803094551
   21          0.570494000000        11.876386180481
   22          0.303950000000       -15.634378693586
   23          0.139318000000        10.691796089384
   24          0.063198000000        -4.867418104229
   25          0.026000000000         1.146702628475
 P 44
    1        162.893000000000         0.000307005294
    2         30.399600000000        -0.003928030350
    3         19.000400000000         0.044807217420
    4          9.322560000000        -0.208996102674
    5          3.016680000000         0.282753509691
    6          1.862190000000         0.331428993739
    7          1.103310000000         0.266826075195
    8        162.893000000000        -0.000015864341
    9         30.399600000000         0.000202978957
   10         19.000400000000        -0.002315390017
   11          9.322560000000         0.010799766593
   12          3.016680000000        -0.014611142834
   13          1.862190000000        -0.017126423549
   14          1.103310000000        -0.013788100812
   15        162.893000000000        -0.000004559130
   16         30.399600000000         0.000058332544
   17         19.000400000000        -0.000665401933
   18          9.322560000000         0.003103660944
   19          3.016680000000        -0.004198982726
   20          1.862190000000        -0.004921829692
   21          1.103310000000        -0.003962455079
   22        162.893000000000        -0.000448141360
   23         30.399600000000         0.002394906359
   24         19.000400000000        -0.066055083537
   25          9.322560000000         0.362994560697
   26          3.016680000000        -0.644456292836
   27          1.862190000000        -0.569703410525
   28          1.103310000000        -0.823134618893
   29        162.893000000000         0.000023157475
   30         30.399600000000        -0.000123755560
   31         19.000400000000         0.003413362619
   32          9.322560000000        -0.018757558059
   33          3.016680000000         0.033301948949
   34          1.862190000000         0.029439132032
   35          1.103310000000         0.042535059959
   36        162.893000000000         0.000006655047
   37         30.399600000000        -0.000035565148
   38         19.000400000000         0.000980939742
   39          9.322560000000        -0.005390588755
   40          3.016680000000         0.009570388159
   41          1.862190000000         0.008460283242
   42          1.103310000000         0.012223820137
   43          0.587279000000         1.424883122026
   44          0.587279000000        -0.073630105744
 P 44
    1        162.893000000000         0.000010032982
    2         30.399600000000        -0.000128368654
    3         19.000400000000         0.001464306964
    4          9.322560000000        -0.006830025748
    5          3.016680000000         0.009240429496
    6          1.862190000000         0.010831152026
    7          1.103310000000         0.008719918413
    8        162.893000000000         0.000194157113
    9         30.399600000000        -0.002484175508
   10         19.000400000000         0.028337100832
   11          9.322560000000        -0.132173876800
   12          3.016680000000         0.178819734323
   13          1.862190000000         0.209603214729
   14          1.103310000000         0.168746863403
   15        162.893000000000         0.000000000825
   16         30.399600000000        -0.000000010558
   17         19.000400000000         0.000000120432
   18          9.322560000000        -0.000000561735
   19          3.016680000000         0.000000759979
   20          1.862190000000         0.000000890807
   21          1.103310000000         0.000000717169
   22        162.893000000000        -0.000012531539
   23         30.399600000000         0.000066969631
   24         19.000400000000        -0.001847122145
   25          9.322560000000         0.010150547930
   26          3.016680000000        -0.018021163945
   27          1.862190000000        -0.015930822113
   28          1.103310000000        -0.023017610474
   29        162.893000000000        -0.000242508902
   30         30.399600000000         0.001295988637
   31         19.000400000000        -0.035745296400
   32          9.322560000000         0.196432242139
   33          3.016680000000        -0.348743502710
   34          1.862190000000        -0.308291446761
   35          1.103310000000        -0.445434164250
   36        162.893000000000        -0.000000001031
   37         30.399600000000         0.000000005508
   38         19.000400000000        -0.000000151916
   39          9.322560000000         0.000000834831
   40          3.016680000000        -0.000001482149
   41          1.862190000000        -0.000001310229
   42          1.103310000000        -0.000001893082
   43          0.587279000000         0.047698696263
   44          0.587279000000         0.923059712479
 P 44
    1        162.893000000000         0.000066245998
    2         30.399600000000        -0.000847595451
    3         19.000400000000         0.009668559117
    4          9.322560000000        -0.045097448364
    5          3.016680000000         0.061012916700
    6          1.862190000000         0.071516175375
    7          1.103310000000         0.057576074359
    8        162.893000000000        -0.000003423228
    9         30.399600000000         0.000043799061
   10         19.000400000000        -0.000499617842
   11          9.322560000000         0.002330387553
   12          3.016680000000        -0.003152811230
   13          1.862190000000        -0.003695561744
   14          1.103310000000        -0.002975214162
   15        162.893000000000        -0.000000983775
   16         30.399600000000         0.000012587072
   17         19.000400000000        -0.000143581287
   18          9.322560000000         0.000669711958
   19          3.016680000000        -0.000906061904
   20          1.862190000000        -0.001062038754
   21          1.103310000000        -0.000855023663
   22        162.893000000000        -0.000079784168
   23         30.399600000000         0.000426373526
   24         19.000400000000        -0.011760016751
   25          9.322560000000         0.064625186827
   26          3.016680000000        -0.114734800010
   27          1.862190000000        -0.101426283827
   28          1.103310000000        -0.146545525166
   29        162.893000000000         0.000004122806
   30         30.399600000000        -0.000022032634
   31         19.000400000000         0.000607692844
   32          9.322560000000        -0.003339473439
   33          3.016680000000         0.005928862042
   34          1.862190000000         0.005241151283
   35          1.103310000000         0.007572664977
   36        162.893000000000         0.000001184821
   37         30.399600000000        -0.000006331787
   38         19.000400000000         0.000174640121
   39          9.322560000000        -0.000959705305
   40          3.016680000000         0.001703849561
   41          1.862190000000         0.001506213713
   42          1.103310000000         0.002176249304
   43          0.587279000000         0.333963327747
   44          0.587279000000        -0.017257383961
 P 44
    1        162.893000000000         0.000125054978
    2         30.399600000000        -0.001600036739
    3         19.000400000000         0.018251690452
    4          9.322560000000        -0.085132092357
    5          3.016680000000         0.115176300388
    6          1.862190000000         0.135003683532
    7          1.103310000000         0.108688448187
    8        162.893000000000        -0.000006462152
    9         30.399600000000         0.000082681079
   10         19.000400000000        -0.000943146759
   11          9.322560000000         0.004399157282
   12          3.016680000000        -0.005951676349
   13          1.862190000000        -0.006976246220
   14          1.103310000000        -0.005616419908
   15        162.893000000000        -0.000001857108
   16         30.399600000000         0.000023761072
   17         19.000400000000        -0.000271043613
   18          9.322560000000         0.001264239604
   19          3.016680000000        -0.001710405987
   20          1.862190000000        -0.002004849155
   21          1.103310000000        -0.001614059245
   22        162.893000000000        -0.000159269290
   23         30.399600000000         0.000851148919
   24         19.000400000000        -0.023475954607
   25          9.322560000000         0.129008145521
   26          3.016680000000        -0.229039551029
   27          1.862190000000        -0.202472401646
   28          1.103310000000        -0.292541768377
   29        162.893000000000         0.000008230159
   30         30.399600000000        -0.000043982685
   31         19.000400000000         0.001213107934
   32          9.322560000000        -0.006666429863
   33          3.016680000000         0.011835501523
   34          1.862190000000         0.010462657682
   35          1.103310000000         0.015116946089
   36        162.893000000000         0.000002365201
   37         30.399600000000        -0.000012639842
   38         19.000400000000         0.000348625656
   39          9.322560000000        -0.001915813442
   40          3.016680000000         0.003401312752
   41          1.862190000000         0.003006781836
   42          1.103310000000         0.004344341590
   43          0.587279000000         0.528790714614
   44          0.587279000000        -0.027324989418
 P 44
    1        162.893000000000         0.000581566331
    2         30.399600000000        -0.007440947257
    3         19.000400000000         0.084879217283
    4          9.322560000000        -0.395905540038
    5          3.016680000000         0.535625686411
    6          1.862190000000         0.627832639324
    7          1.103310000000         0.505454025432
    8        162.893000000000        -0.000030052142
    9         30.399600000000         0.000384507139
   10         19.000400000000        -0.004386090092
   11          9.322560000000         0.020458216063
   12          3.016680000000        -0.027678183085
   13          1.862190000000        -0.032442930163
   14          1.103310000000        -0.026119077953
   15        162.893000000000        -0.000008636452
   16         30.399600000000         0.000110500517
   17         19.000400000000        -0.001260484326
   18          9.322560000000         0.005879327636
   19          3.016680000000        -0.007954217818
   20          1.862190000000        -0.009323521431
   21          1.103310000000        -0.007506158717
   22        162.893000000000        -0.000643933948
   23         30.399600000000         0.003441238956
   24         19.000400000000        -0.094914494595
   25          9.322560000000         0.521586582356
   26          3.016680000000        -0.926018711168
   27          1.862190000000        -0.818606356749
   28          1.103310000000        -1.182761449270
   29        162.893000000000         0.000033274957
   30         30.399600000000        -0.000177824261
   31         19.000400000000         0.004904657909
   32          9.322560000000        -0.026952719572
   33          3.016680000000         0.047851542744
   34          1.862190000000         0.042301064329
   35          1.103310000000         0.061118592274
   36        162.893000000000         0.000009562631
   37         30.399600000000        -0.000051103532
   38         19.000400000000         0.001409511499
   39          9.322560000000        -0.007745732500
   40          3.016680000000         0.013751682787
   41          1.862190000000         0.012156573954
   42          1.103310000000         0.017564396990
   43          0.587279000000         3.471849441916
   44          0.587279000000        -0.179406042202
 P 44
    1        162.893000000000        -0.011557357227
    2         30.399600000000         0.147872531353
    3         19.000400000000        -1.686788561319
    4          9.322560000000         7.867755590511
    5          3.016680000000       -10.644387517990
    6          1.862190000000       -12.476798777500
    7          1.103310000000       -10.044791830800
    8        162.893000000000         0.000597220646
    9         30.399600000000        -0.007641238992
   10         19.000400000000         0.087163954035
   11          9.322560000000        -0.406562329375
   12          3.016680000000         0.550043393481
   13          1.862190000000         0.644732327506
   14          1.103310000000         0.519059586668
   15        162.893000000000         0.000171630548
   16         30.399600000000        -0.002195955620
   17         19.000400000000         0.025049363713
   18          9.322560000000        -0.116838752591
   19          3.016680000000         0.158072647961
   20          1.862190000000         0.185284556533
   21          1.103310000000         0.149168455228
   22        162.893000000000         0.007474892559
   23         30.399600000000        -0.039946475166
   24         19.000400000000         1.101783267571
   25          9.322560000000        -6.054663952874
   26          3.016680000000        10.749379489158
   27          1.862190000000         9.502518982401
   28          1.103310000000        13.729691970600
   29        162.893000000000        -0.000386261329
   30         30.399600000000         0.002064214096
   31         19.000400000000        -0.056934098496
   32          9.322560000000         0.312871727133
   33          3.016680000000        -0.555468801004
   34          1.862190000000        -0.491037908839
   35          1.103310000000        -0.709474955717
   36        162.893000000000        -0.000111004608
   37         30.399600000000         0.000593218266
   38         19.000400000000        -0.016361843111
   39          9.322560000000         0.089913746745
   40          3.016680000000        -0.159631813189
   41          1.862190000000        -0.141115525464
   42          1.103310000000        -0.203890431630
   43          0.587279000000        -2.000681118274
   44          0.587279000000         0.103384194698
 end
  // -----------------------------------------------
  // The basis set
  // -----------------------------------------------
  BAS[ATNO] = new BFNGauss[NSH];
  // Basis function   1 L = s
  InitBFNGauss(BAS[ATNO][  0]);
  BAS[ATNO][  0].l  = 0;
  BAS[ATNO][  0].ng = 25;
  BAS[ATNO][  0].a[  0] =     12338.799999999999;     BAS[ATNO][  0].d[  0] =         0.000029440636;
  BAS[ATNO][  0].a[  1] =      1854.700000000000;     BAS[ATNO][  0].d[  1] =         0.000215381383;
  BAS[ATNO][  0].a[  2] =       418.443000000000;     BAS[ATNO][  0].d[  2] =         0.000849904228;
  BAS[ATNO][  0].a[  3] =        99.343000000000;     BAS[ATNO][  0].d[  3] =         0.002187128122;
  BAS[ATNO][  0].a[  4] =        28.595800000000;     BAS[ATNO][  0].d[  4] =        -0.046957788022;
  BAS[ATNO][  0].a[  5] =        17.864800000000;     BAS[ATNO][  0].d[  5] =         0.217189647619;
  BAS[ATNO][  0].a[  6] =         8.457140000000;     BAS[ATNO][  0].d[  6] =        -0.424351665315;
  BAS[ATNO][  0].a[  7] =         5.284120000000;     BAS[ATNO][  0].d[  7] =        -0.234722311255;
  BAS[ATNO][  0].a[  8] =         2.320120000000;     BAS[ATNO][  0].d[  8] =         0.527443417496;
  BAS[ATNO][  0].a[  9] =         1.210510000000;     BAS[ATNO][  0].d[  9] =         0.505432680681;
  BAS[ATNO][  0].a[ 10] =     12338.799999999999;     BAS[ATNO][  0].d[ 10] =         0.000013028360;
  BAS[ATNO][  0].a[ 11] =      1854.700000000000;     BAS[ATNO][  0].d[ 11] =         0.000094455787;
  BAS[ATNO][  0].a[ 12] =       418.443000000000;     BAS[ATNO][  0].d[ 12] =         0.000390851506;
  BAS[ATNO][  0].a[ 13] =        99.343000000000;     BAS[ATNO][  0].d[ 13] =         0.000883487269;
  BAS[ATNO][  0].a[ 14] =        28.595800000000;     BAS[ATNO][  0].d[ 14] =        -0.017754430394;
  BAS[ATNO][  0].a[ 15] =        17.864800000000;     BAS[ATNO][  0].d[ 15] =         0.087947292317;
  BAS[ATNO][  0].a[ 16] =         8.457140000000;     BAS[ATNO][  0].d[ 16] =        -0.198394603856;
  BAS[ATNO][  0].a[ 17] =         5.284120000000;     BAS[ATNO][  0].d[ 17] =        -0.076291774232;
  BAS[ATNO][  0].a[ 18] =         2.320120000000;     BAS[ATNO][  0].d[ 18] =         0.265430525505;
  BAS[ATNO][  0].a[ 19] =         1.210510000000;     BAS[ATNO][  0].d[ 19] =         0.392682823925;
  BAS[ATNO][  0].a[ 20] =         0.570494000000;     BAS[ATNO][  0].d[ 20] =        -0.464362502768;
  BAS[ATNO][  0].a[ 21] =         0.303950000000;     BAS[ATNO][  0].d[ 21] =         0.373699959890;
  BAS[ATNO][  0].a[ 22] =         0.139318000000;     BAS[ATNO][  0].d[ 22] =        -0.188431930101;
  BAS[ATNO][  0].a[ 23] =         0.063198000000;     BAS[ATNO][  0].d[ 23] =         0.078780413228;
  BAS[ATNO][  0].a[ 24] =         0.026000000000;     BAS[ATNO][  0].d[ 24] =        -0.018891776711;

  // Basis function   2 L = p
  InitBFNGauss(BAS[ATNO][  1]);
  BAS[ATNO][  1].l  = 1;
  BAS[ATNO][  1].ng = 44;
  BAS[ATNO][  1].a[  0] =       162.893000000000;     BAS[ATNO][  1].d[  0] =         0.000004480843;
  BAS[ATNO][  1].a[  1] =        30.399600000000;     BAS[ATNO][  1].d[  1] =        -0.000057330888;
  BAS[ATNO][  1].a[  2] =        19.000400000000;     BAS[ATNO][  1].d[  2] =         0.000653976002;
  BAS[ATNO][  1].a[  3] =         9.322560000000;     BAS[ATNO][  1].d[  3] =        -0.003050366515;
  BAS[ATNO][  1].a[  4] =         3.016680000000;     BAS[ATNO][  1].d[  4] =         0.004126880009;
  BAS[ATNO][  1].a[  5] =         1.862190000000;     BAS[ATNO][  1].d[  5] =         0.004837314628;
  BAS[ATNO][  1].a[  6] =         1.103310000000;     BAS[ATNO][  1].d[  6] =         0.003894413890;
  BAS[ATNO][  1].a[  7] =       162.893000000000;     BAS[ATNO][  1].d[  7] =         0.000003497679;
  BAS[ATNO][  1].a[  8] =        30.399600000000;     BAS[ATNO][  1].d[  8] =        -0.000044751636;
  BAS[ATNO][  1].a[  9] =        19.000400000000;     BAS[ATNO][  1].d[  9] =         0.000510483905;
  BAS[ATNO][  1].a[ 10] =         9.322560000000;     BAS[ATNO][  1].d[ 10] =        -0.002381070569;
  BAS[ATNO][  1].a[ 11] =         3.016680000000;     BAS[ATNO][  1].d[ 11] =         0.003221380933;
  BAS[ATNO][  1].a[ 12] =         1.862190000000;     BAS[ATNO][  1].d[ 12] =         0.003775935592;
  BAS[ATNO][  1].a[ 13] =         1.103310000000;     BAS[ATNO][  1].d[ 13] =         0.003039921350;
  BAS[ATNO][  1].a[ 14] =       162.893000000000;     BAS[ATNO][  1].d[ 14] =         0.000289562735;
  BAS[ATNO][  1].a[ 15] =        30.399600000000;     BAS[ATNO][  1].d[ 15] =        -0.003704858630;
  BAS[ATNO][  1].a[ 16] =        19.000400000000;     BAS[ATNO][  1].d[ 16] =         0.042261487650;
  BAS[ATNO][  1].a[ 17] =         9.322560000000;     BAS[ATNO][  1].d[ 17] =        -0.197121953130;
  BAS[ATNO][  1].a[ 18] =         3.016680000000;     BAS[ATNO][  1].d[ 18] =         0.266688820373;
  BAS[ATNO][  1].a[ 19] =         1.862190000000;     BAS[ATNO][  1].d[ 19] =         0.312598798417;
  BAS[ATNO][  1].a[ 20] =         1.103310000000;     BAS[ATNO][  1].d[ 20] =         0.251666305809;
  BAS[ATNO][  1].a[ 21] =       162.893000000000;     BAS[ATNO][  1].d[ 21] =         0.000001567258;
  BAS[ATNO][  1].a[ 22] =        30.399600000000;     BAS[ATNO][  1].d[ 22] =        -0.000008375561;
  BAS[ATNO][  1].a[ 23] =        19.000400000000;     BAS[ATNO][  1].d[ 23] =         0.000231010446;
  BAS[ATNO][  1].a[ 24] =         9.322560000000;     BAS[ATNO][  1].d[ 24] =        -0.001269478909;
  BAS[ATNO][  1].a[ 25] =         3.016680000000;     BAS[ATNO][  1].d[ 25] =         0.002253817991;
  BAS[ATNO][  1].a[ 26] =         1.862190000000;     BAS[ATNO][  1].d[ 26] =         0.001992389260;
  BAS[ATNO][  1].a[ 27] =         1.103310000000;     BAS[ATNO][  1].d[ 27] =         0.002878698888;
  BAS[ATNO][  1].a[ 28] =       162.893000000000;     BAS[ATNO][  1].d[ 28] =         0.000001223378;
  BAS[ATNO][  1].a[ 29] =        30.399600000000;     BAS[ATNO][  1].d[ 29] =        -0.000006537838;
  BAS[ATNO][  1].a[ 30] =        19.000400000000;     BAS[ATNO][  1].d[ 30] =         0.000180323306;
  BAS[ATNO][  1].a[ 31] =         9.322560000000;     BAS[ATNO][  1].d[ 31] =        -0.000990936287;
  BAS[ATNO][  1].a[ 32] =         3.016680000000;     BAS[ATNO][  1].d[ 32] =         0.001759296681;
  BAS[ATNO][  1].a[ 33] =         1.862190000000;     BAS[ATNO][  1].d[ 33] =         0.001555229316;
  BAS[ATNO][  1].a[ 34] =         1.103310000000;     BAS[ATNO][  1].d[ 34] =         0.002247069381;
  BAS[ATNO][  1].a[ 35] =       162.893000000000;     BAS[ATNO][  1].d[ 35] =         0.000101279925;
  BAS[ATNO][  1].a[ 36] =        30.399600000000;     BAS[ATNO][  1].d[ 36] =        -0.000541248715;
  BAS[ATNO][  1].a[ 37] =        19.000400000000;     BAS[ATNO][  1].d[ 37] =         0.014928445515;
  BAS[ATNO][  1].a[ 38] =         9.322560000000;     BAS[ATNO][  1].d[ 38] =        -0.082036752229;
  BAS[ATNO][  1].a[ 39] =         3.016680000000;     BAS[ATNO][  1].d[ 39] =         0.145647089356;
  BAS[ATNO][  1].a[ 40] =         1.862190000000;     BAS[ATNO][  1].d[ 40] =         0.128752941761;
  BAS[ATNO][  1].a[ 41] =         1.103310000000;     BAS[ATNO][  1].d[ 41] =         0.186028381944;
  BAS[ATNO][  1].a[ 42] =         0.587279000000;     BAS[ATNO][  1].d[ 42] =        -0.003623706077;
  BAS[ATNO][  1].a[ 43] =         0.587279000000;     BAS[ATNO][  1].d[ 43] =        -0.002828610872;

  // Basis function   3 L = s
  InitBFNGauss(BAS[ATNO][  2]);
  BAS[ATNO][  2].l  = 0;
  BAS[ATNO][  2].ng = 25;
  BAS[ATNO][  2].a[  0] =     12338.799999999999;     BAS[ATNO][  2].d[  0] =         0.000038090961;
  BAS[ATNO][  2].a[  1] =      1854.700000000000;     BAS[ATNO][  2].d[  1] =         0.000278665304;
  BAS[ATNO][  2].a[  2] =       418.443000000000;     BAS[ATNO][  2].d[  2] =         0.001099625308;
  BAS[ATNO][  2].a[  3] =        99.343000000000;     BAS[ATNO][  2].d[  3] =         0.002829755817;
  BAS[ATNO][  2].a[  4] =        28.595800000000;     BAS[ATNO][  2].d[  4] =        -0.060755047909;
  BAS[ATNO][  2].a[  5] =        17.864800000000;     BAS[ATNO][  2].d[  5] =         0.281004876978;
  BAS[ATNO][  2].a[  6] =         8.457140000000;     BAS[ATNO][  2].d[  6] =        -0.549035779626;
  BAS[ATNO][  2].a[  7] =         5.284120000000;     BAS[ATNO][  2].d[  7] =        -0.303689033623;
  BAS[ATNO][  2].a[  8] =         2.320120000000;     BAS[ATNO][  2].d[  8] =         0.682418219612;
  BAS[ATNO][  2].a[  9] =         1.210510000000;     BAS[ATNO][  2].d[  9] =         0.653940230634;
  BAS[ATNO][  2].a[ 10] =     12338.799999999999;     BAS[ATNO][  2].d[ 10] =        -0.000068455243;
  BAS[ATNO][  2].a[ 11] =      1854.700000000000;     BAS[ATNO][  2].d[ 11] =        -0.000496301452;
  BAS[ATNO][  2].a[ 12] =       418.443000000000;     BAS[ATNO][  2].d[ 12] =        -0.002053661051;
  BAS[ATNO][  2].a[ 13] =        99.343000000000;     BAS[ATNO][  2].d[ 13] =        -0.004642129729;
  BAS[ATNO][  2].a[ 14] =        28.595800000000;     BAS[ATNO][  2].d[ 14] =         0.093287557165;
  BAS[ATNO][  2].a[ 15] =        17.864800000000;     BAS[ATNO][  2].d[ 15] =        -0.462103704687;
  BAS[ATNO][  2].a[ 16] =         8.457140000000;     BAS[ATNO][  2].d[ 16] =         1.042429835144;
  BAS[ATNO][  2].a[ 17] =         5.284120000000;     BAS[ATNO][  2].d[ 17] =         0.400861818265;
  BAS[ATNO][  2].a[ 18] =         2.320120000000;     BAS[ATNO][  2].d[ 18] =        -1.394658390734;
  BAS[ATNO][  2].a[ 19] =         1.210510000000;     BAS[ATNO][  2].d[ 19] =        -2.063283393052;
  BAS[ATNO][  2].a[ 20] =         0.570494000000;     BAS[ATNO][  2].d[ 20] =         2.079327840315;
  BAS[ATNO][  2].a[ 21] =         0.303950000000;     BAS[ATNO][  2].d[ 21] =        -0.212459822654;
  BAS[ATNO][  2].a[ 22] =         0.139318000000;     BAS[ATNO][  2].d[ 22] =         0.367293000527;
  BAS[ATNO][  2].a[ 23] =         0.063198000000;     BAS[ATNO][  2].d[ 23] =        -0.149576637674;
  BAS[ATNO][  2].a[ 24] =         0.026000000000;     BAS[ATNO][  2].d[ 24] =         0.035946565074;

  // Basis function   4 L = p
  InitBFNGauss(BAS[ATNO][  3]);
  BAS[ATNO][  3].l  = 1;
  BAS[ATNO][  3].ng = 44;
  BAS[ATNO][  3].a[  0] =       162.893000000000;     BAS[ATNO][  3].d[  0] =        -0.000004498141;
  BAS[ATNO][  3].a[  1] =        30.399600000000;     BAS[ATNO][  3].d[  1] =         0.000057552217;
  BAS[ATNO][  3].a[  2] =        19.000400000000;     BAS[ATNO][  3].d[  2] =        -0.000656500703;
  BAS[ATNO][  3].a[  3] =         9.322560000000;     BAS[ATNO][  3].d[  3] =         0.003062142578;
  BAS[ATNO][  3].a[  4] =         3.016680000000;     BAS[ATNO][  3].d[  4] =        -0.004142811996;
  BAS[ATNO][  3].a[  5] =         1.862190000000;     BAS[ATNO][  3].d[  5] =        -0.004855989277;
  BAS[ATNO][  3].a[  6] =         1.103310000000;     BAS[ATNO][  3].d[  6] =        -0.003909448432;
  BAS[ATNO][  3].a[  7] =       162.893000000000;     BAS[ATNO][  3].d[  7] =         0.000000232337;
  BAS[ATNO][  3].a[  8] =        30.399600000000;     BAS[ATNO][  3].d[  8] =        -0.000002972674;
  BAS[ATNO][  3].a[  9] =        19.000400000000;     BAS[ATNO][  3].d[  9] =         0.000033909425;
  BAS[ATNO][  3].a[ 10] =         9.322560000000;     BAS[ATNO][  3].d[ 10] =        -0.000158165090;
  BAS[ATNO][  3].a[ 11] =         3.016680000000;     BAS[ATNO][  3].d[ 11] =         0.000213983580;
  BAS[ATNO][  3].a[ 12] =         1.862190000000;     BAS[ATNO][  3].d[ 12] =         0.000250820450;
  BAS[ATNO][  3].a[ 13] =         1.103310000000;     BAS[ATNO][  3].d[ 13] =         0.000201929938;
  BAS[ATNO][  3].a[ 14] =       162.893000000000;     BAS[ATNO][  3].d[ 14] =        -0.000303706875;
  BAS[ATNO][  3].a[ 15] =        30.399600000000;     BAS[ATNO][  3].d[ 15] =         0.003885828184;
  BAS[ATNO][  3].a[ 16] =        19.000400000000;     BAS[ATNO][  3].d[ 16] =        -0.044325815426;
  BAS[ATNO][  3].a[ 17] =         9.322560000000;     BAS[ATNO][  3].d[ 17] =         0.206750680031;
  BAS[ATNO][  3].a[ 18] =         3.016680000000;     BAS[ATNO][  3].d[ 18] =        -0.279715648579;
  BAS[ATNO][  3].a[ 19] =         1.862190000000;     BAS[ATNO][  3].d[ 19] =        -0.327868170558;
  BAS[ATNO][  3].a[ 20] =         1.103310000000;     BAS[ATNO][  3].d[ 20] =        -0.263959336039;
  BAS[ATNO][  3].a[ 21] =       162.893000000000;     BAS[ATNO][  3].d[ 21] =         0.000006587438;
  BAS[ATNO][  3].a[ 22] =        30.399600000000;     BAS[ATNO][  3].d[ 22] =        -0.000035203838;
  BAS[ATNO][  3].a[ 23] =        19.000400000000;     BAS[ATNO][  3].d[ 23] =         0.000970974281;
  BAS[ATNO][  3].a[ 24] =         9.322560000000;     BAS[ATNO][  3].d[ 24] =        -0.005335825250;
  BAS[ATNO][  3].a[ 25] =         3.016680000000;     BAS[ATNO][  3].d[ 25] =         0.009473161673;
  BAS[ATNO][  3].a[ 26] =         1.862190000000;     BAS[ATNO][  3].d[ 26] =         0.008374334417;
  BAS[ATNO][  3].a[ 27] =         1.103310000000;     BAS[ATNO][  3].d[ 27] =         0.012099637183;
  BAS[ATNO][  3].a[ 28] =       162.893000000000;     BAS[ATNO][  3].d[ 28] =        -0.000000340253;
  BAS[ATNO][  3].a[ 29] =        30.399600000000;     BAS[ATNO][  3].d[ 29] =         0.000001818341;
  BAS[ATNO][  3].a[ 30] =        19.000400000000;     BAS[ATNO][  3].d[ 30] =        -0.000050152542;
  BAS[ATNO][  3].a[ 31] =         9.322560000000;     BAS[ATNO][  3].d[ 31] =         0.000275604828;
  BAS[ATNO][  3].a[ 32] =         3.016680000000;     BAS[ATNO][  3].d[ 32] =        -0.000489305585;
  BAS[ATNO][  3].a[ 33] =         1.862190000000;     BAS[ATNO][  3].d[ 33] =        -0.000432549211;
  BAS[ATNO][  3].a[ 34] =         1.103310000000;     BAS[ATNO][  3].d[ 34] =        -0.000624967699;
  BAS[ATNO][  3].a[ 35] =       162.893000000000;     BAS[ATNO][  3].d[ 35] =         0.000444772623;
  BAS[ATNO][  3].a[ 36] =        30.399600000000;     BAS[ATNO][  3].d[ 36] =        -0.002376903532;
  BAS[ATNO][  3].a[ 37] =        19.000400000000;     BAS[ATNO][  3].d[ 37] =         0.065558538760;
  BAS[ATNO][  3].a[ 38] =         9.322560000000;     BAS[ATNO][  3].d[ 38] =        -0.360265882698;
  BAS[ATNO][  3].a[ 39] =         3.016680000000;     BAS[ATNO][  3].d[ 39] =         0.639611829866;
  BAS[ATNO][  3].a[ 40] =         1.862190000000;     BAS[ATNO][  3].d[ 40] =         0.565420874833;
  BAS[ATNO][  3].a[ 41] =         1.103310000000;     BAS[ATNO][  3].d[ 41] =         0.816947007376;
  BAS[ATNO][  3].a[ 42] =         0.587279000000;     BAS[ATNO][  3].d[ 42] =        -0.020870573579;
  BAS[ATNO][  3].a[ 43] =         0.587279000000;     BAS[ATNO][  3].d[ 43] =         0.001078002105;

  // Basis function   5 L = s
  InitBFNGauss(BAS[ATNO][  4]);
  BAS[ATNO][  4].l  = 0;
  BAS[ATNO][  4].ng = 25;
  BAS[ATNO][  4].a[  0] =     12338.799999999999;     BAS[ATNO][  4].d[  0] =         0.000015344285;
  BAS[ATNO][  4].a[  1] =      1854.700000000000;     BAS[ATNO][  4].d[  1] =         0.000112255499;
  BAS[ATNO][  4].a[  2] =       418.443000000000;     BAS[ATNO][  4].d[  2] =         0.000442965040;
  BAS[ATNO][  4].a[  3] =        99.343000000000;     BAS[ATNO][  4].d[  3] =         0.001139918197;
  BAS[ATNO][  4].a[  4] =        28.595800000000;     BAS[ATNO][  4].d[  4] =        -0.024474120428;
  BAS[ATNO][  4].a[  5] =        17.864800000000;     BAS[ATNO][  4].d[  5] =         0.113197955342;
  BAS[ATNO][  4].a[  6] =         8.457140000000;     BAS[ATNO][  4].d[  6] =        -0.221169569481;
  BAS[ATNO][  4].a[  7] =         5.284120000000;     BAS[ATNO][  4].d[  7] =        -0.122335875575;
  BAS[ATNO][  4].a[  8] =         2.320120000000;     BAS[ATNO][  4].d[  8] =         0.274900378879;
  BAS[ATNO][  4].a[  9] =         1.210510000000;     BAS[ATNO][  4].d[  9] =         0.263428513482;
  BAS[ATNO][  4].a[ 10] =     12338.799999999999;     BAS[ATNO][  4].d[ 10] =        -0.000021716700;
  BAS[ATNO][  4].a[ 11] =      1854.700000000000;     BAS[ATNO][  4].d[ 11] =        -0.000157446373;
  BAS[ATNO][  4].a[ 12] =       418.443000000000;     BAS[ATNO][  4].d[ 12] =        -0.000651502191;
  BAS[ATNO][  4].a[ 13] =        99.343000000000;     BAS[ATNO][  4].d[ 13] =        -0.001472666430;
  BAS[ATNO][  4].a[ 14] =        28.595800000000;     BAS[ATNO][  4].d[ 14] =         0.029594488269;
  BAS[ATNO][  4].a[ 15] =        17.864800000000;     BAS[ATNO][  4].d[ 15] =        -0.146597500062;
  BAS[ATNO][  4].a[ 16] =         8.457140000000;     BAS[ATNO][  4].d[ 16] =         0.330699811043;
  BAS[ATNO][  4].a[ 17] =         5.284120000000;     BAS[ATNO][  4].d[ 17] =         0.127169161017;
  BAS[ATNO][  4].a[ 18] =         2.320120000000;     BAS[ATNO][  4].d[ 18] =        -0.442440585194;
  BAS[ATNO][  4].a[ 19] =         1.210510000000;     BAS[ATNO][  4].d[ 19] =        -0.654554776932;
  BAS[ATNO][  4].a[ 20] =         0.570494000000;     BAS[ATNO][  4].d[ 20] =         0.938475335193;
  BAS[ATNO][  4].a[ 21] =         0.303950000000;     BAS[ATNO][  4].d[ 21] =        -0.284875244280;
  BAS[ATNO][  4].a[ 22] =         0.139318000000;     BAS[ATNO][  4].d[ 22] =         0.314026922125;
  BAS[ATNO][  4].a[ 23] =         0.063198000000;     BAS[ATNO][  4].d[ 23] =        -2.211731541979;
  BAS[ATNO][  4].a[ 24] =         0.026000000000;     BAS[ATNO][  4].d[ 24] =         2.219011732289;

  // Basis function   6 L = s
  InitBFNGauss(BAS[ATNO][  5]);
  BAS[ATNO][  5].l  = 0;
  BAS[ATNO][  5].ng = 25;
  BAS[ATNO][  5].a[  0] =     12338.799999999999;     BAS[ATNO][  5].d[  0] =        -0.000019272114;
  BAS[ATNO][  5].a[  1] =      1854.700000000000;     BAS[ATNO][  5].d[  1] =        -0.000140990656;
  BAS[ATNO][  5].a[  2] =       418.443000000000;     BAS[ATNO][  5].d[  2] =        -0.000556355210;
  BAS[ATNO][  5].a[  3] =        99.343000000000;     BAS[ATNO][  5].d[  3] =        -0.001431714405;
  BAS[ATNO][  5].a[  4] =        28.595800000000;     BAS[ATNO][  5].d[  4] =         0.030739004653;
  BAS[ATNO][  5].a[  5] =        17.864800000000;     BAS[ATNO][  5].d[  5] =        -0.142174362760;
  BAS[ATNO][  5].a[  6] =         8.457140000000;     BAS[ATNO][  5].d[  6] =         0.277784545735;
  BAS[ATNO][  5].a[  7] =         5.284120000000;     BAS[ATNO][  5].d[  7] =         0.153651407395;
  BAS[ATNO][  5].a[  8] =         2.320120000000;     BAS[ATNO][  5].d[  8] =        -0.345269365260;
  BAS[ATNO][  5].a[  9] =         1.210510000000;     BAS[ATNO][  5].d[  9] =        -0.330860932285;
  BAS[ATNO][  5].a[ 10] =     12338.799999999999;     BAS[ATNO][  5].d[ 10] =         0.000029696193;
  BAS[ATNO][  5].a[ 11] =      1854.700000000000;     BAS[ATNO][  5].d[ 11] =         0.000215297811;
  BAS[ATNO][  5].a[ 12] =       418.443000000000;     BAS[ATNO][  5].d[ 12] =         0.000890887438;
  BAS[ATNO][  5].a[ 13] =        99.343000000000;     BAS[ATNO][  5].d[ 13] =         0.002013776839;
  BAS[ATNO][  5].a[ 14] =        28.595800000000;     BAS[ATNO][  5].d[ 14] =        -0.040468563551;
  BAS[ATNO][  5].a[ 15] =        17.864800000000;     BAS[ATNO][  5].d[ 15] =         0.200462673786;
  BAS[ATNO][  5].a[ 16] =         8.457140000000;     BAS[ATNO][  5].d[ 16] =        -0.452210769720;
  BAS[ATNO][  5].a[ 17] =         5.284120000000;     BAS[ATNO][  5].d[ 17] =        -0.173895666910;
  BAS[ATNO][  5].a[ 18] =         2.320120000000;     BAS[ATNO][  5].d[ 18] =         0.605009107671;
  BAS[ATNO][  5].a[ 19] =         1.210510000000;     BAS[ATNO][  5].d[ 19] =         0.895061652944;
  BAS[ATNO][  5].a[ 20] =         0.570494000000;     BAS[ATNO][  5].d[ 20] =        -0.243333150787;
  BAS[ATNO][  5].a[ 21] =         0.303950000000;     BAS[ATNO][  5].d[ 21] =        -3.733433597866;
  BAS[ATNO][  5].a[ 22] =         0.139318000000;     BAS[ATNO][  5].d[ 22] =         7.955721092838;
  BAS[ATNO][  5].a[ 23] =         0.063198000000;     BAS[ATNO][  5].d[ 23] =        -6.856685900543;
  BAS[ATNO][  5].a[ 24] =         0.026000000000;     BAS[ATNO][  5].d[ 24] =         2.334341201944;

  // Basis function   7 L = s
  InitBFNGauss(BAS[ATNO][  6]);
  BAS[ATNO][  6].l  = 0;
  BAS[ATNO][  6].ng = 25;
  BAS[ATNO][  6].a[  0] =     12338.799999999999;     BAS[ATNO][  6].d[  0] =        -0.000128117676;
  BAS[ATNO][  6].a[  1] =      1854.700000000000;     BAS[ATNO][  6].d[  1] =        -0.000937281459;
  BAS[ATNO][  6].a[  2] =       418.443000000000;     BAS[ATNO][  6].d[  2] =        -0.003698553060;
  BAS[ATNO][  6].a[  3] =        99.343000000000;     BAS[ATNO][  6].d[  3] =        -0.009517789342;
  BAS[ATNO][  6].a[  4] =        28.595800000000;     BAS[ATNO][  6].d[  4] =         0.204347577943;
  BAS[ATNO][  6].a[  5] =        17.864800000000;     BAS[ATNO][  6].d[  5] =        -0.945150534439;
  BAS[ATNO][  6].a[  6] =         8.457140000000;     BAS[ATNO][  6].d[  6] =         1.846663538794;
  BAS[ATNO][  6].a[  7] =         5.284120000000;     BAS[ATNO][  6].d[  7] =         1.021447938976;
  BAS[ATNO][  6].a[  8] =         2.320120000000;     BAS[ATNO][  6].d[  8] =        -2.295290928442;
  BAS[ATNO][  6].a[  9] =         1.210510000000;     BAS[ATNO][  6].d[  9] =        -2.199506162032;
  BAS[ATNO][  6].a[ 10] =     12338.799999999999;     BAS[ATNO][  6].d[ 10] =         0.000161503089;
  BAS[ATNO][  6].a[ 11] =      1854.700000000000;     BAS[ATNO][  6].d[ 11] =         0.001170899622;
  BAS[ATNO][  6].a[ 12] =       418.443000000000;     BAS[ATNO][  6].d[ 12] =         0.004845101576;
  BAS[ATNO][  6].a[ 13] =        99.343000000000;     BAS[ATNO][  6].d[ 13] =         0.010951948500;
  BAS[ATNO][  6].a[ 14] =        28.595800000000;     BAS[ATNO][  6].d[ 14] =        -0.220088748341;
  BAS[ATNO][  6].a[ 15] =        17.864800000000;     BAS[ATNO][  6].d[ 15] =         1.090218557107;
  BAS[ATNO][  6].a[ 16] =         8.457140000000;     BAS[ATNO][  6].d[ 16] =        -2.459353472458;
  BAS[ATNO][  6].a[ 17] =         5.284120000000;     BAS[ATNO][  6].d[ 17] =        -0.945733584639;
  BAS[ATNO][  6].a[ 18] =         2.320120000000;     BAS[ATNO][  6].d[ 18] =         3.290348990894;
  BAS[ATNO][  6].a[ 19] =         1.210510000000;     BAS[ATNO][  6].d[ 19] =         4.867803094551;
  BAS[ATNO][  6].a[ 20] =         0.570494000000;     BAS[ATNO][  6].d[ 20] =       -11.876386180481;
  BAS[ATNO][  6].a[ 21] =         0.303950000000;     BAS[ATNO][  6].d[ 21] =        15.634378693586;
  BAS[ATNO][  6].a[ 22] =         0.139318000000;     BAS[ATNO][  6].d[ 22] =       -10.691796089384;
  BAS[ATNO][  6].a[ 23] =         0.063198000000;     BAS[ATNO][  6].d[ 23] =         4.867418104229;
  BAS[ATNO][  6].a[ 24] =         0.026000000000;     BAS[ATNO][  6].d[ 24] =        -1.146702628475;

  // Basis function   8 L = p
  InitBFNGauss(BAS[ATNO][  7]);
  BAS[ATNO][  7].l  = 1;
  BAS[ATNO][  7].ng = 44;
  BAS[ATNO][  7].a[  0] =       162.893000000000;     BAS[ATNO][  7].d[  0] =         0.000307005294;
  BAS[ATNO][  7].a[  1] =        30.399600000000;     BAS[ATNO][  7].d[  1] =        -0.003928030350;
  BAS[ATNO][  7].a[  2] =        19.000400000000;     BAS[ATNO][  7].d[  2] =         0.044807217420;
  BAS[ATNO][  7].a[  3] =         9.322560000000;     BAS[ATNO][  7].d[  3] =        -0.208996102674;
  BAS[ATNO][  7].a[  4] =         3.016680000000;     BAS[ATNO][  7].d[  4] =         0.282753509691;
  BAS[ATNO][  7].a[  5] =         1.862190000000;     BAS[ATNO][  7].d[  5] =         0.331428993739;
  BAS[ATNO][  7].a[  6] =         1.103310000000;     BAS[ATNO][  7].d[  6] =         0.266826075195;
  BAS[ATNO][  7].a[  7] =       162.893000000000;     BAS[ATNO][  7].d[  7] =        -0.000015864341;
  BAS[ATNO][  7].a[  8] =        30.399600000000;     BAS[ATNO][  7].d[  8] =         0.000202978957;
  BAS[ATNO][  7].a[  9] =        19.000400000000;     BAS[ATNO][  7].d[  9] =        -0.002315390017;
  BAS[ATNO][  7].a[ 10] =         9.322560000000;     BAS[ATNO][  7].d[ 10] =         0.010799766593;
  BAS[ATNO][  7].a[ 11] =         3.016680000000;     BAS[ATNO][  7].d[ 11] =        -0.014611142834;
  BAS[ATNO][  7].a[ 12] =         1.862190000000;     BAS[ATNO][  7].d[ 12] =        -0.017126423549;
  BAS[ATNO][  7].a[ 13] =         1.103310000000;     BAS[ATNO][  7].d[ 13] =        -0.013788100812;
  BAS[ATNO][  7].a[ 14] =       162.893000000000;     BAS[ATNO][  7].d[ 14] =        -0.000004559130;
  BAS[ATNO][  7].a[ 15] =        30.399600000000;     BAS[ATNO][  7].d[ 15] =         0.000058332544;
  BAS[ATNO][  7].a[ 16] =        19.000400000000;     BAS[ATNO][  7].d[ 16] =        -0.000665401933;
  BAS[ATNO][  7].a[ 17] =         9.322560000000;     BAS[ATNO][  7].d[ 17] =         0.003103660944;
  BAS[ATNO][  7].a[ 18] =         3.016680000000;     BAS[ATNO][  7].d[ 18] =        -0.004198982726;
  BAS[ATNO][  7].a[ 19] =         1.862190000000;     BAS[ATNO][  7].d[ 19] =        -0.004921829692;
  BAS[ATNO][  7].a[ 20] =         1.103310000000;     BAS[ATNO][  7].d[ 20] =        -0.003962455079;
  BAS[ATNO][  7].a[ 21] =       162.893000000000;     BAS[ATNO][  7].d[ 21] =        -0.000448141360;
  BAS[ATNO][  7].a[ 22] =        30.399600000000;     BAS[ATNO][  7].d[ 22] =         0.002394906359;
  BAS[ATNO][  7].a[ 23] =        19.000400000000;     BAS[ATNO][  7].d[ 23] =        -0.066055083537;
  BAS[ATNO][  7].a[ 24] =         9.322560000000;     BAS[ATNO][  7].d[ 24] =         0.362994560697;
  BAS[ATNO][  7].a[ 25] =         3.016680000000;     BAS[ATNO][  7].d[ 25] =        -0.644456292836;
  BAS[ATNO][  7].a[ 26] =         1.862190000000;     BAS[ATNO][  7].d[ 26] =        -0.569703410525;
  BAS[ATNO][  7].a[ 27] =         1.103310000000;     BAS[ATNO][  7].d[ 27] =        -0.823134618893;
  BAS[ATNO][  7].a[ 28] =       162.893000000000;     BAS[ATNO][  7].d[ 28] =         0.000023157475;
  BAS[ATNO][  7].a[ 29] =        30.399600000000;     BAS[ATNO][  7].d[ 29] =        -0.000123755560;
  BAS[ATNO][  7].a[ 30] =        19.000400000000;     BAS[ATNO][  7].d[ 30] =         0.003413362619;
  BAS[ATNO][  7].a[ 31] =         9.322560000000;     BAS[ATNO][  7].d[ 31] =        -0.018757558059;
  BAS[ATNO][  7].a[ 32] =         3.016680000000;     BAS[ATNO][  7].d[ 32] =         0.033301948949;
  BAS[ATNO][  7].a[ 33] =         1.862190000000;     BAS[ATNO][  7].d[ 33] =         0.029439132032;
  BAS[ATNO][  7].a[ 34] =         1.103310000000;     BAS[ATNO][  7].d[ 34] =         0.042535059959;
  BAS[ATNO][  7].a[ 35] =       162.893000000000;     BAS[ATNO][  7].d[ 35] =         0.000006655047;
  BAS[ATNO][  7].a[ 36] =        30.399600000000;     BAS[ATNO][  7].d[ 36] =        -0.000035565148;
  BAS[ATNO][  7].a[ 37] =        19.000400000000;     BAS[ATNO][  7].d[ 37] =         0.000980939742;
  BAS[ATNO][  7].a[ 38] =         9.322560000000;     BAS[ATNO][  7].d[ 38] =        -0.005390588755;
  BAS[ATNO][  7].a[ 39] =         3.016680000000;     BAS[ATNO][  7].d[ 39] =         0.009570388159;
  BAS[ATNO][  7].a[ 40] =         1.862190000000;     BAS[ATNO][  7].d[ 40] =         0.008460283242;
  BAS[ATNO][  7].a[ 41] =         1.103310000000;     BAS[ATNO][  7].d[ 41] =         0.012223820137;
  BAS[ATNO][  7].a[ 42] =         0.587279000000;     BAS[ATNO][  7].d[ 42] =         1.424883122026;
  BAS[ATNO][  7].a[ 43] =         0.587279000000;     BAS[ATNO][  7].d[ 43] =        -0.073630105744;

  // Basis function   9 L = p
  InitBFNGauss(BAS[ATNO][  8]);
  BAS[ATNO][  8].l  = 1;
  BAS[ATNO][  8].ng = 44;
  BAS[ATNO][  8].a[  0] =       162.893000000000;     BAS[ATNO][  8].d[  0] =         0.000010032982;
  BAS[ATNO][  8].a[  1] =        30.399600000000;     BAS[ATNO][  8].d[  1] =        -0.000128368654;
  BAS[ATNO][  8].a[  2] =        19.000400000000;     BAS[ATNO][  8].d[  2] =         0.001464306964;
  BAS[ATNO][  8].a[  3] =         9.322560000000;     BAS[ATNO][  8].d[  3] =        -0.006830025748;
  BAS[ATNO][  8].a[  4] =         3.016680000000;     BAS[ATNO][  8].d[  4] =         0.009240429496;
  BAS[ATNO][  8].a[  5] =         1.862190000000;     BAS[ATNO][  8].d[  5] =         0.010831152026;
  BAS[ATNO][  8].a[  6] =         1.103310000000;     BAS[ATNO][  8].d[  6] =         0.008719918413;
  BAS[ATNO][  8].a[  7] =       162.893000000000;     BAS[ATNO][  8].d[  7] =         0.000194157113;
  BAS[ATNO][  8].a[  8] =        30.399600000000;     BAS[ATNO][  8].d[  8] =        -0.002484175508;
  BAS[ATNO][  8].a[  9] =        19.000400000000;     BAS[ATNO][  8].d[  9] =         0.028337100832;
  BAS[ATNO][  8].a[ 10] =         9.322560000000;     BAS[ATNO][  8].d[ 10] =        -0.132173876800;
  BAS[ATNO][  8].a[ 11] =         3.016680000000;     BAS[ATNO][  8].d[ 11] =         0.178819734323;
  BAS[ATNO][  8].a[ 12] =         1.862190000000;     BAS[ATNO][  8].d[ 12] =         0.209603214729;
  BAS[ATNO][  8].a[ 13] =         1.103310000000;     BAS[ATNO][  8].d[ 13] =         0.168746863403;
  BAS[ATNO][  8].a[ 14] =       162.893000000000;     BAS[ATNO][  8].d[ 14] =         0.000000000825;
[...]
  BAS[ATNO][  9].a[ 43] =         0.587279000000;     BAS[ATNO][  9].d[ 43] =        -0.017257383961;

  // Basis function  11 L = p
  InitBFNGauss(BAS[ATNO][ 10]);
  BAS[ATNO][ 10].l  = 1;
  BAS[ATNO][ 10].ng = 44;
  BAS[ATNO][ 10].a[  0] =       162.893000000000;     BAS[ATNO][ 10].d[  0] =         0.000125054978;
  BAS[ATNO][ 10].a[  1] =        30.399600000000;     BAS[ATNO][ 10].d[  1] =        -0.001600036739;
  BAS[ATNO][ 10].a[  2] =        19.000400000000;     BAS[ATNO][ 10].d[  2] =         0.018251690452;
  BAS[ATNO][ 10].a[  3] =         9.322560000000;     BAS[ATNO][ 10].d[  3] =        -0.085132092357;
  BAS[ATNO][ 10].a[  4] =         3.016680000000;     BAS[ATNO][ 10].d[  4] =         0.115176300388;
  BAS[ATNO][ 10].a[  5] =         1.862190000000;     BAS[ATNO][ 10].d[  5] =         0.135003683532;
  BAS[ATNO][ 10].a[  6] =         1.103310000000;     BAS[ATNO][ 10].d[  6] =         0.108688448187;
  BAS[ATNO][ 10].a[  7] =       162.893000000000;     BAS[ATNO][ 10].d[  7] =        -0.000006462152;
  BAS[ATNO][ 10].a[  8] =        30.399600000000;     BAS[ATNO][ 10].d[  8] =         0.000082681079;
  BAS[ATNO][ 10].a[  9] =        19.000400000000;     BAS[ATNO][ 10].d[  9] =        -0.000943146759;
  BAS[ATNO][ 10].a[ 10] =         9.322560000000;     BAS[ATNO][ 10].d[ 10] =         0.004399157282;
  BAS[ATNO][ 10].a[ 11] =         3.016680000000;     BAS[ATNO][ 10].d[ 11] =        -0.005951676349;
  BAS[ATNO][ 10].a[ 12] =         1.862190000000;     BAS[ATNO][ 10].d[ 12] =        -0.006976246220;
  BAS[ATNO][ 10].a[ 13] =         1.103310000000;     BAS[ATNO][ 10].d[ 13] =        -0.005616419908;
  BAS[ATNO][ 10].a[ 14] =       162.893000000000;     BAS[ATNO][ 10].d[ 14] =        -0.000001857108;
  BAS[ATNO][ 10].a[ 15] =        30.399600000000;     BAS[ATNO][ 10].d[ 15] =         0.000023761072;
  BAS[ATNO][ 10].a[ 16] =        19.000400000000;     BAS[ATNO][ 10].d[ 16] =        -0.000271043613;
  BAS[ATNO][ 10].a[ 17] =         9.322560000000;     BAS[ATNO][ 10].d[ 17] =         0.001264239604;
  BAS[ATNO][ 10].a[ 18] =         3.016680000000;     BAS[ATNO][ 10].d[ 18] =        -0.001710405987;
  BAS[ATNO][ 10].a[ 19] =         1.862190000000;     BAS[ATNO][ 10].d[ 19] =        -0.002004849155;
  BAS[ATNO][ 10].a[ 20] =         1.103310000000;     BAS[ATNO][ 10].d[ 20] =        -0.001614059245;
  BAS[ATNO][ 10].a[ 21] =       162.893000000000;     BAS[ATNO][ 10].d[ 21] =        -0.000159269290;
  BAS[ATNO][ 10].a[ 22] =        30.399600000000;     BAS[ATNO][ 10].d[ 22] =         0.000851148919;
  BAS[ATNO][ 10].a[ 23] =        19.000400000000;     BAS[ATNO][ 10].d[ 23] =        -0.023475954607;
  BAS[ATNO][ 10].a[ 24] =         9.322560000000;     BAS[ATNO][ 10].d[ 24] =         0.129008145521;
  BAS[ATNO][ 10].a[ 25] =         3.016680000000;     BAS[ATNO][ 10].d[ 25] =        -0.229039551029;
  BAS[ATNO][ 10].a[ 26] =         1.862190000000;     BAS[ATNO][ 10].d[ 26] =        -0.202472401646;
  BAS[ATNO][ 10].a[ 27] =         1.103310000000;     BAS[ATNO][ 10].d[ 27] =        -0.292541768377;
  BAS[ATNO][ 10].a[ 28] =       162.893000000000;     BAS[ATNO][ 10].d[ 28] =         0.000008230159;
  BAS[ATNO][ 10].a[ 29] =        30.399600000000;     BAS[ATNO][ 10].d[ 29] =        -0.000043982685;
  BAS[ATNO][ 10].a[ 30] =        19.000400000000;     BAS[ATNO][ 10].d[ 30] =         0.001213107934;
  BAS[ATNO][ 10].a[ 31] =         9.322560000000;     BAS[ATNO][ 10].d[ 31] =        -0.006666429863;
  BAS[ATNO][ 10].a[ 32] =         3.016680000000;     BAS[ATNO][ 10].d[ 32] =         0.011835501523;
  BAS[ATNO][ 10].a[ 33] =         1.862190000000;     BAS[ATNO][ 10].d[ 33] =         0.010462657682;
  BAS[ATNO][ 10].a[ 34] =         1.103310000000;     BAS[ATNO][ 10].d[ 34] =         0.015116946089;
  BAS[ATNO][ 10].a[ 35] =       162.893000000000;     BAS[ATNO][ 10].d[ 35] =         0.000002365201;
  BAS[ATNO][ 10].a[ 36] =        30.399600000000;     BAS[ATNO][ 10].d[ 36] =        -0.000012639842;
  BAS[ATNO][ 10].a[ 37] =        19.000400000000;     BAS[ATNO][ 10].d[ 37] =         0.000348625656;
  BAS[ATNO][ 10].a[ 38] =         9.322560000000;     BAS[ATNO][ 10].d[ 38] =        -0.001915813442;
  BAS[ATNO][ 10].a[ 39] =         3.016680000000;     BAS[ATNO][ 10].d[ 39] =         0.003401312752;
  BAS[ATNO][ 10].a[ 40] =         1.862190000000;     BAS[ATNO][ 10].d[ 40] =         0.003006781836;
  BAS[ATNO][ 10].a[ 41] =         1.103310000000;     BAS[ATNO][ 10].d[ 41] =         0.004344341590;
  BAS[ATNO][ 10].a[ 42] =         0.587279000000;     BAS[ATNO][ 10].d[ 42] =         0.528790714614;
  BAS[ATNO][ 10].a[ 43] =         0.587279000000;     BAS[ATNO][ 10].d[ 43] =        -0.027324989418;

  // Basis function  12 L = p
  InitBFNGauss(BAS[ATNO][ 11]);
  BAS[ATNO][ 11].l  = 1;
  BAS[ATNO][ 11].ng = 44;
  BAS[ATNO][ 11].a[  0] =       162.893000000000;     BAS[ATNO][ 11].d[  0] =         0.000581566331;
  BAS[ATNO][ 11].a[  1] =        30.399600000000;     BAS[ATNO][ 11].d[  1] =        -0.007440947257;
  BAS[ATNO][ 11].a[  2] =        19.000400000000;     BAS[ATNO][ 11].d[  2] =         0.084879217283;
  BAS[ATNO][ 11].a[  3] =         9.322560000000;     BAS[ATNO][ 11].d[  3] =        -0.395905540038;
  BAS[ATNO][ 11].a[  4] =         3.016680000000;     BAS[ATNO][ 11].d[  4] =         0.535625686411;
  BAS[ATNO][ 11].a[  5] =         1.862190000000;     BAS[ATNO][ 11].d[  5] =         0.627832639324;
  BAS[ATNO][ 11].a[  6] =         1.103310000000;     BAS[ATNO][ 11].d[  6] =         0.505454025432;
  BAS[ATNO][ 11].a[  7] =       162.893000000000;     BAS[ATNO][ 11].d[  7] =        -0.000030052142;
  BAS[ATNO][ 11].a[  8] =        30.399600000000;     BAS[ATNO][ 11].d[  8] =         0.000384507139;
  BAS[ATNO][ 11].a[  9] =        19.000400000000;     BAS[ATNO][ 11].d[  9] =        -0.004386090092;
  BAS[ATNO][ 11].a[ 10] =         9.322560000000;     BAS[ATNO][ 11].d[ 10] =         0.020458216063;
  BAS[ATNO][ 11].a[ 11] =         3.016680000000;     BAS[ATNO][ 11].d[ 11] =        -0.027678183085;
  BAS[ATNO][ 11].a[ 12] =         1.862190000000;     BAS[ATNO][ 11].d[ 12] =        -0.032442930163;
  BAS[ATNO][ 11].a[ 13] =         1.103310000000;     BAS[ATNO][ 11].d[ 13] =        -0.026119077953;
  BAS[ATNO][ 11].a[ 14] =       162.893000000000;     BAS[ATNO][ 11].d[ 14] =        -0.000008636452;
  BAS[ATNO][ 11].a[ 15] =        30.399600000000;     BAS[ATNO][ 11].d[ 15] =         0.000110500517;
  BAS[ATNO][ 11].a[ 16] =        19.000400000000;     BAS[ATNO][ 11].d[ 16] =        -0.001260484326;
  BAS[ATNO][ 11].a[ 17] =         9.322560000000;     BAS[ATNO][ 11].d[ 17] =         0.005879327636;
  BAS[ATNO][ 11].a[ 18] =         3.016680000000;     BAS[ATNO][ 11].d[ 18] =        -0.007954217818;
  BAS[ATNO][ 11].a[ 19] =         1.862190000000;     BAS[ATNO][ 11].d[ 19] =        -0.009323521431;
  BAS[ATNO][ 11].a[ 20] =         1.103310000000;     BAS[ATNO][ 11].d[ 20] =        -0.007506158717;
  BAS[ATNO][ 11].a[ 21] =       162.893000000000;     BAS[ATNO][ 11].d[ 21] =        -0.000643933948;
  BAS[ATNO][ 11].a[ 22] =        30.399600000000;     BAS[ATNO][ 11].d[ 22] =         0.003441238956;
  BAS[ATNO][ 11].a[ 23] =        19.000400000000;     BAS[ATNO][ 11].d[ 23] =        -0.094914494595;
  BAS[ATNO][ 11].a[ 24] =         9.322560000000;     BAS[ATNO][ 11].d[ 24] =         0.521586582356;
  BAS[ATNO][ 11].a[ 25] =         3.016680000000;     BAS[ATNO][ 11].d[ 25] =        -0.926018711168;
  BAS[ATNO][ 11].a[ 26] =         1.862190000000;     BAS[ATNO][ 11].d[ 26] =        -0.818606356749;
  BAS[ATNO][ 11].a[ 27] =         1.103310000000;     BAS[ATNO][ 11].d[ 27] =        -1.182761449270;
  BAS[ATNO][ 11].a[ 28] =       162.893000000000;     BAS[ATNO][ 11].d[ 28] =         0.000033274957;
  BAS[ATNO][ 11].a[ 29] =        30.399600000000;     BAS[ATNO][ 11].d[ 29] =        -0.000177824261;
  BAS[ATNO][ 11].a[ 30] =        19.000400000000;     BAS[ATNO][ 11].d[ 30] =         0.004904657909;
  BAS[ATNO][ 11].a[ 31] =         9.322560000000;     BAS[ATNO][ 11].d[ 31] =        -0.026952719572;
  BAS[ATNO][ 11].a[ 32] =         3.016680000000;     BAS[ATNO][ 11].d[ 32] =         0.047851542744;
  BAS[ATNO][ 11].a[ 33] =         1.862190000000;     BAS[ATNO][ 11].d[ 33] =         0.042301064329;
  BAS[ATNO][ 11].a[ 34] =         1.103310000000;     BAS[ATNO][ 11].d[ 34] =         0.061118592274;
  BAS[ATNO][ 11].a[ 35] =       162.893000000000;     BAS[ATNO][ 11].d[ 35] =         0.000009562631;
  BAS[ATNO][ 11].a[ 36] =        30.399600000000;     BAS[ATNO][ 11].d[ 36] =        -0.000051103532;
  BAS[ATNO][ 11].a[ 37] =        19.000400000000;     BAS[ATNO][ 11].d[ 37] =         0.001409511499;
  BAS[ATNO][ 11].a[ 38] =         9.322560000000;     BAS[ATNO][ 11].d[ 38] =        -0.007745732500;
  BAS[ATNO][ 11].a[ 39] =         3.016680000000;     BAS[ATNO][ 11].d[ 39] =         0.013751682787;
  BAS[ATNO][ 11].a[ 40] =         1.862190000000;     BAS[ATNO][ 11].d[ 40] =         0.012156573954;
  BAS[ATNO][ 11].a[ 41] =         1.103310000000;     BAS[ATNO][ 11].d[ 41] =         0.017564396990;
  BAS[ATNO][ 11].a[ 42] =         0.587279000000;     BAS[ATNO][ 11].d[ 42] =         3.471849441916;
  BAS[ATNO][ 11].a[ 43] =         0.587279000000;     BAS[ATNO][ 11].d[ 43] =        -0.179406042202;

  // Basis function  13 L = p
  InitBFNGauss(BAS[ATNO][ 12]);
  BAS[ATNO][ 12].l  = 1;
  BAS[ATNO][ 12].ng = 44;
  BAS[ATNO][ 12].a[  0] =       162.893000000000;     BAS[ATNO][ 12].d[  0] =        -0.011557357227;
  BAS[ATNO][ 12].a[  1] =        30.399600000000;     BAS[ATNO][ 12].d[  1] =         0.147872531353;
  BAS[ATNO][ 12].a[  2] =        19.000400000000;     BAS[ATNO][ 12].d[  2] =        -1.686788561319;
  BAS[ATNO][ 12].a[  3] =         9.322560000000;     BAS[ATNO][ 12].d[  3] =         7.867755590511;
  BAS[ATNO][ 12].a[  4] =         3.016680000000;     BAS[ATNO][ 12].d[  4] =       -10.644387517990;
  BAS[ATNO][ 12].a[  5] =         1.862190000000;     BAS[ATNO][ 12].d[  5] =       -12.476798777500;
  BAS[ATNO][ 12].a[  6] =         1.103310000000;     BAS[ATNO][ 12].d[  6] =       -10.044791830800;
  BAS[ATNO][ 12].a[  7] =       162.893000000000;     BAS[ATNO][ 12].d[  7] =         0.000597220646;
  BAS[ATNO][ 12].a[  8] =        30.399600000000;     BAS[ATNO][ 12].d[  8] =        -0.007641238992;
  BAS[ATNO][ 12].a[  9] =        19.000400000000;     BAS[ATNO][ 12].d[  9] =         0.087163954035;
  BAS[ATNO][ 12].a[ 10] =         9.322560000000;     BAS[ATNO][ 12].d[ 10] =        -0.406562329375;
  BAS[ATNO][ 12].a[ 11] =         3.016680000000;     BAS[ATNO][ 12].d[ 11] =         0.550043393481;
  BAS[ATNO][ 12].a[ 12] =         1.862190000000;     BAS[ATNO][ 12].d[ 12] =         0.644732327506;
  BAS[ATNO][ 12].a[ 13] =         1.103310000000;     BAS[ATNO][ 12].d[ 13] =         0.519059586668;
  BAS[ATNO][ 12].a[ 14] =       162.893000000000;     BAS[ATNO][ 12].d[ 14] =         0.000171630548;
  BAS[ATNO][ 12].a[ 15] =        30.399600000000;     BAS[ATNO][ 12].d[ 15] =        -0.002195955620;
  BAS[ATNO][ 12].a[ 16] =        19.000400000000;     BAS[ATNO][ 12].d[ 16] =         0.025049363713;
  BAS[ATNO][ 12].a[ 17] =         9.322560000000;     BAS[ATNO][ 12].d[ 17] =        -0.116838752591;
  BAS[ATNO][ 12].a[ 18] =         3.016680000000;     BAS[ATNO][ 12].d[ 18] =         0.158072647961;
  BAS[ATNO][ 12].a[ 19] =         1.862190000000;     BAS[ATNO][ 12].d[ 19] =         0.185284556533;
  BAS[ATNO][ 12].a[ 20] =         1.103310000000;     BAS[ATNO][ 12].d[ 20] =         0.149168455228;
  BAS[ATNO][ 12].a[ 21] =       162.893000000000;     BAS[ATNO][ 12].d[ 21] =         0.007474892559;
  BAS[ATNO][ 12].a[ 22] =        30.399600000000;     BAS[ATNO][ 12].d[ 22] =        -0.039946475166;
  BAS[ATNO][ 12].a[ 23] =        19.000400000000;     BAS[ATNO][ 12].d[ 23] =         1.101783267571;
  BAS[ATNO][ 12].a[ 24] =         9.322560000000;     BAS[ATNO][ 12].d[ 24] =        -6.054663952874;
  BAS[ATNO][ 12].a[ 25] =         3.016680000000;     BAS[ATNO][ 12].d[ 25] =        10.749379489158;
  BAS[ATNO][ 12].a[ 26] =         1.862190000000;     BAS[ATNO][ 12].d[ 26] =         9.502518982401;
  BAS[ATNO][ 12].a[ 27] =         1.103310000000;     BAS[ATNO][ 12].d[ 27] =        13.729691970600;
  BAS[ATNO][ 12].a[ 28] =       162.893000000000;     BAS[ATNO][ 12].d[ 28] =        -0.000386261329;
  BAS[ATNO][ 12].a[ 29] =        30.399600000000;     BAS[ATNO][ 12].d[ 29] =         0.002064214096;
  BAS[ATNO][ 12].a[ 30] =        19.000400000000;     BAS[ATNO][ 12].d[ 30] =        -0.056934098496;
  BAS[ATNO][ 12].a[ 31] =         9.322560000000;     BAS[ATNO][ 12].d[ 31] =         0.312871727133;
  BAS[ATNO][ 12].a[ 32] =         3.016680000000;     BAS[ATNO][ 12].d[ 32] =        -0.555468801004;
  BAS[ATNO][ 12].a[ 33] =         1.862190000000;     BAS[ATNO][ 12].d[ 33] =        -0.491037908839;
  BAS[ATNO][ 12].a[ 34] =         1.103310000000;     BAS[ATNO][ 12].d[ 34] =        -0.709474955717;
  BAS[ATNO][ 12].a[ 35] =       162.893000000000;     BAS[ATNO][ 12].d[ 35] =        -0.000111004608;
  BAS[ATNO][ 12].a[ 36] =        30.399600000000;     BAS[ATNO][ 12].d[ 36] =         0.000593218266;
  BAS[ATNO][ 12].a[ 37] =        19.000400000000;     BAS[ATNO][ 12].d[ 37] =        -0.016361843111;
  BAS[ATNO][ 12].a[ 38] =         9.322560000000;     BAS[ATNO][ 12].d[ 38] =         0.089913746745;
  BAS[ATNO][ 12].a[ 39] =         3.016680000000;     BAS[ATNO][ 12].d[ 39] =        -0.159631813189;
  BAS[ATNO][ 12].a[ 40] =         1.862190000000;     BAS[ATNO][ 12].d[ 40] =        -0.141115525464;
  BAS[ATNO][ 12].a[ 41] =         1.103310000000;     BAS[ATNO][ 12].d[ 41] =        -0.203890431630;
  BAS[ATNO][ 12].a[ 42] =         0.587279000000;     BAS[ATNO][ 12].d[ 42] =        -2.000681118274;
  BAS[ATNO][ 12].a[ 43] =         0.587279000000;     BAS[ATNO][ 12].d[ 43] =         0.103384194698;

-------------------------------------------
RADIAL EXPECTATION VALUES <R**-3> TO <R**3>
-------------------------------------------
   0 :     0.000000     2.211214     1.416508     0.766410     0.636616     0.584179
   1 :     3.254542     1.979304     1.342000     0.813441     0.722686     0.733125
   2 :     3.254542     1.979304     1.342000     0.813441     0.722686     0.733125
   3 :     3.256368     1.980054     1.342268     0.813256     0.722384     0.733177
   4 :     0.000000     0.741233     0.753572     1.548582     2.645030     4.900415
   5 :     0.755558     0.596137     0.678521     1.713771     3.239741     6.711692
   6 :     0.755558     0.596137     0.678521     1.713771     3.239741     6.711692
   7 :     0.000000     0.191803     0.355935     3.368640    12.586119    51.033015
   8 :     0.000000     0.045701     0.163765     7.214044    56.210006   462.133504
   9 :     0.000000     0.110100     0.247913     5.554259    38.049447   302.420085
  10 :     0.000000     0.495816     0.524039     3.075195    13.717700    82.872030
  11 :     0.761635     0.599719     0.680686     1.707842     3.216396     6.640845
  12 :     0.127198     0.137323     0.303614     3.936956    17.290108    83.172508
  13 :     0.131597     0.140623     0.306878     3.896479    16.912477    80.252353
  14 :     0.131597     0.140623     0.306878     3.896479    16.912477    80.252353
  15 :     0.012182     0.021268     0.119423     9.411954    94.135434   986.685902
  16 :     0.012182     0.021268     0.119423     9.411954    94.135434   986.685902
  17 :     0.012733     0.021673     0.119695     9.427116    94.504608   992.717341
  18 :     0.059670     0.071458     0.204960     6.491257    51.497742   478.844689
  19 :     0.059670     0.071458     0.204960     6.491257    51.497742   478.844689
  20 :     0.061618     0.073315     0.207510     6.434490    50.749078   470.090605
  21 :     0.427065     0.317512     0.424539     3.593324    18.285684   127.142831
  22 :     0.427065     0.317512     0.424539     3.593324    18.285684   127.142831
  23 :     0.421755     0.314405     0.422592     3.600559    18.311252   127.016863
  24 :    41.457380     9.792514     2.841222     0.470110     0.399870     0.978541
  25 :    41.457380     9.792514     2.841222     0.470110     0.399870     0.978541
  26 :    41.456687     9.792327     2.841178     0.470117     0.399809     0.977795
  27 :     0.000000    20.700273     3.757955     0.393225     0.383822     1.423548
Making the total density                ... o.k.
o.k.
Initializing the integrals              ... done
Making exponents                        ... done
Making rho(0)                           ... done (         0.214218619)
Integral calculation                    ... Two index integrals                     ... done
Solving the equation system             ... done
atomic density will be written to file 51_Sb_atom51.adf

-------
TIMINGS
-------

Total SCF time: 0 days 0 hours 0 min 0 sec 

Total time                  ....       0.601 sec
Sum of individual times     ....       0.270 sec  ( 44.8%)

Fock matrix formation       ....       0.194 sec  ( 32.3%)
Diagonalization             ....       0.072 sec  ( 11.9%)
Density matrix formation    ....       0.000 sec  (  0.1%)
Population analysis         ....       0.000 sec  (  0.0%)
Initial guess               ....       0.000 sec  (  0.0%)
Orbital Transformation      ....       0.000 sec  (  0.0%)
Orbital Orthonormalization  ....       0.000 sec  (  0.0%)
DIIS solution               ....       0.003 sec  (  0.5%)

-------------------------   --------------------
FINAL SINGLE POINT ENERGY      -211.840689922665
-------------------------   --------------------


                            ***************************************
                            *     ORCA property calculations      *
                            ***************************************

                                    ---------------------
                                    Active property flags
                                    ---------------------
   (+) Dipole Moment


------------------------------------------------------------------------------
                       ORCA ELECTRIC PROPERTIES CALCULATION
------------------------------------------------------------------------------

Dipole Moment Calculation                       ... on
Quadrupole Moment Calculation                   ... off
Polarizability Calculation                      ... off
GBWName                                         ... 51_Sb_atom51.gbw
Electron density file                           ... 51_Sb_atom51.scfp
The origin for moment calculation is the CENTER OF MASS  = ( 0.000000,  0.000000  0.000000)

-------------
DIPOLE MOMENT
-------------
                                X             Y             Z
Electronic contribution:     -0.00000      -0.00000      -0.00000
Nuclear contribution   :      0.00000       0.00000       0.00000
                        -----------------------------------------
Total Dipole Moment    :     -0.00000      -0.00000      -0.00000
                        -----------------------------------------
Magnitude (a.u.)       :      0.00000
Magnitude (Debye)      :      0.00000



--------------------
Rotational spectrum 
--------------------
 
Rotational constants in cm-1:     0.000000     0.000000     0.000000 
Rotational constants in MHz :     0.000000     0.000000     0.000000 

 Dipole components along the rotational axes: 
x,y,z [a.u.] :    -0.000000    -0.000000    -0.000000 
x,y,z [Debye]:    -0.000000    -0.000000    -0.000000 

 

Timings for individual modules:

Sum of individual times         ...        0.902 sec (=   0.015 min)
GTO integral calculation        ...        0.283 sec (=   0.005 min)  31.4 %
SCF iterations                  ...        0.619 sec (=   0.010 min)  68.6 %
                             ****ORCA TERMINATED NORMALLY****
TOTAL RUN TIME: 0 days 0 hours 0 minutes 1 seconds 52 msec
