
                                 *****************
                                 * O   R   C   A *
                                 *****************

           --- An Ab Initio, DFT and Semiempirical electronic structure package ---

                  #######################################################
                  #                        -***-                        #
                  #          Department of theory and spectroscopy      #
                  #               Directorship: Frank Neese             #
                  #        Max Planck Institute fuer Kohlenforschung    #
                  #                Kaiser Wilhelm Platz 1               #
                  #                 D-45470 Muelheim/Ruhr               #
                  #                      Germany                        #
                  #                                                     #
                  #                  All rights reserved                #
                  #                        -***-                        #
                  #######################################################


                         Program Version 4.2.0 -  RELEASE  -


 With contributions from (in alphabetic order):
   Daniel Aravena         : Magnetic Suceptibility
   Michael Atanasov       : Ab Initio Ligand Field Theory (pilot matlab implementation)
   Alexander A. Auer      : GIAO ZORA, VPT2
   Ute Becker             : Parallelization
   Giovanni Bistoni       : ED, misc. LED, open-shell LED, HFLED
   Martin Brehm           : Molecular dynamics
   Dmytro Bykov           : SCF Hessian
   Vijay G. Chilkuri      : MRCI spin determinant printing, contributions to CSF-ICE
   Dipayan Datta          : RHF DLPNO-CCSD density
   Achintya Kumar Dutta   : EOM-CC, STEOM-CC
   Dmitry Ganyushin       : Spin-Orbit,Spin-Spin,Magnetic field MRCI
   Miquel Garcia          : C-PCM Hessian, Gaussian charge scheme
   Yang Guo               : DLPNO-NEVPT2, CIM, IAO-localization
   Andreas Hansen         : Spin unrestricted coupled pair/coupled cluster methods
   Benjamin Helmich-Paris : CASSCF linear response (MC-RPA)
   Lee Huntington         : MR-EOM, pCC
   Robert Izsak           : Overlap fitted RIJCOSX, COSX-SCS-MP3, EOM
   Christian Kollmar      : KDIIS, OOCD, Brueckner-CCSD(T), CCSD density
   Simone Kossmann        : Meta GGA functionals, TD-DFT gradient, OOMP2, MP2 Hessian
   Martin Krupicka        : AUTO-CI
   Lucas Lang             : DCDCAS
   Dagmar Lenk            : GEPOL surface, SMD
   Dimitrios Liakos       : Extrapolation schemes; Compound Job, initial MDCI parallelization
   Dimitrios Manganas     : Further ROCIS development; embedding schemes
   Dimitrios Pantazis     : SARC Basis sets
   Taras Petrenko         : DFT Hessian,TD-DFT gradient, ASA, ECA, R-Raman, ABS, FL, XAS/XES, NRVS
   Peter Pinski           : DLPNO-MP2, DLPNO-MP2 Gradient
   Christoph Reimann      : Effective Core Potentials
   Marius Retegan         : Local ZFS, SOC
   Christoph Riplinger    : Optimizer, TS searches, QM/MM, DLPNO-CCSD(T), (RO)-DLPNO pert. Triples
   Tobias Risthaus        : Range-separated hybrids, TD-DFT gradient, RPA, STAB
   Michael Roemelt        : Original ROCIS implementation
   Masaaki Saitow         : Open-shell DLPNO-CCSD energy and density
   Barbara Sandhoefer     : DKH picture change effects
   Avijit Sen             : IP-ROCIS
   Kantharuban Sivalingam : CASSCF convergence, NEVPT2, FIC-MRCI
   Bernardo de Souza      : ESD, SOC TD-DFT
   Georgi Stoychev        : AutoAux, RI-MP2 NMR
   Willem Van den Heuvel  : Paramagnetic NMR
   Boris Wezisla          : Elementary symmetry handling
   Frank Wennmohs         : Technical directorship


 We gratefully acknowledge several colleagues who have allowed us to
 interface, adapt or use parts of their codes:
   Stefan Grimme, W. Hujo, H. Kruse,             : VdW corrections, initial TS optimization,
                  C. Bannwarth                     DFT functionals, gCP, sTDA/sTD-DF
   Ed Valeev, F. Pavosevic, A. Kumar             : LibInt (2-el integral package), F12 methods
   Garnet Chan, S. Sharma, J. Yang, R. Olivares  : DMRG
   Ulf Ekstrom                                   : XCFun DFT Library
   Mihaly Kallay                                 : mrcc  (arbitrary order and MRCC methods)
   Andreas Klamt, Michael Diedenhofen            : otool_cosmo (COSMO solvation model)
   Jiri Pittner, Ondrej Demel                    : Mk-CCSD
   Frank Weinhold                                : gennbo (NPA and NBO analysis)
   Christopher J. Cramer and Donald G. Truhlar   : smd solvation model
   Lars Goerigk                                  : TD-DFT with DH, B97 family of functionals
   V. Asgeirsson, H. Jonsson                     : NEB implementation
   FAccTs GmbH                                   : IRC, NEB, NEB-TS, Multilevel, MM, QM/MM, CI optimization
   S Lehtola, MJT Oliveira, MAL Marques          : LibXC Library


 Your calculation uses the libint2 library for the computation of 2-el integrals
 For citations please refer to: http://libint.valeyev.net

 Your ORCA version has been built with support for libXC version: 4.2.3
 For citations please refer to: https://tddft.org/programs/libxc/

 This ORCA versions uses:
   CBLAS   interface :  Fast vector & matrix operations
   LAPACKE interface :  Fast linear algebra routines
   SCALAPACK package :  Parallel linear algebra routines


----- Orbital basis set information -----
Your calculation utilizes the basis: def2-SVP
   F. Weigend and R. Ahlrichs, Phys. Chem. Chem. Phys. 7, 3297 (2005).

----- AuxJ basis set information -----
Your calculation utilizes the auxiliary basis: def2/J
   F. Weigend, Phys. Chem. Chem. Phys. 8, 1057 (2006).

================================================================================
                                        WARNINGS
                       Please study these warnings very carefully!
================================================================================


INFO   : the flag for use of LIBINT has been found!

================================================================================
                                       INPUT FILE
================================================================================
NAME = 52_Te_atom52.inp
|  1> # input to generate an atomic fitting density for Te
|  2> # this file is use internally by ORCA
|  3> #
|  4> # atomic ground state (S=3): 1s2 2s2 2p6 3s2 3p6 4s2 3d10 4p6 5s2 4d10 5p4 
|  5> #
|  6> ! RHF AllowRHF def2-SVP def2/J  NoMulliken NoLoewdin NoMayer NoPrintMOs 
|  7> 
|  8> %output print[p_atomdensfit] 2 end
|  9> 
| 10> %scf
| 11>   guess hcore
| 12>   maxiter 1000
| 13>   maxdisk 500000
| 14>   SCFMode Conventional
| 15>   lshift 1.000000
| 16>   hftyp rohf
| 17>   rohf_case sahf
| 18>   rohf_numop   2
| 19>   rohf_norb[1] 3
| 20>   rohf_nel[1]  4
| 21> end
| 22> 
| 23> %basis
| 24>   NewECP 52
| 25>     N_core 28
| 26>     lmax g
| 27>     s 2
| 28>       1      16.8144730000    281.0458430000  2
| 29>       2       8.7935260000     61.6206560000  2
| 30>     p 4
| 31>       1      14.8778010000     67.4494640000  2
| 32>       2      14.2697310000    134.9043040000  2
| 33>       3       8.7244350000     14.6895470000  2
| 34>       4       8.2915150000     29.4150630000  2
| 35>     d 4
| 36>       1      15.2050080000     35.4320570000  2
| 37>       2      15.2258480000     53.1356870000  2
| 38>       3       6.0717690000      9.0698020000  2
| 39>       4       5.8047600000     13.1223040000  2
| 40>     f 2
| 41>       1      15.2061680000    -15.7454500000  2
| 42>       2      15.2017020000    -20.7424480000  2
| 43>     g 1
| 44>       1       1.0000000000      0.0000000000  2
| 45>   end
| 46>   NewGTO 52
| 47>     s 10 
| 48>      1   15746.3000000000      0.0000586917
| 49>      2    2369.2500000000      0.0004325794
| 50>      3     535.8600000000      0.0018063996
| 51>      4     141.8850000000      0.0039519067
| 52>      5      27.8197000000     -0.0635033148
| 53>      6      17.3879000000      0.3983643682
| 54>      7      10.8656000000     -0.4321327370
| 55>      8       6.5688500000     -0.5642824971
| 56>      9       2.4013900000      0.7473972894
| 57>     10       1.2805500000      0.6923347082
| 58>     s 10 
| 59>      1   15746.3000000000      0.0000363535
| 60>      2    2369.2500000000      0.0002704704
| 61>      3     535.8600000000      0.0011415015
| 62>      4     141.8850000000      0.0024531375
| 63>      5      27.8197000000     -0.0337186445
| 64>      6      17.3879000000      0.2292280353
| 65>      7      10.8656000000     -0.2896650848
| 66>      8       6.5688500000     -0.2868004250
| 67>      9       2.4013900000      0.5373883521
| 68>     10       1.2805500000      0.7336277221
| 69>     s 1 
| 70>      1       0.5900670000      1.0000000000
| 71>     s 1 
| 72>      1       0.3524580000      1.0000000000
| 73>     s 1 
| 74>      1       0.1618080000      1.0000000000
| 75>     s 1 
| 76>      1       0.0731870000      1.0000000000
| 77>     s 1 
| 78>      1       0.0296000000      1.0000000000
| 79>     p 7 
| 80>      1     750.2220000000      0.0000598114
| 81>      2     163.9610000000      0.0004715901
| 82>      3      16.9227000000      0.0959133768
| 83>      4      10.5755000000     -0.3085027477
| 84>      5       5.7046200000     -0.0263768400
| 85>      6       2.9802200000      0.5699891117
| 86>      7       1.5197000000      0.5918133818
| 87>     p 7 
| 88>      1     750.2220000000     -0.0000432786
| 89>      2     163.9610000000     -0.0004111464
| 90>      3      16.9227000000     -0.0736574202
| 91>      4      10.5755000000      0.2516107828
| 92>      5       5.7046200000     -0.0188910955
| 93>      6       2.9802200000     -0.4778846682
| 94>      7       1.5197000000     -0.6326190784
| 95>     p 1 
| 96>      1       0.7560490000      1.0000000000
| 97>     p 1 
| 98>      1       0.3279680000      1.0000000000
| 99>     p 1 
|100>      1       0.1405850000      1.0000000000
|101>     p 1 
|102>      1       0.0580960000      1.0000000000
|103>     p 1 
|104>      1       0.0226000000      1.0000000000
|105>   end
|106>   NewAuxGTO 52
|107>     S 1
|108>      1 1310.72 1.0
|109>     S 1
|110>      1  655.36 1.0
|111>     S 1
|112>      1  327.68 1.0
|113>     S 1
|114>      1  163.84 1.0
|115>     S 1
|116>      1   81.82 1.0
|117>     S 1
|118>      1   40.96 1.0
|119>     S 1
|120>      1   20.48 1.0
|121>     S 1
|122>      1   10.24 1.0
|123>     S 1
|124>      1    5.12 1.0
|125>     S 1
|126>      1    2.56 1.0
|127>     S 1
|128>      1    1.28 1.0
|129>     S 1
|130>      1    0.64 1.0
|131>     S 1
|132>      1    0.32 1.0
|133>     S 1
|134>      1    0.16 1.0
|135>     S 1
|136>      1    0.08 1.0
|137>     S 1
|138>      1    0.04 1.0
|139>     S 1
|140>      1    0.02 1.0
|141>     S 1
|142>      1    0.01 1.0
|143>   end
|144> end
|145> 
|146> * xyz 0 3
|147> 52  0.0 0.0 0.0
|148> *
|149> 
|150> 
|151>                          ****END OF INPUT****
================================================================================

                       ****************************
                       * Single Point Calculation *
                       ****************************

---------------------------------
CARTESIAN COORDINATES (ANGSTROEM)
---------------------------------
  Te     0.000000    0.000000    0.000000

----------------------------
CARTESIAN COORDINATES (A.U.)
----------------------------
  NO LB      ZA    FRAG     MASS         X           Y           Z
   0 Te   24.0000*   0   127.600    0.000000    0.000000    0.000000
* core charge reduced due to ECP

--------------------------------
INTERNAL COORDINATES (ANGSTROEM)
--------------------------------
 Te     0   0   0     0.000000000000     0.00000000     0.00000000

---------------------------
INTERNAL COORDINATES (A.U.)
---------------------------
 Te     0   0   0     0.000000000000     0.00000000     0.00000000

---------------------
BASIS SET INFORMATION
---------------------
There are 1 groups of distinct atoms

 Group   1 Type Te  : 25s19p contracted to 7s7p pattern {101011111/7711111}

Atom   0Te   basis set group =>   1
---------------------------------
AUXILIARY/J BASIS SET INFORMATION
---------------------------------
There are 1 groups of distinct atoms

 Group   1 Type Te  : 18s contracted to 18s pattern {111111111111111111}

Atom   0Te   basis set group =>   1
-------------------------
ECP PARAMETER INFORMATION
-------------------------

 Group 1, Type Te ECP (replacing 28 core electrons, lmax=4)

Atom   0Te   ECP group =>   1

------------------------------------------------------------------------------
                           ORCA GTO INTEGRAL CALCULATION
------------------------------------------------------------------------------

                         BASIS SET STATISTICS AND STARTUP INFO

 # of primitive gaussian shells          ...   44
 # of primitive gaussian functions       ...   82
 # of contracted shells                  ...   14
 # of contracted basis functions         ...   28
 Highest angular momentum                ...    1
 Maximum contraction depth               ...   10
 Integral package used                   ... LIBINT
 Integral threshhold            Thresh   ...  1.000e-10
 Primitive cut-off              TCut     ...  1.000e-11
 Storage cut-off                TCutStore... -1.000e+00
 Buffer length                           ... 1048576 integrals/buffer
 Generate file with integrals 4 distinct ...false


------------------------------ INTEGRAL EVALUATION ----------------------------


 * One electron integrals 

   ECP integrals                         ... done
 Pre-screening matrix                    ... done
 Shell pair data                         ... done (   0.000 sec)
 Statistics run                          ... done
 Maximum amount of storage needed        ...     0 MB
 Maximum amount of storage dedicated     ... 500000 MB
 Beginning two electron integral evaluation:
 Starting repulsion integrals
  <ss|ss>  ...          406 b.         0 skpd (  0.0%)     0.001 s. (  0.003 ms/b)
  <ss|sp>  ...         1372 b.         0 skpd (  0.0%)     0.005 s. (  0.004 ms/b)
  <ss|pp>  ...          784 b.         0 skpd (  0.0%)     0.009 s. (  0.012 ms/b)
  <sp|sp>  ...         1225 b.         0 skpd (  0.0%)     0.011 s. (  0.009 ms/b)
  <sp|pp>  ...         1372 b.         0 skpd (  0.0%)     0.018 s. (  0.013 ms/b)
  <pp|pp>  ...          406 b.         0 skpd (  0.0%)     0.011 s. (  0.027 ms/b)


                                      INTEGRAL STATISTICS

Integral type statistics:
 Number of integrals retained            ...      82621 
 One   Center Integrals retained         ...      82621 (100.0%)
 Two   Center Integrals retained         ...          0 (  0.0%)
 Three Center Integrals retained         ...          0 (  0.0%)
 Four  Center Integrals retained         ...          0 (  0.0%)

Storage statistics:
 Number of char integrals                ...          0 (  0.0%)
 Number of short int integrals           ...          0 (  0.0%)
 Number of double/float integrals        ...      82621 (100.0%)
 Amount of memory used                   ...          1 MB
 Amount of memory estimated              ...          0 MB ( 96.2%)

Prescreening statistics:
 Total number of shell quadruples        ...       5565 
 Number of skipped shell quadruples      ...          0 (  0.0%)
 # of negligible batches done            ...          0 (  0.0%)

Timings:
 Total evaluation time               ...     0.270 sec (   0.004 min)
 One electron matrix time            ...     0.016 sec (   0.000 min) =  5.8%
 Schwartz matrix evaluation time     ...     0.092 sec (   0.002 min) = 34.3%
 Statistics run                      ...     0.001 sec (   0.000 min) =  0.3%
 Repulsion integral time             ...     0.056 sec (   0.001 min) = 20.7%

-------------------------------------------------------------------------------
                                 ORCA SCF
-------------------------------------------------------------------------------

------------
SCF SETTINGS
------------
Hamiltonian:
 Ab initio Hamiltonian  Method          .... Hartree-Fock(GTOs)


General Settings:
 Integral files         IntName         .... 52_Te_atom52
 Hartree-Fock type      HFTyp           .... ROHF
 Total Charge           Charge          ....    0
 Multiplicity           Mult            ....    3
 Number of Electrons    NEL             ....   24
 Basis Dimension        Dim             ....   28
 Nuclear Repulsion      ENuc            ....      0.0000000000 Eh

Convergence Acceleration:
 DIIS                   CNVDIIS         .... on
   Start iteration      DIISMaxIt       ....    12
   Startup error        DIISStart       ....  0.200000
   # of expansion vecs  DIISMaxEq       ....     5
   Bias factor          DIISBfac        ....   1.050
   Max. coefficient     DIISMaxC        ....  10.000
 Newton-Raphson         CNVNR           .... off
 SOSCF                  CNVSOSCF        .... off
 Level Shifting         CNVShift        .... on
   Level shift para.    LevelShift      ....    1.0000
   Turn off err/grad.   ShiftErr        ....    0.0010
 Zerner damping         CNVZerner       .... off
 Static damping         CNVDamp         .... on
   Fraction old density DampFac         ....    0.7000
   Max. Damping (<1)    DampMax         ....    0.9800
   Min. Damping (>=0)   DampMin         ....    0.0000
   Turn off err/grad.   DampErr         ....    0.1000
 Fernandez-Rico         CNVRico         .... off

SCF Procedure:
 Maximum # iterations   MaxIter         ....  1000
 SCF integral mode      SCFMode         .... Conventional
 Integral Threshold     Thresh          ....  1.000e-10 Eh
 Primitive CutOff       TCut            ....  1.000e-11 Eh
 Integral Buffer length BufferLength    .... 1048576
 Integral index format  IndFormat       ....     0
 Integral value format  ValFormat       ....     0
 Integral Storage       Thresh          ....  1.000e-10 Eh

Convergence Tolerance:
 Convergence Check Mode ConvCheckMode   .... Total+1el-Energy
 Convergence forced     ConvForced      .... 0
 Energy Change          TolE            ....  1.000e-06 Eh
 1-El. energy change                    ....  1.000e-03 Eh
 DIIS Error             TolErr          ....  1.000e-06


Diagonalization of the overlap matrix:
Smallest eigenvalue                        ... 7.469e-04
Time for diagonalization                   ...    0.001 sec
Threshold for overlap eigenvalues          ... 1.000e-08
Number of eigenvalues below threshold      ... 0
Time for construction of square roots      ...    0.000 sec
Total time needed                          ...    0.001 sec

--------------------
INITIAL GUESS: HCORE
--------------------
AVERAGE-CONFIGURATION (SAHF) CASE FOUND

-------------------
FINAL ROHF SETTINGS
-------------------
Number of operators             ... 2
  operator   0:  10 orbitals  20 electrons n(mue)= 2.000
  operator   1:   3 orbitals   4 electrons n(mue)= 1.333
Vector coupling coefficients a and b (Zerner convention):
   1.000    1.000           1.000    1.000 
   1.000    0.938           1.000    1.125 

                      -----------------
                      INTIAL GUESS DONE 
                      -----------------

 InCore treatment chosen:
   Memory dedicated               ...    1024 MB
   Memory needed                  ...      1 MB
   Number of tiny    integrals    ...       0
   Number of small   integrals    ...       0
   Number of regular integrals    ...   82621

--------------
SCF ITERATIONS
--------------
ITER       Energy         Delta-E        Max-DP      RMS-DP      [F,P]     Damp
  0   -225.4126143577   0.00000000000027.02192226  1.58990904  1.3301171 0.7000
  1   -228.7371325303  -3.32451817252434.81877450  1.80994822  0.6686086 0.7000
  2   -230.8347020338  -2.09756950353728.54862928  1.46321187  0.4143743 0.7000
  3   -232.0693172417  -1.23461520793220.76358625  1.06831581  0.2241657 0.7000
                            ****Activating DIIS****
  4   -232.8259571087  -0.75663986698113.99810162  0.74932473  0.1366035 0.7000
  5   -233.3786807453  -0.55272363656034.10744102  1.77116733  0.0866680 0.0000
  6   -234.4005524128  -1.021871667536 1.41648464  0.09405047  0.0483156 0.0000
  7   -234.4316929461  -0.031140533345 0.60561467  0.03457848  0.0353432 0.0000
  8   -234.4415585849  -0.009865638798 0.57773648  0.03262256  0.0307290 0.0000
  9   -234.4495671173  -0.008008532352 0.92889225  0.04526038  0.0249303 0.0000
 10   -234.4569337003  -0.007366582983 1.06382479  0.04787402  0.0171808 0.0000
 11   -234.4610465763  -0.004112876056 0.54287049  0.02355862  0.0093777 0.0000
 12   -234.4620548161  -0.001008239803 0.18451847  0.00831308  0.0052199 0.0000
 13   -234.4623132207  -0.000258404592 0.04271181  0.00308767  0.0032774 0.0000
 14   -234.4624048324  -0.000091611683 0.04418113  0.00321163  0.0023144 0.0000
 15   -234.4624697819  -0.000064949460 0.03251754  0.00266106  0.0012932 0.0000
 16   -234.4624960236  -0.000026241766 0.02754564  0.00154298  0.0008428 0.0000
 17   -234.4625032747  -0.000007251083 0.02901066  0.00133108  0.0006148 0.0000
 18   -234.4625068084  -0.000003533656 0.02547718  0.00116396  0.0003800 0.0000
 19   -234.4625084572  -0.000001648843 0.01663212  0.00077708  0.0001775 0.0000
                 **** Energy Check signals convergence ****

               *****************************************************
               *                     SUCCESS                       *
               *           SCF CONVERGED AFTER  20 CYCLES          *
               *****************************************************


----------------
TOTAL SCF ENERGY
----------------

Total Energy       :         -234.46250891 Eh           -6380.04922 eV

Components:
Nuclear Repulsion  :            0.00000000 Eh               0.00000 eV
Electronic Energy  :         -234.46250891 Eh           -6380.04922 eV
One Electron Energy:         -367.75432078 Eh          -10007.10382 eV
Two Electron Energy:          133.29181187 Eh            3627.05460 eV

Virial components:
Potential Energy   :         -302.35973714 Eh           -8227.62673 eV
Kinetic Energy     :           67.89722823 Eh            1847.57751 eV
Virial Ratio       :            4.45319706


---------------
SCF CONVERGENCE
---------------

  Last Energy change         ...   -4.4995e-07  Tolerance :   1.0000e-06
  Last MAX-Density change    ...    4.6054e-03  Tolerance :   1.0000e-05
  Last RMS-Density change    ...    2.2369e-04  Tolerance :   1.0000e-06
  Last DIIS Error            ...    4.8212e-05  Tolerance :   1.0000e-06

             **** THE GBW FILE WAS UPDATED (52_Te_atom52.gbw) ****
             **** DENSITY FILE WAS UPDATED (52_Te_atom52.scfp) ****
             **** ENERGY FILE WAS UPDATED (52_Te_atom52.en.tmp) ****
             **** THE GBW FILE WAS UPDATED (52_Te_atom52.gbw) ****
             **** DENSITY FILE WAS UPDATED (52_Te_atom52.scfp) ****
----------------
ORBITAL ENERGIES
----------------

  NO   OCC          E(Eh)            E(eV) 
   0   2.0000     -11.604469      -315.7737 
   1   2.0000      -9.263510      -252.0729 
   2   2.0000      -9.263510      -252.0729 
   3   2.0000      -9.257904      -251.9204 
   4   2.0000      -3.055419       -83.1422 
   5   2.0000      -2.192225       -59.6535 
   6   2.0000      -2.192225       -59.6535 
   7   2.0000      -2.182874       -59.3990 
   8   2.0000      -0.628191       -17.0939 
   9   2.0000      -0.370353       -10.0778 
  10   1.3333      -0.387556       -10.5459 
  11   1.3333      -0.387556       -10.5459 
  12   1.3333      -0.087113        -2.3705 
  13   0.0000       0.009650         0.2626 
  14   0.0000       0.009650         0.2626 
  15   0.0000       0.014370         0.3910 
  16   0.0000       0.252605         6.8737 
  17   0.0000       0.252605         6.8737 
  18   0.0000       0.263190         7.1618 
  19   0.0000       0.330375         8.9899 
  20   0.0000       1.360872        37.0312 
  21   0.0000       1.360872        37.0312 
  22   0.0000       1.376272        37.4503 
  23   0.0000       1.555853        42.3369 
  24   0.0000      35.656414       970.2604 
  25   0.0000      35.656414       970.2604 
  26   0.0000      35.659819       970.3530 
  27   0.0000      51.283443      1395.4934 
CleanUpVectors: The p-vectors have cracked symmetry
CleanUpVectors: The p-vectors have cracked symmetry
CleanUpVectors: The p-vectors have cracked symmetry
CleanUpVectors: The p-vectors have cracked symmetry
CleanUpVectors: The p-vectors have cracked symmetry
CleanUpVectors: The p-vectors have cracked symmetry
CleanUpVectors: The p-vectors have cracked symmetry
CleanUpVectors: The p-vectors have cracked symmetry
CleanUpVectors: The p-vectors have cracked symmetry
CleanUpVectors: The p-vectors have cracked symmetry
CleanUpVectors: The p-vectors have cracked symmetry
CleanUpVectors: The p-vectors have cracked symmetry
CleanUpVectors: The p-vectors have cracked symmetry
CleanUpVectors: The p-vectors have cracked symmetry
CleanUpVectors: The p-vectors have cracked symmetry
CleanUpVectors: The p-vectors have cracked symmetry
CleanUpVectors: The p-vectors have cracked symmetry
CleanUpVectors: The p-vectors have cracked symmetry
CleanUpVectors: The p-vectors have cracked symmetry
CleanUpVectors: The p-vectors have cracked symmetry
--------------------------
ATOM BASIS FOR ELEMENT Te
--------------------------
 NewGTO Te
 S 25
    1      15746.299999999999         0.000042692368
    2       2369.250000000000         0.000314658442
    3        535.860000000000         0.001313975848
    4        141.885000000000         0.002874618637
    5         27.819700000000        -0.046192338554
    6         17.387900000000         0.289770413116
    7         10.865600000000        -0.314333539134
    8          6.568850000000        -0.410459331585
    9          2.401390000000         0.543657110423
   10          1.280550000000         0.503604565127
   11      15746.299999999999         0.000018090508
   12       2369.250000000000         0.000134593558
   13        535.860000000000         0.000568042744
   14        141.885000000000         0.001220749125
   15         27.819700000000        -0.016779330862
   16         17.387900000000         0.114070215581
   17         10.865600000000        -0.144145364358
   18          6.568850000000        -0.142719830345
   19          2.401390000000         0.267419319344
   20          1.280550000000         0.365073461919
   21          0.590067000000        -0.570099740193
   22          0.352458000000         0.490303370895
   23          0.161808000000        -0.210029683109
   24          0.073187000000         0.082407667640
   25          0.029600000000        -0.019029360427
 P 44
    1        750.222000000000         0.000003829799
    2        163.961000000000         0.000030196505
    3         16.922700000000         0.006141453695
    4         10.575500000000        -0.019753817485
    5          5.704620000000        -0.001688942115
    6          2.980220000000         0.036497117011
    7          1.519700000000         0.037894552371
    8        750.222000000000        -0.000035918514
    9        163.961000000000        -0.000283203800
   10         16.922700000000        -0.057598818994
   11         10.575500000000         0.185265022636
   12          5.704620000000         0.015840072402
   13          2.980220000000        -0.342295316553
   14          1.519700000000        -0.355401436107
   15        750.222000000000        -0.000004230560
   16        163.961000000000        -0.000033356354
   17         16.922700000000        -0.006784112995
   18         10.575500000000         0.021820913512
   19          5.704620000000         0.001865677854
   20          2.980220000000        -0.040316279845
   21          1.519700000000        -0.041859946843
   22        750.222000000000         0.000002120286
   23        163.961000000000         0.000020142700
   24         16.922700000000         0.003608591325
   25         10.575500000000        -0.012326802725
   26          5.704620000000         0.000925504086
   27          2.980220000000         0.023412311526
   28          1.519700000000         0.030992990414
   29        750.222000000000        -0.000019885513
   30        163.961000000000        -0.000188912235
   31         16.922700000000        -0.033843876202
   32         10.575500000000         0.115609318939
   33          5.704620000000        -0.008680020230
   34          2.980220000000        -0.219576921177
   35          1.519700000000        -0.290673793817
   36        750.222000000000        -0.000002342159
   37        163.961000000000        -0.000022250490
   38         16.922700000000        -0.003986204654
   39         10.575500000000         0.013616714660
   40          5.704620000000        -0.001022351483
   41          2.980220000000        -0.025862242846
   42          1.519700000000        -0.034236185681
   43          0.756049000000        -0.015034945627
   44          0.756049000000         0.141008164322
 S 25
    1      15746.299999999999        -0.000050828746
    2       2369.250000000000        -0.000374626538
    3        535.860000000000        -0.001564395411
    4        141.885000000000        -0.003422467934
    5         27.819700000000         0.054995746384
    6         17.387900000000        -0.344995309785
    7         10.865600000000         0.374239714619
    8          6.568850000000         0.488685310317
    9          2.401390000000        -0.647268129311
   10          1.280550000000        -0.599582307548
   11      15746.299999999999         0.000097887796
   12       2369.250000000000         0.000728286173
   13        535.860000000000         0.003073681109
   14        141.885000000000         0.006605477428
   15         27.819700000000        -0.090793013087
   16         17.387900000000         0.617234302196
   17         10.865600000000        -0.779971028644
   18          6.568850000000        -0.772257459532
   19          2.401390000000         1.447006794271
   20          1.280550000000         1.975413672804
   21          0.590067000000        -2.449387683704
   22          0.352458000000         0.660067382352
   23          0.161808000000        -0.511979079152
   24          0.073187000000         0.193817956916
   25          0.029600000000        -0.045006848031
 P 44
    1        750.222000000000         0.000050846188
    2        163.961000000000         0.000400902819
    3         16.922700000000         0.081536790387
    4         10.575500000000        -0.262260851534
    5          5.704620000000        -0.022423179601
    6          2.980220000000         0.484552669026
    7          1.519700000000         0.503105669617
    8        750.222000000000         0.000000933328
    9        163.961000000000         0.000007358933
   10         16.922700000000         0.001496681345
   11         10.575500000000        -0.004814034526
   12          5.704620000000        -0.000411597690
   13          2.980220000000         0.008894401374
   14          1.519700000000         0.009234958438
   15        750.222000000000        -0.000006907933
   16        163.961000000000        -0.000054466416
   17         16.922700000000        -0.011077539327
   18         10.575500000000         0.035630601634
   19          5.704620000000         0.003046399701
   20          2.980220000000        -0.065831034330
   21          1.519700000000        -0.068351633837
   22        750.222000000000        -0.000081306825
   23        163.961000000000        -0.000772414278
   24         16.922700000000        -0.138379037327
   25         10.575500000000         0.472697221955
   26          5.704620000000        -0.035490404120
   27          2.980220000000        -0.897794413097
   28          1.519700000000        -1.188491516888
   29        750.222000000000        -0.000001492460
   30        163.961000000000        -0.000014178361
   31         16.922700000000        -0.002540072067
   32         10.575500000000         0.008676783948
   33          5.704620000000        -0.000651458385
   34          2.980220000000        -0.016479826388
   35          1.519700000000        -0.021815833978
   36        750.222000000000         0.000011046296
   37        163.961000000000         0.000104939739
   38         16.922700000000         0.018800092826
   39         10.575500000000        -0.064220360418
   40          5.704620000000         0.004821704969
   41          2.980220000000         0.121973809263
   42          1.519700000000         0.161467743035
   43          0.756049000000         1.131444911253
   44          0.756049000000         0.020768692067
 S 25
    1      15746.299999999999        -0.000022612521
    2       2369.250000000000        -0.000166662593
    3        535.860000000000        -0.000695962965
    4        141.885000000000        -0.001522576016
    5         27.819700000000         0.024466322557
    6         17.387900000000        -0.153480352298
    7         10.865600000000         0.166490504696
    8          6.568850000000         0.217404676131
    9          2.401390000000        -0.287954466918
   10          1.280550000000        -0.266740159024
   11      15746.299999999999         0.000033507177
   12       2369.250000000000         0.000249293726
   13        535.860000000000         0.001052126821
   14        141.885000000000         0.002261067340
   15         27.819700000000        -0.031078619039
   16         17.387900000000         0.211280461830
   17         10.865600000000        -0.266985549182
   18          6.568850000000        -0.264345179977
   19          2.401390000000         0.495313145555
   20          1.280550000000         0.676187813300
   21          0.590067000000        -1.213328142987
   22          0.352458000000         0.530004192383
   23          0.161808000000        -0.325450274592
   24          0.073187000000         2.166102271243
   25          0.029600000000        -2.174239018958
 S 25
    1      15746.299999999999        -0.000026898267
    2       2369.250000000000        -0.000198250116
    3        535.860000000000        -0.000827868665
    4        141.885000000000        -0.001811149496
    5         27.819700000000         0.029103419018
    6         17.387900000000        -0.182569448007
    7         10.865600000000         0.198045411582
    8          6.568850000000         0.258609334166
    9          2.401390000000        -0.342530410499
   10          1.280550000000        -0.317295359731
   11      15746.299999999999         0.000043564640
   12       2369.250000000000         0.000324121354
   13        535.860000000000         0.001367931617
   14        141.885000000000         0.002939745895
   15         27.819700000000        -0.040407130354
   16         17.387900000000         0.274698085894
   17         10.865600000000        -0.347123528066
   18          6.568850000000        -0.343690629630
   19          2.401390000000         0.643985590639
   20          1.280550000000         0.879151325256
   21          0.590067000000        -0.058453503965
   22          0.352458000000        -4.161826832360
   23          0.161808000000         8.210070485885
   24          0.073187000000        -6.859036638684
   25          0.029600000000         2.297081458280
 S 25
    1      15746.299999999999        -0.000176915067
    2       2369.250000000000        -0.001303929066
    3        535.860000000000        -0.005445051114
    4        141.885000000000        -0.011912277871
    5         27.819700000000         0.191418773022
    6         17.387900000000        -1.200794302102
    7         10.865600000000         1.302582685008
    8          6.568850000000         1.700923228539
    9          2.401390000000        -2.252888255477
   10          1.280550000000        -2.086912482938
   11      15746.299999999999         0.000231797309
   12       2369.250000000000         0.001724574274
   13        535.860000000000         0.007278445701
   14        141.885000000000         0.015641703573
   15         27.819700000000        -0.214996934403
   16         17.387900000000         1.461604569209
   17         10.865600000000        -1.846963487384
   18          6.568850000000        -1.828697833938
   19          2.401390000000         3.426497417041
   20          1.280550000000         4.677759547675
   21          0.590067000000       -15.181137952473
   22          0.352458000000        19.686749746893
   23          0.161808000000       -11.696521360009
   24          0.073187000000         5.053848782446
   25          0.029600000000        -1.148066363586
 P 44
    1        750.222000000000         0.000007042406
    2        163.961000000000         0.000055526689
    3         16.922700000000         0.011293180759
    4         10.575500000000        -0.036324206389
    5          5.704620000000        -0.003105702582
    6          2.980220000000         0.067112537205
    7          1.519700000000         0.069682204079
    8        750.222000000000        -0.000005270587
    9        163.961000000000        -0.000041556569
   10         16.922700000000        -0.008451896743
   11         10.575500000000         0.027185294225
   12          5.704620000000         0.002324329885
   13          2.980220000000        -0.050227499826
   14          1.519700000000        -0.052150656778
   15        750.222000000000         0.000051123881
   16        163.961000000000         0.000403092323
   17         16.922700000000         0.081982098129
   18         10.575500000000        -0.263693171682
   19          5.704620000000        -0.022545642301
   20          2.980220000000         0.487199021108
   21          1.519700000000         0.505853347675
   22        750.222000000000        -0.000011231265
   23        163.961000000000        -0.000106696936
   24         16.922700000000        -0.019114896849
   25         10.575500000000         0.065295718291
   26          5.704620000000        -0.004902443513
   27          2.980220000000        -0.124016237791
   28          1.519700000000        -0.164171490065
   29        750.222000000000         0.000008405558
   30        163.961000000000         0.000079852745
   31         16.922700000000         0.014305724656
   32         10.575500000000        -0.048867779639
   33          5.704620000000         0.003669023568
   34          2.980220000000         0.092814633771
   35          1.519700000000         0.122867109965
   36        750.222000000000        -0.000081532622
   37        163.961000000000        -0.000774559341
   38         16.922700000000        -0.138763328307
   39         10.575500000000         0.474009944475
   40          5.704620000000        -0.035588964151
   41          2.980220000000        -0.900287668589
   42          1.519700000000        -1.191792064271
   43          0.756049000000         0.156842581214
   44          0.756049000000        -0.117382102493
 P 44
    1        750.222000000000         0.000020369304
    2        163.961000000000         0.000160604201
    3         16.922700000000         0.032664153219
    4         10.575500000000        -0.105063353576
    5          5.704620000000        -0.008982867374
    6          2.980220000000         0.194114859667
    7          1.519700000000         0.201547308886
    8        750.222000000000         0.000027216830
    9        163.961000000000         0.000214594338
   10         16.922700000000         0.043644825498
   11         10.575500000000        -0.140382385003
   12          5.704620000000        -0.012002627969
   13          2.980220000000         0.259370237455
   14          1.519700000000         0.269301244911
   15         16.922700000000        -0.000000007662
   16         10.575500000000         0.000000024646
   17          2.980220000000        -0.000000045535
   18          1.519700000000        -0.000000047279
   19        750.222000000000        -0.000028262006
   20        163.961000000000        -0.000268488863
   21         16.922700000000        -0.048100134140
   22         10.575500000000         0.164308122263
   23          5.704620000000        -0.012336356950
   24          2.980220000000        -0.312070618025
   25          1.519700000000        -0.413116050603
   26        750.222000000000        -0.000037762814
   27        163.961000000000        -0.000358746467
   28         16.922700000000        -0.064269903061
   29         10.575500000000         0.219543402088
   30          5.704620000000        -0.016483456429
   31          2.980220000000        -0.416979052704
   32          1.519700000000        -0.551992816651
   33         16.922700000000         0.000000011283
   34         10.575500000000        -0.000000038543
   35          2.980220000000         0.000000073205
   36          1.519700000000         0.000000096909
   37          0.756049000000         0.473932925792
   38          0.756049000000         0.633254433542
   39          0.756049000000        -0.000000111175
   40          0.327968000000         0.137031660624
   41          0.327968000000         0.183097442494
   42          0.140585000000        -0.495004022558
   43          0.140585000000        -0.661408977615
   44          0.058096000000        -0.253866394962
 P 44
    1        750.222000000000         0.000001612352
    2        163.961000000000         0.000012712784
    3         16.922700000000         0.002585563279
    4         10.575500000000        -0.008316393422
    5          5.704620000000        -0.000711047731
    6          2.980220000000         0.015365353257
    7          1.519700000000         0.015953676109
    8        750.222000000000        -0.000001206696
    9        163.961000000000        -0.000009514338
   10         16.922700000000        -0.001935053934
   11         10.575500000000         0.006224047943
   12          5.704620000000         0.000532153175
   13          2.980220000000        -0.011499539582
   14          1.519700000000        -0.011939844586
   15        750.222000000000         0.000011704765
   16        163.961000000000         0.000092287614
   17         16.922700000000         0.018769725463
   18         10.575500000000        -0.060372307515
   19          5.704620000000        -0.005161803931
   20          2.980220000000         0.111543764807
   21          1.519700000000         0.115814655603
   22        750.222000000000        -0.000002179612
   23        163.961000000000        -0.000020706295
   24         16.922700000000        -0.003709560003
   25         10.575500000000         0.012671707666
   26          5.704620000000        -0.000951399765
   27          2.980220000000        -0.024067389903
   28          1.519700000000        -0.031860176802
   29        750.222000000000         0.000001631237
   30        163.961000000000         0.000015496738
   31         16.922700000000         0.002776261071
   32         10.575500000000        -0.009483596077
   33          5.704620000000         0.000712034346
   34          2.980220000000         0.018012205655
   35          1.519700000000         0.023844382755
   36        750.222000000000        -0.000015822746
   37        163.961000000000        -0.000150315975
   38         16.922700000000        -0.026929305274
   39         10.575500000000         0.091989422952
   40          5.704620000000        -0.006906623614
   41          2.980220000000        -0.174715623775
   42          1.519700000000        -0.231286844399
   43          0.756049000000         0.040776092757
   44          0.756049000000        -0.030517117623
 P 44
    1        750.222000000000         0.000003311951
    2        163.961000000000         0.000026113474
    3         16.922700000000         0.005311034794
    4         10.575500000000        -0.017082797851
    5          5.704620000000        -0.001460571191
    6          2.980220000000         0.031562146027
    7          1.519700000000         0.032770626655
    8        750.222000000000        -0.000002478688
    9        163.961000000000        -0.000019543509
   10         16.922700000000        -0.003974816187
   11         10.575500000000         0.012784887323
   12          5.704620000000         0.001093101860
   13          2.980220000000        -0.023621334406
   14          1.519700000000        -0.024525769897
   15        750.222000000000         0.000024042891
   16        163.961000000000         0.000189569033
   17         16.922700000000         0.038555105507
   18         10.575500000000        -0.124011440151
   19          5.704620000000        -0.010602919875
   20          2.980220000000         0.229123309725
   21          1.519700000000         0.237896194847
   22        750.222000000000        -0.000004573241
   23        163.961000000000        -0.000043445753
   24         16.922700000000        -0.007783364051
   25         10.575500000000         0.026587658330
   26          5.704620000000        -0.001996218076
   27          2.980220000000        -0.050497972057
   28          1.519700000000        -0.066848724534
   29        750.222000000000         0.000003422646
   30        163.961000000000         0.000032515111
   31         16.922700000000         0.005825124974
   32         10.575500000000        -0.019898392458
   33          5.704620000000         0.001493983795
   34          2.980220000000         0.037793041187
   35          1.519700000000         0.050030060550
   36        750.222000000000        -0.000033199137
   37        163.961000000000        -0.000315391570
   38         16.922700000000        -0.056502816084
   39         10.575500000000         0.193011345587
   40          5.704620000000        -0.014491412973
   41          2.980220000000        -0.366586685270
   42          1.519700000000        -0.485283890489
   43          0.756049000000         0.063828204297
   44          0.756049000000        -0.047769481737
 P 44
    1        750.222000000000         0.000016030377
    2        163.961000000000         0.000126393417
    3         16.922700000000         0.025706263530
    4         10.575500000000        -0.082683492092
    5          5.704620000000        -0.007069399731
    6          2.980220000000         0.152765868574
    7          1.519700000000         0.158615109391
    8        750.222000000000        -0.000011997248
    9        163.961000000000        -0.000094593731
   10         16.922700000000        -0.019238750327
   11         10.575500000000         0.061880913135
   12          5.704620000000         0.005290789003
   13          2.980220000000        -0.114331061787
   14          1.519700000000        -0.118708675187
   15        750.222000000000         0.000116371462
   16        163.961000000000         0.000917544641
   17         16.922700000000         0.186612918417
   18         10.575500000000        -0.600235337433
   19          5.704620000000        -0.051319839372
   20          2.980220000000         1.108993710250
   21          1.519700000000         1.151455886764
   22        750.222000000000        -0.000019948779
   23        163.961000000000        -0.000189513259
   24         16.922700000000        -0.033951550413
   25         10.575500000000         0.115977129712
   26          5.704620000000        -0.008707635694
   27          2.980220000000        -0.220275504627
   28          1.519700000000        -0.291598571798
   29        750.222000000000         0.000014929808
   30        163.961000000000         0.000141833070
   31         16.922700000000         0.025409581632
   32         10.575500000000        -0.086798108156
   33          5.704620000000         0.006516856441
   34          2.980220000000         0.164855753219
   35          1.519700000000         0.218234443601
   36        750.222000000000        -0.000144816838
   37        163.961000000000        -0.001375758956
   38         16.922700000000        -0.246469032731
   39         10.575500000000         0.841928295790
   40          5.704620000000        -0.063212504897
   41          2.980220000000        -1.599075444242
   42          1.519700000000        -2.116840528989
   43          0.756049000000         0.520041310103
   44          0.756049000000        -0.389202612552
 P 44
    1        750.222000000000        -0.000208075702
    2        163.961000000000        -0.001640597631
    3         16.922700000000        -0.333669554895
    4         10.575500000000         1.073238978162
    5          5.704620000000         0.091761428447
    6          2.980220000000        -1.982914370666
    7          1.519700000000        -2.058838029421
    8        750.222000000000         0.000155725344
    9        163.961000000000         0.001227835001
   10         16.922700000000         0.249720681282
   11         10.575500000000        -0.803219727042
   12          5.704620000000        -0.068674909326
   13          2.980220000000         1.484027296774
   14          1.519700000000         1.540849105990
   15        750.222000000000        -0.001510511748
   16        163.961000000000        -0.011909809607
   17         16.922700000000        -2.422251986242
   18         10.575500000000         7.791107125085
   19          5.704620000000         0.666135999090
   20          2.980220000000       -14.394835256720
   21          1.519700000000       -14.945998017971
   22        750.222000000000         0.000151082340
   23        163.961000000000         0.001435281180
   24         16.922700000000         0.257132517630
   25         10.575500000000        -0.878354331018
   26          5.704620000000         0.065947394485
   27          2.980220000000         1.668259457601
   28          1.519700000000         2.208425653358
   29        750.222000000000        -0.000113071104
   30        163.961000000000        -0.001074174700
   31         16.922700000000        -0.192439815202
   32         10.575500000000         0.657366663308
   33          5.704620000000        -0.049355501687
   34          2.980220000000        -1.248537309430
   35          1.519700000000        -1.652801553593
   36        750.222000000000         0.001096772217
   37        163.961000000000         0.010419328455
   38         16.922700000000         1.866636444411
   39         10.575500000000        -6.376354964725
   40          5.704620000000         0.478740732969
   41          2.980220000000        12.110618800727
   42          1.519700000000        16.031919444972
   43          0.756049000000         0.000882963587
   44          0.756049000000        -0.000660816262
 end
  // -----------------------------------------------
  // The basis set
  // -----------------------------------------------
  BAS[ATNO] = new BFNGauss[NSH];
  // Basis function   1 L = s
  InitBFNGauss(BAS[ATNO][  0]);
  BAS[ATNO][  0].l  = 0;
  BAS[ATNO][  0].ng = 25;
  BAS[ATNO][  0].a[  0] =     15746.299999999999;     BAS[ATNO][  0].d[  0] =        -0.000042692368;
  BAS[ATNO][  0].a[  1] =      2369.250000000000;     BAS[ATNO][  0].d[  1] =        -0.000314658442;
  BAS[ATNO][  0].a[  2] =       535.860000000000;     BAS[ATNO][  0].d[  2] =        -0.001313975848;
  BAS[ATNO][  0].a[  3] =       141.885000000000;     BAS[ATNO][  0].d[  3] =        -0.002874618637;
  BAS[ATNO][  0].a[  4] =        27.819700000000;     BAS[ATNO][  0].d[  4] =         0.046192338554;
  BAS[ATNO][  0].a[  5] =        17.387900000000;     BAS[ATNO][  0].d[  5] =        -0.289770413116;
  BAS[ATNO][  0].a[  6] =        10.865600000000;     BAS[ATNO][  0].d[  6] =         0.314333539134;
  BAS[ATNO][  0].a[  7] =         6.568850000000;     BAS[ATNO][  0].d[  7] =         0.410459331585;
  BAS[ATNO][  0].a[  8] =         2.401390000000;     BAS[ATNO][  0].d[  8] =        -0.543657110423;
  BAS[ATNO][  0].a[  9] =         1.280550000000;     BAS[ATNO][  0].d[  9] =        -0.503604565127;
  BAS[ATNO][  0].a[ 10] =     15746.299999999999;     BAS[ATNO][  0].d[ 10] =        -0.000018090508;
  BAS[ATNO][  0].a[ 11] =      2369.250000000000;     BAS[ATNO][  0].d[ 11] =        -0.000134593558;
  BAS[ATNO][  0].a[ 12] =       535.860000000000;     BAS[ATNO][  0].d[ 12] =        -0.000568042744;
  BAS[ATNO][  0].a[ 13] =       141.885000000000;     BAS[ATNO][  0].d[ 13] =        -0.001220749125;
  BAS[ATNO][  0].a[ 14] =        27.819700000000;     BAS[ATNO][  0].d[ 14] =         0.016779330862;
  BAS[ATNO][  0].a[ 15] =        17.387900000000;     BAS[ATNO][  0].d[ 15] =        -0.114070215581;
  BAS[ATNO][  0].a[ 16] =        10.865600000000;     BAS[ATNO][  0].d[ 16] =         0.144145364358;
  BAS[ATNO][  0].a[ 17] =         6.568850000000;     BAS[ATNO][  0].d[ 17] =         0.142719830345;
  BAS[ATNO][  0].a[ 18] =         2.401390000000;     BAS[ATNO][  0].d[ 18] =        -0.267419319344;
  BAS[ATNO][  0].a[ 19] =         1.280550000000;     BAS[ATNO][  0].d[ 19] =        -0.365073461919;
  BAS[ATNO][  0].a[ 20] =         0.590067000000;     BAS[ATNO][  0].d[ 20] =         0.570099740193;
  BAS[ATNO][  0].a[ 21] =         0.352458000000;     BAS[ATNO][  0].d[ 21] =        -0.490303370895;
  BAS[ATNO][  0].a[ 22] =         0.161808000000;     BAS[ATNO][  0].d[ 22] =         0.210029683109;
  BAS[ATNO][  0].a[ 23] =         0.073187000000;     BAS[ATNO][  0].d[ 23] =        -0.082407667640;
  BAS[ATNO][  0].a[ 24] =         0.029600000000;     BAS[ATNO][  0].d[ 24] =         0.019029360427;

  // Basis function   2 L = p
  InitBFNGauss(BAS[ATNO][  1]);
  BAS[ATNO][  1].l  = 1;
  BAS[ATNO][  1].ng = 44;
  BAS[ATNO][  1].a[  0] =       750.222000000000;     BAS[ATNO][  1].d[  0] =        -0.000003829799;
  BAS[ATNO][  1].a[  1] =       163.961000000000;     BAS[ATNO][  1].d[  1] =        -0.000030196505;
  BAS[ATNO][  1].a[  2] =        16.922700000000;     BAS[ATNO][  1].d[  2] =        -0.006141453695;
  BAS[ATNO][  1].a[  3] =        10.575500000000;     BAS[ATNO][  1].d[  3] =         0.019753817485;
  BAS[ATNO][  1].a[  4] =         5.704620000000;     BAS[ATNO][  1].d[  4] =         0.001688942115;
  BAS[ATNO][  1].a[  5] =         2.980220000000;     BAS[ATNO][  1].d[  5] =        -0.036497117011;
  BAS[ATNO][  1].a[  6] =         1.519700000000;     BAS[ATNO][  1].d[  6] =        -0.037894552371;
  BAS[ATNO][  1].a[  7] =       750.222000000000;     BAS[ATNO][  1].d[  7] =         0.000035918514;
  BAS[ATNO][  1].a[  8] =       163.961000000000;     BAS[ATNO][  1].d[  8] =         0.000283203800;
  BAS[ATNO][  1].a[  9] =        16.922700000000;     BAS[ATNO][  1].d[  9] =         0.057598818994;
  BAS[ATNO][  1].a[ 10] =        10.575500000000;     BAS[ATNO][  1].d[ 10] =        -0.185265022636;
  BAS[ATNO][  1].a[ 11] =         5.704620000000;     BAS[ATNO][  1].d[ 11] =        -0.015840072402;
  BAS[ATNO][  1].a[ 12] =         2.980220000000;     BAS[ATNO][  1].d[ 12] =         0.342295316553;
  BAS[ATNO][  1].a[ 13] =         1.519700000000;     BAS[ATNO][  1].d[ 13] =         0.355401436107;
  BAS[ATNO][  1].a[ 14] =       750.222000000000;     BAS[ATNO][  1].d[ 14] =         0.000004230560;
  BAS[ATNO][  1].a[ 15] =       163.961000000000;     BAS[ATNO][  1].d[ 15] =         0.000033356354;
  BAS[ATNO][  1].a[ 16] =        16.922700000000;     BAS[ATNO][  1].d[ 16] =         0.006784112995;
  BAS[ATNO][  1].a[ 17] =        10.575500000000;     BAS[ATNO][  1].d[ 17] =        -0.021820913512;
  BAS[ATNO][  1].a[ 18] =         5.704620000000;     BAS[ATNO][  1].d[ 18] =        -0.001865677854;
  BAS[ATNO][  1].a[ 19] =         2.980220000000;     BAS[ATNO][  1].d[ 19] =         0.040316279845;
  BAS[ATNO][  1].a[ 20] =         1.519700000000;     BAS[ATNO][  1].d[ 20] =         0.041859946843;
  BAS[ATNO][  1].a[ 21] =       750.222000000000;     BAS[ATNO][  1].d[ 21] =        -0.000002120286;
  BAS[ATNO][  1].a[ 22] =       163.961000000000;     BAS[ATNO][  1].d[ 22] =        -0.000020142700;
  BAS[ATNO][  1].a[ 23] =        16.922700000000;     BAS[ATNO][  1].d[ 23] =        -0.003608591325;
  BAS[ATNO][  1].a[ 24] =        10.575500000000;     BAS[ATNO][  1].d[ 24] =         0.012326802725;
  BAS[ATNO][  1].a[ 25] =         5.704620000000;     BAS[ATNO][  1].d[ 25] =        -0.000925504086;
  BAS[ATNO][  1].a[ 26] =         2.980220000000;     BAS[ATNO][  1].d[ 26] =        -0.023412311526;
  BAS[ATNO][  1].a[ 27] =         1.519700000000;     BAS[ATNO][  1].d[ 27] =        -0.030992990414;
  BAS[ATNO][  1].a[ 28] =       750.222000000000;     BAS[ATNO][  1].d[ 28] =         0.000019885513;
  BAS[ATNO][  1].a[ 29] =       163.961000000000;     BAS[ATNO][  1].d[ 29] =         0.000188912235;
  BAS[ATNO][  1].a[ 30] =        16.922700000000;     BAS[ATNO][  1].d[ 30] =         0.033843876202;
  BAS[ATNO][  1].a[ 31] =        10.575500000000;     BAS[ATNO][  1].d[ 31] =        -0.115609318939;
  BAS[ATNO][  1].a[ 32] =         5.704620000000;     BAS[ATNO][  1].d[ 32] =         0.008680020230;
  BAS[ATNO][  1].a[ 33] =         2.980220000000;     BAS[ATNO][  1].d[ 33] =         0.219576921177;
  BAS[ATNO][  1].a[ 34] =         1.519700000000;     BAS[ATNO][  1].d[ 34] =         0.290673793817;
  BAS[ATNO][  1].a[ 35] =       750.222000000000;     BAS[ATNO][  1].d[ 35] =         0.000002342159;
  BAS[ATNO][  1].a[ 36] =       163.961000000000;     BAS[ATNO][  1].d[ 36] =         0.000022250490;
  BAS[ATNO][  1].a[ 37] =        16.922700000000;     BAS[ATNO][  1].d[ 37] =         0.003986204654;
  BAS[ATNO][  1].a[ 38] =        10.575500000000;     BAS[ATNO][  1].d[ 38] =        -0.013616714660;
  BAS[ATNO][  1].a[ 39] =         5.704620000000;     BAS[ATNO][  1].d[ 39] =         0.001022351483;
  BAS[ATNO][  1].a[ 40] =         2.980220000000;     BAS[ATNO][  1].d[ 40] =         0.025862242846;
  BAS[ATNO][  1].a[ 41] =         1.519700000000;     BAS[ATNO][  1].d[ 41] =         0.034236185681;
  BAS[ATNO][  1].a[ 42] =         0.756049000000;     BAS[ATNO][  1].d[ 42] =         0.015034945627;
  BAS[ATNO][  1].a[ 43] =         0.756049000000;     BAS[ATNO][  1].d[ 43] =        -0.141008164322;

  // Basis function   3 L = s
  InitBFNGauss(BAS[ATNO][  2]);
  BAS[ATNO][  2].l  = 0;
  BAS[ATNO][  2].ng = 25;
  BAS[ATNO][  2].a[  0] =     15746.299999999999;     BAS[ATNO][  2].d[  0] =         0.000050828746;
  BAS[ATNO][  2].a[  1] =      2369.250000000000;     BAS[ATNO][  2].d[  1] =         0.000374626538;
  BAS[ATNO][  2].a[  2] =       535.860000000000;     BAS[ATNO][  2].d[  2] =         0.001564395411;
  BAS[ATNO][  2].a[  3] =       141.885000000000;     BAS[ATNO][  2].d[  3] =         0.003422467934;
  BAS[ATNO][  2].a[  4] =        27.819700000000;     BAS[ATNO][  2].d[  4] =        -0.054995746384;
  BAS[ATNO][  2].a[  5] =        17.387900000000;     BAS[ATNO][  2].d[  5] =         0.344995309785;
  BAS[ATNO][  2].a[  6] =        10.865600000000;     BAS[ATNO][  2].d[  6] =        -0.374239714619;
  BAS[ATNO][  2].a[  7] =         6.568850000000;     BAS[ATNO][  2].d[  7] =        -0.488685310317;
  BAS[ATNO][  2].a[  8] =         2.401390000000;     BAS[ATNO][  2].d[  8] =         0.647268129311;
  BAS[ATNO][  2].a[  9] =         1.280550000000;     BAS[ATNO][  2].d[  9] =         0.599582307548;
  BAS[ATNO][  2].a[ 10] =     15746.299999999999;     BAS[ATNO][  2].d[ 10] =        -0.000097887796;
  BAS[ATNO][  2].a[ 11] =      2369.250000000000;     BAS[ATNO][  2].d[ 11] =        -0.000728286173;
  BAS[ATNO][  2].a[ 12] =       535.860000000000;     BAS[ATNO][  2].d[ 12] =        -0.003073681109;
  BAS[ATNO][  2].a[ 13] =       141.885000000000;     BAS[ATNO][  2].d[ 13] =        -0.006605477428;
  BAS[ATNO][  2].a[ 14] =        27.819700000000;     BAS[ATNO][  2].d[ 14] =         0.090793013087;
  BAS[ATNO][  2].a[ 15] =        17.387900000000;     BAS[ATNO][  2].d[ 15] =        -0.617234302196;
  BAS[ATNO][  2].a[ 16] =        10.865600000000;     BAS[ATNO][  2].d[ 16] =         0.779971028644;
  BAS[ATNO][  2].a[ 17] =         6.568850000000;     BAS[ATNO][  2].d[ 17] =         0.772257459532;
  BAS[ATNO][  2].a[ 18] =         2.401390000000;     BAS[ATNO][  2].d[ 18] =        -1.447006794271;
  BAS[ATNO][  2].a[ 19] =         1.280550000000;     BAS[ATNO][  2].d[ 19] =        -1.975413672804;
  BAS[ATNO][  2].a[ 20] =         0.590067000000;     BAS[ATNO][  2].d[ 20] =         2.449387683704;
  BAS[ATNO][  2].a[ 21] =         0.352458000000;     BAS[ATNO][  2].d[ 21] =        -0.660067382352;
  BAS[ATNO][  2].a[ 22] =         0.161808000000;     BAS[ATNO][  2].d[ 22] =         0.511979079152;
  BAS[ATNO][  2].a[ 23] =         0.073187000000;     BAS[ATNO][  2].d[ 23] =        -0.193817956916;
  BAS[ATNO][  2].a[ 24] =         0.029600000000;     BAS[ATNO][  2].d[ 24] =         0.045006848031;

  // Basis function   4 L = p
  InitBFNGauss(BAS[ATNO][  3]);
  BAS[ATNO][  3].l  = 1;
  BAS[ATNO][  3].ng = 44;
  BAS[ATNO][  3].a[  0] =       750.222000000000;     BAS[ATNO][  3].d[  0] =        -0.000050846188;
  BAS[ATNO][  3].a[  1] =       163.961000000000;     BAS[ATNO][  3].d[  1] =        -0.000400902819;
  BAS[ATNO][  3].a[  2] =        16.922700000000;     BAS[ATNO][  3].d[  2] =        -0.081536790387;
  BAS[ATNO][  3].a[  3] =        10.575500000000;     BAS[ATNO][  3].d[  3] =         0.262260851534;
  BAS[ATNO][  3].a[  4] =         5.704620000000;     BAS[ATNO][  3].d[  4] =         0.022423179601;
  BAS[ATNO][  3].a[  5] =         2.980220000000;     BAS[ATNO][  3].d[  5] =        -0.484552669026;
  BAS[ATNO][  3].a[  6] =         1.519700000000;     BAS[ATNO][  3].d[  6] =        -0.503105669617;
  BAS[ATNO][  3].a[  7] =       750.222000000000;     BAS[ATNO][  3].d[  7] =        -0.000000933328;
  BAS[ATNO][  3].a[  8] =       163.961000000000;     BAS[ATNO][  3].d[  8] =        -0.000007358933;
  BAS[ATNO][  3].a[  9] =        16.922700000000;     BAS[ATNO][  3].d[  9] =        -0.001496681345;
  BAS[ATNO][  3].a[ 10] =        10.575500000000;     BAS[ATNO][  3].d[ 10] =         0.004814034526;
  BAS[ATNO][  3].a[ 11] =         5.704620000000;     BAS[ATNO][  3].d[ 11] =         0.000411597690;
  BAS[ATNO][  3].a[ 12] =         2.980220000000;     BAS[ATNO][  3].d[ 12] =        -0.008894401374;
  BAS[ATNO][  3].a[ 13] =         1.519700000000;     BAS[ATNO][  3].d[ 13] =        -0.009234958438;
  BAS[ATNO][  3].a[ 14] =       750.222000000000;     BAS[ATNO][  3].d[ 14] =         0.000006907933;
  BAS[ATNO][  3].a[ 15] =       163.961000000000;     BAS[ATNO][  3].d[ 15] =         0.000054466416;
  BAS[ATNO][  3].a[ 16] =        16.922700000000;     BAS[ATNO][  3].d[ 16] =         0.011077539327;
  BAS[ATNO][  3].a[ 17] =        10.575500000000;     BAS[ATNO][  3].d[ 17] =        -0.035630601634;
  BAS[ATNO][  3].a[ 18] =         5.704620000000;     BAS[ATNO][  3].d[ 18] =        -0.003046399701;
  BAS[ATNO][  3].a[ 19] =         2.980220000000;     BAS[ATNO][  3].d[ 19] =         0.065831034330;
  BAS[ATNO][  3].a[ 20] =         1.519700000000;     BAS[ATNO][  3].d[ 20] =         0.068351633837;
  BAS[ATNO][  3].a[ 21] =       750.222000000000;     BAS[ATNO][  3].d[ 21] =         0.000081306825;
  BAS[ATNO][  3].a[ 22] =       163.961000000000;     BAS[ATNO][  3].d[ 22] =         0.000772414278;
  BAS[ATNO][  3].a[ 23] =        16.922700000000;     BAS[ATNO][  3].d[ 23] =         0.138379037327;
  BAS[ATNO][  3].a[ 24] =        10.575500000000;     BAS[ATNO][  3].d[ 24] =        -0.472697221955;
  BAS[ATNO][  3].a[ 25] =         5.704620000000;     BAS[ATNO][  3].d[ 25] =         0.035490404120;
  BAS[ATNO][  3].a[ 26] =         2.980220000000;     BAS[ATNO][  3].d[ 26] =         0.897794413097;
  BAS[ATNO][  3].a[ 27] =         1.519700000000;     BAS[ATNO][  3].d[ 27] =         1.188491516888;
  BAS[ATNO][  3].a[ 28] =       750.222000000000;     BAS[ATNO][  3].d[ 28] =         0.000001492460;
  BAS[ATNO][  3].a[ 29] =       163.961000000000;     BAS[ATNO][  3].d[ 29] =         0.000014178361;
  BAS[ATNO][  3].a[ 30] =        16.922700000000;     BAS[ATNO][  3].d[ 30] =         0.002540072067;
  BAS[ATNO][  3].a[ 31] =        10.575500000000;     BAS[ATNO][  3].d[ 31] =        -0.008676783948;
  BAS[ATNO][  3].a[ 32] =         5.704620000000;     BAS[ATNO][  3].d[ 32] =         0.000651458385;
  BAS[ATNO][  3].a[ 33] =         2.980220000000;     BAS[ATNO][  3].d[ 33] =         0.016479826388;
  BAS[ATNO][  3].a[ 34] =         1.519700000000;     BAS[ATNO][  3].d[ 34] =         0.021815833978;
  BAS[ATNO][  3].a[ 35] =       750.222000000000;     BAS[ATNO][  3].d[ 35] =        -0.000011046296;
  BAS[ATNO][  3].a[ 36] =       163.961000000000;     BAS[ATNO][  3].d[ 36] =        -0.000104939739;
  BAS[ATNO][  3].a[ 37] =        16.922700000000;     BAS[ATNO][  3].d[ 37] =        -0.018800092826;
  BAS[ATNO][  3].a[ 38] =        10.575500000000;     BAS[ATNO][  3].d[ 38] =         0.064220360418;
  BAS[ATNO][  3].a[ 39] =         5.704620000000;     BAS[ATNO][  3].d[ 39] =        -0.004821704969;
  BAS[ATNO][  3].a[ 40] =         2.980220000000;     BAS[ATNO][  3].d[ 40] =        -0.121973809263;
  BAS[ATNO][  3].a[ 41] =         1.519700000000;     BAS[ATNO][  3].d[ 41] =        -0.161467743035;
  BAS[ATNO][  3].a[ 42] =         0.756049000000;     BAS[ATNO][  3].d[ 42] =        -1.131444911253;
  BAS[ATNO][  3].a[ 43] =         0.756049000000;     BAS[ATNO][  3].d[ 43] =        -0.020768692067;

  // Basis function   5 L = s
  InitBFNGauss(BAS[ATNO][  4]);
  BAS[ATNO][  4].l  = 0;
  BAS[ATNO][  4].ng = 25;
  BAS[ATNO][  4].a[  0] =     15746.299999999999;     BAS[ATNO][  4].d[  0] =         0.000022612521;
  BAS[ATNO][  4].a[  1] =      2369.250000000000;     BAS[ATNO][  4].d[  1] =         0.000166662593;
  BAS[ATNO][  4].a[  2] =       535.860000000000;     BAS[ATNO][  4].d[  2] =         0.000695962965;
  BAS[ATNO][  4].a[  3] =       141.885000000000;     BAS[ATNO][  4].d[  3] =         0.001522576016;
  BAS[ATNO][  4].a[  4] =        27.819700000000;     BAS[ATNO][  4].d[  4] =        -0.024466322557;
  BAS[ATNO][  4].a[  5] =        17.387900000000;     BAS[ATNO][  4].d[  5] =         0.153480352298;
  BAS[ATNO][  4].a[  6] =        10.865600000000;     BAS[ATNO][  4].d[  6] =        -0.166490504696;
  BAS[ATNO][  4].a[  7] =         6.568850000000;     BAS[ATNO][  4].d[  7] =        -0.217404676131;
  BAS[ATNO][  4].a[  8] =         2.401390000000;     BAS[ATNO][  4].d[  8] =         0.287954466918;
  BAS[ATNO][  4].a[  9] =         1.280550000000;     BAS[ATNO][  4].d[  9] =         0.266740159024;
  BAS[ATNO][  4].a[ 10] =     15746.299999999999;     BAS[ATNO][  4].d[ 10] =        -0.000033507177;
  BAS[ATNO][  4].a[ 11] =      2369.250000000000;     BAS[ATNO][  4].d[ 11] =        -0.000249293726;
  BAS[ATNO][  4].a[ 12] =       535.860000000000;     BAS[ATNO][  4].d[ 12] =        -0.001052126821;
  BAS[ATNO][  4].a[ 13] =       141.885000000000;     BAS[ATNO][  4].d[ 13] =        -0.002261067340;
  BAS[ATNO][  4].a[ 14] =        27.819700000000;     BAS[ATNO][  4].d[ 14] =         0.031078619039;
  BAS[ATNO][  4].a[ 15] =        17.387900000000;     BAS[ATNO][  4].d[ 15] =        -0.211280461830;
  BAS[ATNO][  4].a[ 16] =        10.865600000000;     BAS[ATNO][  4].d[ 16] =         0.266985549182;
  BAS[ATNO][  4].a[ 17] =         6.568850000000;     BAS[ATNO][  4].d[ 17] =         0.264345179977;
  BAS[ATNO][  4].a[ 18] =         2.401390000000;     BAS[ATNO][  4].d[ 18] =        -0.495313145555;
  BAS[ATNO][  4].a[ 19] =         1.280550000000;     BAS[ATNO][  4].d[ 19] =        -0.676187813300;
  BAS[ATNO][  4].a[ 20] =         0.590067000000;     BAS[ATNO][  4].d[ 20] =         1.213328142987;
  BAS[ATNO][  4].a[ 21] =         0.352458000000;     BAS[ATNO][  4].d[ 21] =        -0.530004192383;
  BAS[ATNO][  4].a[ 22] =         0.161808000000;     BAS[ATNO][  4].d[ 22] =         0.325450274592;
  BAS[ATNO][  4].a[ 23] =         0.073187000000;     BAS[ATNO][  4].d[ 23] =        -2.166102271243;
  BAS[ATNO][  4].a[ 24] =         0.029600000000;     BAS[ATNO][  4].d[ 24] =         2.174239018958;

  // Basis function   6 L = s
  InitBFNGauss(BAS[ATNO][  5]);
  BAS[ATNO][  5].l  = 0;
  BAS[ATNO][  5].ng = 25;
  BAS[ATNO][  5].a[  0] =     15746.299999999999;     BAS[ATNO][  5].d[  0] =        -0.000026898267;
  BAS[ATNO][  5].a[  1] =      2369.250000000000;     BAS[ATNO][  5].d[  1] =        -0.000198250116;
  BAS[ATNO][  5].a[  2] =       535.860000000000;     BAS[ATNO][  5].d[  2] =        -0.000827868665;
  BAS[ATNO][  5].a[  3] =       141.885000000000;     BAS[ATNO][  5].d[  3] =        -0.001811149496;
  BAS[ATNO][  5].a[  4] =        27.819700000000;     BAS[ATNO][  5].d[  4] =         0.029103419018;
  BAS[ATNO][  5].a[  5] =        17.387900000000;     BAS[ATNO][  5].d[  5] =        -0.182569448007;
  BAS[ATNO][  5].a[  6] =        10.865600000000;     BAS[ATNO][  5].d[  6] =         0.198045411582;
  BAS[ATNO][  5].a[  7] =         6.568850000000;     BAS[ATNO][  5].d[  7] =         0.258609334166;
  BAS[ATNO][  5].a[  8] =         2.401390000000;     BAS[ATNO][  5].d[  8] =        -0.342530410499;
  BAS[ATNO][  5].a[  9] =         1.280550000000;     BAS[ATNO][  5].d[  9] =        -0.317295359731;
  BAS[ATNO][  5].a[ 10] =     15746.299999999999;     BAS[ATNO][  5].d[ 10] =         0.000043564640;
  BAS[ATNO][  5].a[ 11] =      2369.250000000000;     BAS[ATNO][  5].d[ 11] =         0.000324121354;
  BAS[ATNO][  5].a[ 12] =       535.860000000000;     BAS[ATNO][  5].d[ 12] =         0.001367931617;
  BAS[ATNO][  5].a[ 13] =       141.885000000000;     BAS[ATNO][  5].d[ 13] =         0.002939745895;
  BAS[ATNO][  5].a[ 14] =        27.819700000000;     BAS[ATNO][  5].d[ 14] =        -0.040407130354;
  BAS[ATNO][  5].a[ 15] =        17.387900000000;     BAS[ATNO][  5].d[ 15] =         0.274698085894;
  BAS[ATNO][  5].a[ 16] =        10.865600000000;     BAS[ATNO][  5].d[ 16] =        -0.347123528066;
  BAS[ATNO][  5].a[ 17] =         6.568850000000;     BAS[ATNO][  5].d[ 17] =        -0.343690629630;
  BAS[ATNO][  5].a[ 18] =         2.401390000000;     BAS[ATNO][  5].d[ 18] =         0.643985590639;
  BAS[ATNO][  5].a[ 19] =         1.280550000000;     BAS[ATNO][  5].d[ 19] =         0.879151325256;
  BAS[ATNO][  5].a[ 20] =         0.590067000000;     BAS[ATNO][  5].d[ 20] =        -0.058453503965;
  BAS[ATNO][  5].a[ 21] =         0.352458000000;     BAS[ATNO][  5].d[ 21] =        -4.161826832360;
  BAS[ATNO][  5].a[ 22] =         0.161808000000;     BAS[ATNO][  5].d[ 22] =         8.210070485885;
  BAS[ATNO][  5].a[ 23] =         0.073187000000;     BAS[ATNO][  5].d[ 23] =        -6.859036638684;
  BAS[ATNO][  5].a[ 24] =         0.029600000000;     BAS[ATNO][  5].d[ 24] =         2.297081458280;

  // Basis function   7 L = s
  InitBFNGauss(BAS[ATNO][  6]);
  BAS[ATNO][  6].l  = 0;
  BAS[ATNO][  6].ng = 25;
  BAS[ATNO][  6].a[  0] =     15746.299999999999;     BAS[ATNO][  6].d[  0] =        -0.000176915067;
  BAS[ATNO][  6].a[  1] =      2369.250000000000;     BAS[ATNO][  6].d[  1] =        -0.001303929066;
  BAS[ATNO][  6].a[  2] =       535.860000000000;     BAS[ATNO][  6].d[  2] =        -0.005445051114;
  BAS[ATNO][  6].a[  3] =       141.885000000000;     BAS[ATNO][  6].d[  3] =        -0.011912277871;
  BAS[ATNO][  6].a[  4] =        27.819700000000;     BAS[ATNO][  6].d[  4] =         0.191418773022;
  BAS[ATNO][  6].a[  5] =        17.387900000000;     BAS[ATNO][  6].d[  5] =        -1.200794302102;
  BAS[ATNO][  6].a[  6] =        10.865600000000;     BAS[ATNO][  6].d[  6] =         1.302582685008;
  BAS[ATNO][  6].a[  7] =         6.568850000000;     BAS[ATNO][  6].d[  7] =         1.700923228539;
  BAS[ATNO][  6].a[  8] =         2.401390000000;     BAS[ATNO][  6].d[  8] =        -2.252888255477;
  BAS[ATNO][  6].a[  9] =         1.280550000000;     BAS[ATNO][  6].d[  9] =        -2.086912482938;
  BAS[ATNO][  6].a[ 10] =     15746.299999999999;     BAS[ATNO][  6].d[ 10] =         0.000231797309;
  BAS[ATNO][  6].a[ 11] =      2369.250000000000;     BAS[ATNO][  6].d[ 11] =         0.001724574274;
  BAS[ATNO][  6].a[ 12] =       535.860000000000;     BAS[ATNO][  6].d[ 12] =         0.007278445701;
  BAS[ATNO][  6].a[ 13] =       141.885000000000;     BAS[ATNO][  6].d[ 13] =         0.015641703573;
  BAS[ATNO][  6].a[ 14] =        27.819700000000;     BAS[ATNO][  6].d[ 14] =        -0.214996934403;
  BAS[ATNO][  6].a[ 15] =        17.387900000000;     BAS[ATNO][  6].d[ 15] =         1.461604569209;
  BAS[ATNO][  6].a[ 16] =        10.865600000000;     BAS[ATNO][  6].d[ 16] =        -1.846963487384;
  BAS[ATNO][  6].a[ 17] =         6.568850000000;     BAS[ATNO][  6].d[ 17] =        -1.828697833938;
  BAS[ATNO][  6].a[ 18] =         2.401390000000;     BAS[ATNO][  6].d[ 18] =         3.426497417041;
  BAS[ATNO][  6].a[ 19] =         1.280550000000;     BAS[ATNO][  6].d[ 19] =         4.677759547675;
  BAS[ATNO][  6].a[ 20] =         0.590067000000;     BAS[ATNO][  6].d[ 20] =       -15.181137952473;
  BAS[ATNO][  6].a[ 21] =         0.352458000000;     BAS[ATNO][  6].d[ 21] =        19.686749746893;
  BAS[ATNO][  6].a[ 22] =         0.161808000000;     BAS[ATNO][  6].d[ 22] =       -11.696521360009;
  BAS[ATNO][  6].a[ 23] =         0.073187000000;     BAS[ATNO][  6].d[ 23] =         5.053848782446;
  BAS[ATNO][  6].a[ 24] =         0.029600000000;     BAS[ATNO][  6].d[ 24] =        -1.148066363586;

  // Basis function   8 L = p
  InitBFNGauss(BAS[ATNO][  7]);
  BAS[ATNO][  7].l  = 1;
  BAS[ATNO][  7].ng = 44;
  BAS[ATNO][  7].a[  0] =       750.222000000000;     BAS[ATNO][  7].d[  0] =        -0.000007042406;
  BAS[ATNO][  7].a[  1] =       163.961000000000;     BAS[ATNO][  7].d[  1] =        -0.000055526689;
  BAS[ATNO][  7].a[  2] =        16.922700000000;     BAS[ATNO][  7].d[  2] =        -0.011293180759;
  BAS[ATNO][  7].a[  3] =        10.575500000000;     BAS[ATNO][  7].d[  3] =         0.036324206389;
  BAS[ATNO][  7].a[  4] =         5.704620000000;     BAS[ATNO][  7].d[  4] =         0.003105702582;
  BAS[ATNO][  7].a[  5] =         2.980220000000;     BAS[ATNO][  7].d[  5] =        -0.067112537205;
  BAS[ATNO][  7].a[  6] =         1.519700000000;     BAS[ATNO][  7].d[  6] =        -0.069682204079;
  BAS[ATNO][  7].a[  7] =       750.222000000000;     BAS[ATNO][  7].d[  7] =         0.000005270587;
  BAS[ATNO][  7].a[  8] =       163.961000000000;     BAS[ATNO][  7].d[  8] =         0.000041556569;
  BAS[ATNO][  7].a[  9] =        16.922700000000;     BAS[ATNO][  7].d[  9] =         0.008451896743;
  BAS[ATNO][  7].a[ 10] =        10.575500000000;     BAS[ATNO][  7].d[ 10] =        -0.027185294225;
  BAS[ATNO][  7].a[ 11] =         5.704620000000;     BAS[ATNO][  7].d[ 11] =        -0.002324329885;
  BAS[ATNO][  7].a[ 12] =         2.980220000000;     BAS[ATNO][  7].d[ 12] =         0.050227499826;
  BAS[ATNO][  7].a[ 13] =         1.519700000000;     BAS[ATNO][  7].d[ 13] =         0.052150656778;
  BAS[ATNO][  7].a[ 14] =       750.222000000000;     BAS[ATNO][  7].d[ 14] =        -0.000051123881;
  BAS[ATNO][  7].a[ 15] =       163.961000000000;     BAS[ATNO][  7].d[ 15] =        -0.000403092323;
  BAS[ATNO][  7].a[ 16] =        16.922700000000;     BAS[ATNO][  7].d[ 16] =        -0.081982098129;
  BAS[ATNO][  7].a[ 17] =        10.575500000000;     BAS[ATNO][  7].d[ 17] =         0.263693171682;
  BAS[ATNO][  7].a[ 18] =         5.704620000000;     BAS[ATNO][  7].d[ 18] =         0.022545642301;
  BAS[ATNO][  7].a[ 19] =         2.980220000000;     BAS[ATNO][  7].d[ 19] =        -0.487199021108;
  BAS[ATNO][  7].a[ 20] =         1.519700000000;     BAS[ATNO][  7].d[ 20] =        -0.505853347675;
  BAS[ATNO][  7].a[ 21] =       750.222000000000;     BAS[ATNO][  7].d[ 21] =         0.000011231265;
  BAS[ATNO][  7].a[ 22] =       163.961000000000;     BAS[ATNO][  7].d[ 22] =         0.000106696936;
  BAS[ATNO][  7].a[ 23] =        16.922700000000;     BAS[ATNO][  7].d[ 23] =         0.019114896849;
  BAS[ATNO][  7].a[ 24] =        10.575500000000;     BAS[ATNO][  7].d[ 24] =        -0.065295718291;
  BAS[ATNO][  7].a[ 25] =         5.704620000000;     BAS[ATNO][  7].d[ 25] =         0.004902443513;
  BAS[ATNO][  7].a[ 26] =         2.980220000000;     BAS[ATNO][  7].d[ 26] =         0.124016237791;
  BAS[ATNO][  7].a[ 27] =         1.519700000000;     BAS[ATNO][  7].d[ 27] =         0.164171490065;
  BAS[ATNO][  7].a[ 28] =       750.222000000000;     BAS[ATNO][  7].d[ 28] =        -0.000008405558;
  BAS[ATNO][  7].a[ 29] =       163.961000000000;     BAS[ATNO][  7].d[ 29] =        -0.000079852745;
  BAS[ATNO][  7].a[ 30] =        16.922700000000;     BAS[ATNO][  7].d[ 30] =        -0.014305724656;
  BAS[ATNO][  7].a[ 31] =        10.575500000000;     BAS[ATNO][  7].d[ 31] =         0.048867779639;
  BAS[ATNO][  7].a[ 32] =         5.704620000000;     BAS[ATNO][  7].d[ 32] =        -0.003669023568;
  BAS[ATNO][  7].a[ 33] =         2.980220000000;     BAS[ATNO][  7].d[ 33] =        -0.092814633771;
  BAS[ATNO][  7].a[ 34] =         1.519700000000;     BAS[ATNO][  7].d[ 34] =        -0.122867109965;
  BAS[ATNO][  7].a[ 35] =       750.222000000000;     BAS[ATNO][  7].d[ 35] =         0.000081532622;
  BAS[ATNO][  7].a[ 36] =       163.961000000000;     BAS[ATNO][  7].d[ 36] =         0.000774559341;
  BAS[ATNO][  7].a[ 37] =        16.922700000000;     BAS[ATNO][  7].d[ 37] =         0.138763328307;
  BAS[ATNO][  7].a[ 38] =        10.575500000000;     BAS[ATNO][  7].d[ 38] =        -0.474009944475;
  BAS[ATNO][  7].a[ 39] =         5.704620000000;     BAS[ATNO][  7].d[ 39] =         0.035588964151;
  BAS[ATNO][  7].a[ 40] =         2.980220000000;     BAS[ATNO][  7].d[ 40] =         0.900287668589;
  BAS[ATNO][  7].a[ 41] =         1.519700000000;     BAS[ATNO][  7].d[ 41] =         1.191792064271;
  BAS[ATNO][  7].a[ 42] =         0.756049000000;     BAS[ATNO][  7].d[ 42] =        -0.156842581214;
  BAS[ATNO][  7].a[ 43] =         0.756049000000;     BAS[ATNO][  7].d[ 43] =         0.117382102493;

  // Basis function   9 L = p
  InitBFNGauss(BAS[ATNO][  8]);
  BAS[ATNO][  8].l  = 1;
  BAS[ATNO][  8].ng = 44;
  BAS[ATNO][  8].a[  0] =       750.222000000000;     BAS[ATNO][  8].d[  0] =        -0.000020369304;
  BAS[ATNO][  8].a[  1] =       163.961000000000;     BAS[ATNO][  8].d[  1] =        -0.000160604201;
  BAS[ATNO][  8].a[  2] =        16.922700000000;     BAS[ATNO][  8].d[  2] =        -0.032664153219;
  BAS[ATNO][  8].a[  3] =        10.575500000000;     BAS[ATNO][  8].d[  3] =         0.105063353576;
  BAS[ATNO][  8].a[  4] =         5.704620000000;     BAS[ATNO][  8].d[  4] =         0.008982867374;
  BAS[ATNO][  8].a[  5] =         2.980220000000;     BAS[ATNO][  8].d[  5] =        -0.194114859667;
  BAS[ATNO][  8].a[  6] =         1.519700000000;     BAS[ATNO][  8].d[  6] =        -0.201547308886;
  BAS[ATNO][  8].a[  7] =       750.222000000000;     BAS[ATNO][  8].d[  7] =        -0.000027216830;
  BAS[ATNO][  8].a[  8] =       163.961000000000;     BAS[ATNO][  8].d[  8] =        -0.000214594338;
  BAS[ATNO][  8].a[  9] =        16.922700000000;     BAS[ATNO][  8].d[  9] =        -0.043644825498;
  BAS[ATNO][  8].a[ 10] =        10.575500000000;     BAS[ATNO][  8].d[ 10] =         0.140382385003;
  BAS[ATNO][  8].a[ 11] =         5.704620000000;     BAS[ATNO][  8].d[ 11] =         0.012002627969;
  BAS[ATNO][  8].a[ 12] =         2.980220000000;     BAS[ATNO][  8].d[ 12] =        -0.259370237455;
  BAS[ATNO][  8].a[ 13] =         1.519700000000;     BAS[ATNO][  8].d[ 13] =        -0.269301244911;
  BAS[ATNO][  8].a[ 14] =        16.922700000000;     BAS[ATNO][  8].d[ 14] =         0.000000007662;
  BAS[ATNO][  8].a[ 15] =        10.575500000000;     BAS[ATNO][  8].d[ 15] =        -0.000000024646;
[...]
  BAS[ATNO][  9].a[ 43] =         0.756049000000;     BAS[ATNO][  9].d[ 43] =         0.030517117623;

  // Basis function  11 L = p
  InitBFNGauss(BAS[ATNO][ 10]);
  BAS[ATNO][ 10].l  = 1;
  BAS[ATNO][ 10].ng = 44;
  BAS[ATNO][ 10].a[  0] =       750.222000000000;     BAS[ATNO][ 10].d[  0] =        -0.000003311951;
  BAS[ATNO][ 10].a[  1] =       163.961000000000;     BAS[ATNO][ 10].d[  1] =        -0.000026113474;
  BAS[ATNO][ 10].a[  2] =        16.922700000000;     BAS[ATNO][ 10].d[  2] =        -0.005311034794;
  BAS[ATNO][ 10].a[  3] =        10.575500000000;     BAS[ATNO][ 10].d[  3] =         0.017082797851;
  BAS[ATNO][ 10].a[  4] =         5.704620000000;     BAS[ATNO][ 10].d[  4] =         0.001460571191;
  BAS[ATNO][ 10].a[  5] =         2.980220000000;     BAS[ATNO][ 10].d[  5] =        -0.031562146027;
  BAS[ATNO][ 10].a[  6] =         1.519700000000;     BAS[ATNO][ 10].d[  6] =        -0.032770626655;
  BAS[ATNO][ 10].a[  7] =       750.222000000000;     BAS[ATNO][ 10].d[  7] =         0.000002478688;
  BAS[ATNO][ 10].a[  8] =       163.961000000000;     BAS[ATNO][ 10].d[  8] =         0.000019543509;
  BAS[ATNO][ 10].a[  9] =        16.922700000000;     BAS[ATNO][ 10].d[  9] =         0.003974816187;
  BAS[ATNO][ 10].a[ 10] =        10.575500000000;     BAS[ATNO][ 10].d[ 10] =        -0.012784887323;
  BAS[ATNO][ 10].a[ 11] =         5.704620000000;     BAS[ATNO][ 10].d[ 11] =        -0.001093101860;
  BAS[ATNO][ 10].a[ 12] =         2.980220000000;     BAS[ATNO][ 10].d[ 12] =         0.023621334406;
  BAS[ATNO][ 10].a[ 13] =         1.519700000000;     BAS[ATNO][ 10].d[ 13] =         0.024525769897;
  BAS[ATNO][ 10].a[ 14] =       750.222000000000;     BAS[ATNO][ 10].d[ 14] =        -0.000024042891;
  BAS[ATNO][ 10].a[ 15] =       163.961000000000;     BAS[ATNO][ 10].d[ 15] =        -0.000189569033;
  BAS[ATNO][ 10].a[ 16] =        16.922700000000;     BAS[ATNO][ 10].d[ 16] =        -0.038555105507;
  BAS[ATNO][ 10].a[ 17] =        10.575500000000;     BAS[ATNO][ 10].d[ 17] =         0.124011440151;
  BAS[ATNO][ 10].a[ 18] =         5.704620000000;     BAS[ATNO][ 10].d[ 18] =         0.010602919875;
  BAS[ATNO][ 10].a[ 19] =         2.980220000000;     BAS[ATNO][ 10].d[ 19] =        -0.229123309725;
  BAS[ATNO][ 10].a[ 20] =         1.519700000000;     BAS[ATNO][ 10].d[ 20] =        -0.237896194847;
  BAS[ATNO][ 10].a[ 21] =       750.222000000000;     BAS[ATNO][ 10].d[ 21] =         0.000004573241;
  BAS[ATNO][ 10].a[ 22] =       163.961000000000;     BAS[ATNO][ 10].d[ 22] =         0.000043445753;
  BAS[ATNO][ 10].a[ 23] =        16.922700000000;     BAS[ATNO][ 10].d[ 23] =         0.007783364051;
  BAS[ATNO][ 10].a[ 24] =        10.575500000000;     BAS[ATNO][ 10].d[ 24] =        -0.026587658330;
  BAS[ATNO][ 10].a[ 25] =         5.704620000000;     BAS[ATNO][ 10].d[ 25] =         0.001996218076;
  BAS[ATNO][ 10].a[ 26] =         2.980220000000;     BAS[ATNO][ 10].d[ 26] =         0.050497972057;
  BAS[ATNO][ 10].a[ 27] =         1.519700000000;     BAS[ATNO][ 10].d[ 27] =         0.066848724534;
  BAS[ATNO][ 10].a[ 28] =       750.222000000000;     BAS[ATNO][ 10].d[ 28] =        -0.000003422646;
  BAS[ATNO][ 10].a[ 29] =       163.961000000000;     BAS[ATNO][ 10].d[ 29] =        -0.000032515111;
  BAS[ATNO][ 10].a[ 30] =        16.922700000000;     BAS[ATNO][ 10].d[ 30] =        -0.005825124974;
  BAS[ATNO][ 10].a[ 31] =        10.575500000000;     BAS[ATNO][ 10].d[ 31] =         0.019898392458;
  BAS[ATNO][ 10].a[ 32] =         5.704620000000;     BAS[ATNO][ 10].d[ 32] =        -0.001493983795;
  BAS[ATNO][ 10].a[ 33] =         2.980220000000;     BAS[ATNO][ 10].d[ 33] =        -0.037793041187;
  BAS[ATNO][ 10].a[ 34] =         1.519700000000;     BAS[ATNO][ 10].d[ 34] =        -0.050030060550;
  BAS[ATNO][ 10].a[ 35] =       750.222000000000;     BAS[ATNO][ 10].d[ 35] =         0.000033199137;
  BAS[ATNO][ 10].a[ 36] =       163.961000000000;     BAS[ATNO][ 10].d[ 36] =         0.000315391570;
  BAS[ATNO][ 10].a[ 37] =        16.922700000000;     BAS[ATNO][ 10].d[ 37] =         0.056502816084;
  BAS[ATNO][ 10].a[ 38] =        10.575500000000;     BAS[ATNO][ 10].d[ 38] =        -0.193011345587;
  BAS[ATNO][ 10].a[ 39] =         5.704620000000;     BAS[ATNO][ 10].d[ 39] =         0.014491412973;
  BAS[ATNO][ 10].a[ 40] =         2.980220000000;     BAS[ATNO][ 10].d[ 40] =         0.366586685270;
  BAS[ATNO][ 10].a[ 41] =         1.519700000000;     BAS[ATNO][ 10].d[ 41] =         0.485283890489;
  BAS[ATNO][ 10].a[ 42] =         0.756049000000;     BAS[ATNO][ 10].d[ 42] =        -0.063828204297;
  BAS[ATNO][ 10].a[ 43] =         0.756049000000;     BAS[ATNO][ 10].d[ 43] =         0.047769481737;

  // Basis function  12 L = p
  InitBFNGauss(BAS[ATNO][ 11]);
  BAS[ATNO][ 11].l  = 1;
  BAS[ATNO][ 11].ng = 44;
  BAS[ATNO][ 11].a[  0] =       750.222000000000;     BAS[ATNO][ 11].d[  0] =        -0.000016030377;
  BAS[ATNO][ 11].a[  1] =       163.961000000000;     BAS[ATNO][ 11].d[  1] =        -0.000126393417;
  BAS[ATNO][ 11].a[  2] =        16.922700000000;     BAS[ATNO][ 11].d[  2] =        -0.025706263530;
  BAS[ATNO][ 11].a[  3] =        10.575500000000;     BAS[ATNO][ 11].d[  3] =         0.082683492092;
  BAS[ATNO][ 11].a[  4] =         5.704620000000;     BAS[ATNO][ 11].d[  4] =         0.007069399731;
  BAS[ATNO][ 11].a[  5] =         2.980220000000;     BAS[ATNO][ 11].d[  5] =        -0.152765868574;
  BAS[ATNO][ 11].a[  6] =         1.519700000000;     BAS[ATNO][ 11].d[  6] =        -0.158615109391;
  BAS[ATNO][ 11].a[  7] =       750.222000000000;     BAS[ATNO][ 11].d[  7] =         0.000011997248;
  BAS[ATNO][ 11].a[  8] =       163.961000000000;     BAS[ATNO][ 11].d[  8] =         0.000094593731;
  BAS[ATNO][ 11].a[  9] =        16.922700000000;     BAS[ATNO][ 11].d[  9] =         0.019238750327;
  BAS[ATNO][ 11].a[ 10] =        10.575500000000;     BAS[ATNO][ 11].d[ 10] =        -0.061880913135;
  BAS[ATNO][ 11].a[ 11] =         5.704620000000;     BAS[ATNO][ 11].d[ 11] =        -0.005290789003;
  BAS[ATNO][ 11].a[ 12] =         2.980220000000;     BAS[ATNO][ 11].d[ 12] =         0.114331061787;
  BAS[ATNO][ 11].a[ 13] =         1.519700000000;     BAS[ATNO][ 11].d[ 13] =         0.118708675187;
  BAS[ATNO][ 11].a[ 14] =       750.222000000000;     BAS[ATNO][ 11].d[ 14] =        -0.000116371462;
  BAS[ATNO][ 11].a[ 15] =       163.961000000000;     BAS[ATNO][ 11].d[ 15] =        -0.000917544641;
  BAS[ATNO][ 11].a[ 16] =        16.922700000000;     BAS[ATNO][ 11].d[ 16] =        -0.186612918417;
  BAS[ATNO][ 11].a[ 17] =        10.575500000000;     BAS[ATNO][ 11].d[ 17] =         0.600235337433;
  BAS[ATNO][ 11].a[ 18] =         5.704620000000;     BAS[ATNO][ 11].d[ 18] =         0.051319839372;
  BAS[ATNO][ 11].a[ 19] =         2.980220000000;     BAS[ATNO][ 11].d[ 19] =        -1.108993710250;
  BAS[ATNO][ 11].a[ 20] =         1.519700000000;     BAS[ATNO][ 11].d[ 20] =        -1.151455886764;
  BAS[ATNO][ 11].a[ 21] =       750.222000000000;     BAS[ATNO][ 11].d[ 21] =         0.000019948779;
  BAS[ATNO][ 11].a[ 22] =       163.961000000000;     BAS[ATNO][ 11].d[ 22] =         0.000189513259;
  BAS[ATNO][ 11].a[ 23] =        16.922700000000;     BAS[ATNO][ 11].d[ 23] =         0.033951550413;
  BAS[ATNO][ 11].a[ 24] =        10.575500000000;     BAS[ATNO][ 11].d[ 24] =        -0.115977129712;
  BAS[ATNO][ 11].a[ 25] =         5.704620000000;     BAS[ATNO][ 11].d[ 25] =         0.008707635694;
  BAS[ATNO][ 11].a[ 26] =         2.980220000000;     BAS[ATNO][ 11].d[ 26] =         0.220275504627;
  BAS[ATNO][ 11].a[ 27] =         1.519700000000;     BAS[ATNO][ 11].d[ 27] =         0.291598571798;
  BAS[ATNO][ 11].a[ 28] =       750.222000000000;     BAS[ATNO][ 11].d[ 28] =        -0.000014929808;
  BAS[ATNO][ 11].a[ 29] =       163.961000000000;     BAS[ATNO][ 11].d[ 29] =        -0.000141833070;
  BAS[ATNO][ 11].a[ 30] =        16.922700000000;     BAS[ATNO][ 11].d[ 30] =        -0.025409581632;
  BAS[ATNO][ 11].a[ 31] =        10.575500000000;     BAS[ATNO][ 11].d[ 31] =         0.086798108156;
  BAS[ATNO][ 11].a[ 32] =         5.704620000000;     BAS[ATNO][ 11].d[ 32] =        -0.006516856441;
  BAS[ATNO][ 11].a[ 33] =         2.980220000000;     BAS[ATNO][ 11].d[ 33] =        -0.164855753219;
  BAS[ATNO][ 11].a[ 34] =         1.519700000000;     BAS[ATNO][ 11].d[ 34] =        -0.218234443601;
  BAS[ATNO][ 11].a[ 35] =       750.222000000000;     BAS[ATNO][ 11].d[ 35] =         0.000144816838;
  BAS[ATNO][ 11].a[ 36] =       163.961000000000;     BAS[ATNO][ 11].d[ 36] =         0.001375758956;
  BAS[ATNO][ 11].a[ 37] =        16.922700000000;     BAS[ATNO][ 11].d[ 37] =         0.246469032731;
  BAS[ATNO][ 11].a[ 38] =        10.575500000000;     BAS[ATNO][ 11].d[ 38] =        -0.841928295790;
  BAS[ATNO][ 11].a[ 39] =         5.704620000000;     BAS[ATNO][ 11].d[ 39] =         0.063212504897;
  BAS[ATNO][ 11].a[ 40] =         2.980220000000;     BAS[ATNO][ 11].d[ 40] =         1.599075444242;
  BAS[ATNO][ 11].a[ 41] =         1.519700000000;     BAS[ATNO][ 11].d[ 41] =         2.116840528989;
  BAS[ATNO][ 11].a[ 42] =         0.756049000000;     BAS[ATNO][ 11].d[ 42] =        -0.520041310103;
  BAS[ATNO][ 11].a[ 43] =         0.756049000000;     BAS[ATNO][ 11].d[ 43] =         0.389202612552;

  // Basis function  13 L = p
  InitBFNGauss(BAS[ATNO][ 12]);
  BAS[ATNO][ 12].l  = 1;
  BAS[ATNO][ 12].ng = 44;
  BAS[ATNO][ 12].a[  0] =       750.222000000000;     BAS[ATNO][ 12].d[  0] =        -0.000208075702;
  BAS[ATNO][ 12].a[  1] =       163.961000000000;     BAS[ATNO][ 12].d[  1] =        -0.001640597631;
  BAS[ATNO][ 12].a[  2] =        16.922700000000;     BAS[ATNO][ 12].d[  2] =        -0.333669554895;
  BAS[ATNO][ 12].a[  3] =        10.575500000000;     BAS[ATNO][ 12].d[  3] =         1.073238978162;
  BAS[ATNO][ 12].a[  4] =         5.704620000000;     BAS[ATNO][ 12].d[  4] =         0.091761428447;
  BAS[ATNO][ 12].a[  5] =         2.980220000000;     BAS[ATNO][ 12].d[  5] =        -1.982914370666;
  BAS[ATNO][ 12].a[  6] =         1.519700000000;     BAS[ATNO][ 12].d[  6] =        -2.058838029421;
  BAS[ATNO][ 12].a[  7] =       750.222000000000;     BAS[ATNO][ 12].d[  7] =         0.000155725344;
  BAS[ATNO][ 12].a[  8] =       163.961000000000;     BAS[ATNO][ 12].d[  8] =         0.001227835001;
  BAS[ATNO][ 12].a[  9] =        16.922700000000;     BAS[ATNO][ 12].d[  9] =         0.249720681282;
  BAS[ATNO][ 12].a[ 10] =        10.575500000000;     BAS[ATNO][ 12].d[ 10] =        -0.803219727042;
  BAS[ATNO][ 12].a[ 11] =         5.704620000000;     BAS[ATNO][ 12].d[ 11] =        -0.068674909326;
  BAS[ATNO][ 12].a[ 12] =         2.980220000000;     BAS[ATNO][ 12].d[ 12] =         1.484027296774;
  BAS[ATNO][ 12].a[ 13] =         1.519700000000;     BAS[ATNO][ 12].d[ 13] =         1.540849105990;
  BAS[ATNO][ 12].a[ 14] =       750.222000000000;     BAS[ATNO][ 12].d[ 14] =        -0.001510511748;
  BAS[ATNO][ 12].a[ 15] =       163.961000000000;     BAS[ATNO][ 12].d[ 15] =        -0.011909809607;
  BAS[ATNO][ 12].a[ 16] =        16.922700000000;     BAS[ATNO][ 12].d[ 16] =        -2.422251986242;
  BAS[ATNO][ 12].a[ 17] =        10.575500000000;     BAS[ATNO][ 12].d[ 17] =         7.791107125085;
  BAS[ATNO][ 12].a[ 18] =         5.704620000000;     BAS[ATNO][ 12].d[ 18] =         0.666135999090;
  BAS[ATNO][ 12].a[ 19] =         2.980220000000;     BAS[ATNO][ 12].d[ 19] =       -14.394835256720;
  BAS[ATNO][ 12].a[ 20] =         1.519700000000;     BAS[ATNO][ 12].d[ 20] =       -14.945998017971;
  BAS[ATNO][ 12].a[ 21] =       750.222000000000;     BAS[ATNO][ 12].d[ 21] =         0.000151082340;
  BAS[ATNO][ 12].a[ 22] =       163.961000000000;     BAS[ATNO][ 12].d[ 22] =         0.001435281180;
  BAS[ATNO][ 12].a[ 23] =        16.922700000000;     BAS[ATNO][ 12].d[ 23] =         0.257132517630;
  BAS[ATNO][ 12].a[ 24] =        10.575500000000;     BAS[ATNO][ 12].d[ 24] =        -0.878354331018;
  BAS[ATNO][ 12].a[ 25] =         5.704620000000;     BAS[ATNO][ 12].d[ 25] =         0.065947394485;
  BAS[ATNO][ 12].a[ 26] =         2.980220000000;     BAS[ATNO][ 12].d[ 26] =         1.668259457601;
  BAS[ATNO][ 12].a[ 27] =         1.519700000000;     BAS[ATNO][ 12].d[ 27] =         2.208425653358;
  BAS[ATNO][ 12].a[ 28] =       750.222000000000;     BAS[ATNO][ 12].d[ 28] =        -0.000113071104;
  BAS[ATNO][ 12].a[ 29] =       163.961000000000;     BAS[ATNO][ 12].d[ 29] =        -0.001074174700;
  BAS[ATNO][ 12].a[ 30] =        16.922700000000;     BAS[ATNO][ 12].d[ 30] =        -0.192439815202;
  BAS[ATNO][ 12].a[ 31] =        10.575500000000;     BAS[ATNO][ 12].d[ 31] =         0.657366663308;
  BAS[ATNO][ 12].a[ 32] =         5.704620000000;     BAS[ATNO][ 12].d[ 32] =        -0.049355501687;
  BAS[ATNO][ 12].a[ 33] =         2.980220000000;     BAS[ATNO][ 12].d[ 33] =        -1.248537309430;
  BAS[ATNO][ 12].a[ 34] =         1.519700000000;     BAS[ATNO][ 12].d[ 34] =        -1.652801553593;
  BAS[ATNO][ 12].a[ 35] =       750.222000000000;     BAS[ATNO][ 12].d[ 35] =         0.001096772217;
  BAS[ATNO][ 12].a[ 36] =       163.961000000000;     BAS[ATNO][ 12].d[ 36] =         0.010419328455;
  BAS[ATNO][ 12].a[ 37] =        16.922700000000;     BAS[ATNO][ 12].d[ 37] =         1.866636444411;
  BAS[ATNO][ 12].a[ 38] =        10.575500000000;     BAS[ATNO][ 12].d[ 38] =        -6.376354964725;
  BAS[ATNO][ 12].a[ 39] =         5.704620000000;     BAS[ATNO][ 12].d[ 39] =         0.478740732969;
  BAS[ATNO][ 12].a[ 40] =         2.980220000000;     BAS[ATNO][ 12].d[ 40] =        12.110618800727;
  BAS[ATNO][ 12].a[ 41] =         1.519700000000;     BAS[ATNO][ 12].d[ 41] =        16.031919444972;
  BAS[ATNO][ 12].a[ 42] =         0.756049000000;     BAS[ATNO][ 12].d[ 42] =         0.000882963587;
  BAS[ATNO][ 12].a[ 43] =         0.756049000000;     BAS[ATNO][ 12].d[ 43] =        -0.000660816262;

-------------------------------------------
RADIAL EXPECTATION VALUES <R**-3> TO <R**3>
-------------------------------------------
   0 :     0.000000     2.418393     1.465862     0.741539     0.596019     0.528466
   1 :     3.717437     2.154825     1.399316     0.780179     0.662570     0.622407
   2 :     3.717437     2.154825     1.399316     0.780179     0.662570     0.622407
   3 :     3.719483     2.155613     1.399582     0.780010     0.662281     0.622147
   4 :     0.000000     0.845513     0.789541     1.480920     2.420840     4.305624
   5 :     0.972006     0.699588     0.730323     1.609204     2.866277     5.534618
   6 :     0.972006     0.699588     0.730323     1.609204     2.866277     5.534618
   7 :     0.000000     0.225212     0.379284     3.167062    11.136428    42.548383
   8 :     0.000000     0.056277     0.177800     6.704210    48.700780   373.780800
   9 :     0.000000     0.127601     0.262917     5.221350    33.537007   249.497854
  10 :     0.000000     0.559276     0.540096     2.961961    12.560593    71.300507
  11 :     0.979202     0.703453     0.732460     1.604104     2.846930     5.474478
  12 :     0.181510     0.171442     0.334425     3.609924    14.532318    63.900489
  13 :     0.184337     0.173152     0.335633     3.600895    14.454929    63.320494
  14 :     0.184337     0.173152     0.335633     3.600895    14.454929    63.320494
  15 :     0.018905     0.027628     0.133334     8.515640    77.305969   736.695528
  16 :     0.018905     0.027628     0.133334     8.515640    77.305969   736.695528
  17 :     0.019094     0.027721     0.133291     8.526316    77.503549   739.423535
  18 :     0.096603     0.096671     0.232683     5.865567    42.500782   362.346315
  19 :     0.096603     0.096671     0.232683     5.865567    42.500782   362.346315
  20 :     0.097063     0.097144     0.233440     5.844925    42.215957   359.013359
  21 :     0.736909     0.479896     0.525160     2.993941    13.123514    80.924045
  22 :     0.736909     0.479896     0.525160     2.993941    13.123514    80.924045
  23 :     0.731019     0.476699     0.523327     3.000110    13.152914    81.009037
  24 :    45.251121    10.466171     2.956687     0.426650     0.274325     0.433392
  25 :    45.251121    10.466171     2.956687     0.426650     0.274325     0.433392
  26 :    45.249947    10.465859     2.956610     0.426686     0.274418     0.433754
  27 :     0.000000    21.024251     3.832949     0.389875     0.387130     1.398445
Making the total density                ... o.k.
o.k.
Initializing the integrals              ... done
Making exponents                        ... done
Making rho(0)                           ... done (         0.830208966)
Integral calculation                    ... Two index integrals                     ... done
Solving the equation system             ... done
atomic density will be written to file 52_Te_atom52.adf

-------
TIMINGS
-------

Total SCF time: 0 days 0 hours 0 min 0 sec 

Total time                  ....       0.587 sec
Sum of individual times     ....       0.216 sec  ( 36.9%)

Fock matrix formation       ....       0.180 sec  ( 30.6%)
Diagonalization             ....       0.034 sec  (  5.7%)
Density matrix formation    ....       0.000 sec  (  0.1%)
Population analysis         ....       0.000 sec  (  0.0%)
Initial guess               ....       0.000 sec  (  0.0%)
Orbital Transformation      ....       0.000 sec  (  0.0%)
Orbital Orthonormalization  ....       0.000 sec  (  0.0%)
DIIS solution               ....       0.003 sec  (  0.4%)

-------------------------   --------------------
FINAL SINGLE POINT ENERGY      -234.462508907176
-------------------------   --------------------


                            ***************************************
                            *     ORCA property calculations      *
                            ***************************************

                                    ---------------------
                                    Active property flags
                                    ---------------------
   (+) Dipole Moment


------------------------------------------------------------------------------
                       ORCA ELECTRIC PROPERTIES CALCULATION
------------------------------------------------------------------------------

Dipole Moment Calculation                       ... on
Quadrupole Moment Calculation                   ... off
Polarizability Calculation                      ... off
GBWName                                         ... 52_Te_atom52.gbw
Electron density file                           ... 52_Te_atom52.scfp
The origin for moment calculation is the CENTER OF MASS  = ( 0.000000,  0.000000  0.000000)

-------------
DIPOLE MOMENT
-------------
                                X             Y             Z
Electronic contribution:     -0.00000      -0.00000       0.00000
Nuclear contribution   :      0.00000       0.00000       0.00000
                        -----------------------------------------
Total Dipole Moment    :     -0.00000      -0.00000       0.00000
                        -----------------------------------------
Magnitude (a.u.)       :      0.00000
Magnitude (Debye)      :      0.00000



--------------------
Rotational spectrum 
--------------------
 
Rotational constants in cm-1:     0.000000     0.000000     0.000000 
Rotational constants in MHz :     0.000000     0.000000     0.000000 

 Dipole components along the rotational axes: 
x,y,z [a.u.] :    -0.000000    -0.000000     0.000000 
x,y,z [Debye]:    -0.000000    -0.000000     0.000000 

 

Timings for individual modules:

Sum of individual times         ...        0.938 sec (=   0.016 min)
GTO integral calculation        ...        0.327 sec (=   0.005 min)  34.8 %
SCF iterations                  ...        0.611 sec (=   0.010 min)  65.2 %
                             ****ORCA TERMINATED NORMALLY****
TOTAL RUN TIME: 0 days 0 hours 0 minutes 1 seconds 155 msec
