
                                 *****************
                                 * O   R   C   A *
                                 *****************

           --- An Ab Initio, DFT and Semiempirical electronic structure package ---

                  #######################################################
                  #                        -***-                        #
                  #          Department of theory and spectroscopy      #
                  #               Directorship: Frank Neese             #
                  #        Max Planck Institute fuer Kohlenforschung    #
                  #                Kaiser Wilhelm Platz 1               #
                  #                 D-45470 Muelheim/Ruhr               #
                  #                      Germany                        #
                  #                                                     #
                  #                  All rights reserved                #
                  #                        -***-                        #
                  #######################################################


                         Program Version 4.2.0 -  RELEASE  -


 With contributions from (in alphabetic order):
   Daniel Aravena         : Magnetic Suceptibility
   Michael Atanasov       : Ab Initio Ligand Field Theory (pilot matlab implementation)
   Alexander A. Auer      : GIAO ZORA, VPT2
   Ute Becker             : Parallelization
   Giovanni Bistoni       : ED, misc. LED, open-shell LED, HFLED
   Martin Brehm           : Molecular dynamics
   Dmytro Bykov           : SCF Hessian
   Vijay G. Chilkuri      : MRCI spin determinant printing, contributions to CSF-ICE
   Dipayan Datta          : RHF DLPNO-CCSD density
   Achintya Kumar Dutta   : EOM-CC, STEOM-CC
   Dmitry Ganyushin       : Spin-Orbit,Spin-Spin,Magnetic field MRCI
   Miquel Garcia          : C-PCM Hessian, Gaussian charge scheme
   Yang Guo               : DLPNO-NEVPT2, CIM, IAO-localization
   Andreas Hansen         : Spin unrestricted coupled pair/coupled cluster methods
   Benjamin Helmich-Paris : CASSCF linear response (MC-RPA)
   Lee Huntington         : MR-EOM, pCC
   Robert Izsak           : Overlap fitted RIJCOSX, COSX-SCS-MP3, EOM
   Christian Kollmar      : KDIIS, OOCD, Brueckner-CCSD(T), CCSD density
   Simone Kossmann        : Meta GGA functionals, TD-DFT gradient, OOMP2, MP2 Hessian
   Martin Krupicka        : AUTO-CI
   Lucas Lang             : DCDCAS
   Dagmar Lenk            : GEPOL surface, SMD
   Dimitrios Liakos       : Extrapolation schemes; Compound Job, initial MDCI parallelization
   Dimitrios Manganas     : Further ROCIS development; embedding schemes
   Dimitrios Pantazis     : SARC Basis sets
   Taras Petrenko         : DFT Hessian,TD-DFT gradient, ASA, ECA, R-Raman, ABS, FL, XAS/XES, NRVS
   Peter Pinski           : DLPNO-MP2, DLPNO-MP2 Gradient
   Christoph Reimann      : Effective Core Potentials
   Marius Retegan         : Local ZFS, SOC
   Christoph Riplinger    : Optimizer, TS searches, QM/MM, DLPNO-CCSD(T), (RO)-DLPNO pert. Triples
   Tobias Risthaus        : Range-separated hybrids, TD-DFT gradient, RPA, STAB
   Michael Roemelt        : Original ROCIS implementation
   Masaaki Saitow         : Open-shell DLPNO-CCSD energy and density
   Barbara Sandhoefer     : DKH picture change effects
   Avijit Sen             : IP-ROCIS
   Kantharuban Sivalingam : CASSCF convergence, NEVPT2, FIC-MRCI
   Bernardo de Souza      : ESD, SOC TD-DFT
   Georgi Stoychev        : AutoAux, RI-MP2 NMR
   Willem Van den Heuvel  : Paramagnetic NMR
   Boris Wezisla          : Elementary symmetry handling
   Frank Wennmohs         : Technical directorship


 We gratefully acknowledge several colleagues who have allowed us to
 interface, adapt or use parts of their codes:
   Stefan Grimme, W. Hujo, H. Kruse,             : VdW corrections, initial TS optimization,
                  C. Bannwarth                     DFT functionals, gCP, sTDA/sTD-DF
   Ed Valeev, F. Pavosevic, A. Kumar             : LibInt (2-el integral package), F12 methods
   Garnet Chan, S. Sharma, J. Yang, R. Olivares  : DMRG
   Ulf Ekstrom                                   : XCFun DFT Library
   Mihaly Kallay                                 : mrcc  (arbitrary order and MRCC methods)
   Andreas Klamt, Michael Diedenhofen            : otool_cosmo (COSMO solvation model)
   Jiri Pittner, Ondrej Demel                    : Mk-CCSD
   Frank Weinhold                                : gennbo (NPA and NBO analysis)
   Christopher J. Cramer and Donald G. Truhlar   : smd solvation model
   Lars Goerigk                                  : TD-DFT with DH, B97 family of functionals
   V. Asgeirsson, H. Jonsson                     : NEB implementation
   FAccTs GmbH                                   : IRC, NEB, NEB-TS, Multilevel, MM, QM/MM, CI optimization
   S Lehtola, MJT Oliveira, MAL Marques          : LibXC Library


 Your calculation uses the libint2 library for the computation of 2-el integrals
 For citations please refer to: http://libint.valeyev.net

 Your ORCA version has been built with support for libXC version: 4.2.3
 For citations please refer to: https://tddft.org/programs/libxc/

 This ORCA versions uses:
   CBLAS   interface :  Fast vector & matrix operations
   LAPACKE interface :  Fast linear algebra routines
   SCALAPACK package :  Parallel linear algebra routines


----- Orbital basis set information -----
Your calculation utilizes the basis: aug-cc-pVQZ-PP 
       Ca, Sr, Ba, Ra : Obtained from the Peterson Research Group Website (tyr0.chem.wsu.edu/~kipeters) Feb. 2017
                        H. Li, H. Feng, W. Sun, Y. Zhang, Q. Fan, K. A. Peterson, Y. Xie, H. F. Schaefer III, Mol. Phys. 111, 2292 (2013)
  Cu-Zn, Ag-Cd, Au-Hg : Obtained from the ccRepo (grant-hill.group.shef.ac.uk/ccrepo) Feb. 2017
                        K. A. Peterson, C. Puzzarini, Theor. Chem. Acc. 114, 283 (2005)
  Ga-Kr, In-Xe, Tl-Rn : Obtained from the ccRepo (grant-hill.group.shef.ac.uk/ccrepo) Feb. 2017
                        K. A. Peterson, J. Chem. Phys. 119, 11099 (2003)
                        K. A. Peterson, D. Figgen, E. Goll, H. Stoll, M. Dolg, J. Chem. Phys. 119, 11113 (2003)
                 Y-Pd : Obtained from the ccRepo (grant-hill.group.shef.ac.uk/ccrepo) Feb. 2017
                        K. A. Peterson, D. Figgen, M. Dolg, H. Stoll, J. Chem. Phys. 126, 124101 (2007)
                Hf-Pt : Obtained from the ccRepo (grant-hill.group.shef.ac.uk/ccrepo) Feb. 2017
                        D. Figgen, K. A. Peterson, M. Dolg, H. Stoll, J. Chem. Phys. 130, 164108 (2009)

cite the ECPs for Xe [SK MCDHF RSC] as follows:
O: B. Metz and H. Stoll, private communication (KAP)
Tl: B. Metz, M. Schweizer, H. Stoll, M. Dolg, W. Liu, Theor. Chem. Acc. 104, 22 (2000)
Ga-As, In-Sb, Pb-Bi: B. Metz, H. Stoll, M. Dolg, J. Chem. Phys. 113, 2563 (2000)
Se-Kr, Te-Xe, Po-Rn: K.A. Peterson, D. Figgen, E. Goll, H. Stoll, and M. Dolg, J. Chem. Phys., in press (2003)
Cu-Zn, Ag-Cd, Au-Hg: D. Figgen, G. Rauhut, M. Dolg, and H. Stoll, Chem. Phys. 311, 227 (2005)
Y-Pd: K.A. Peterson, D. Figgen, M. Dolg, H. Stoll, J. Chem. Phys. 126, 124101 (2007)
I: K. A. Peterson, B. C. Shepler, D. Figgen, H. Stoll, J. Phys. Chem. A 110, 13877 (2006)
Hf-Pt: D. Figgen, K.A. Peterson, M. Dolg, H. Stoll, J. Chem. Phys. 130, 164108 (2009)
Ca, Sr, Ba, Ra: I.S. Lim, H. Stoll, P. Schwerdtfeger, J. Chem. Phys. 124, 034107 (2006)

ECP parameters for Xe [SK MCDHF RSC] have been obtained from:
cc-pVDZ-PP  EMSL  Basis Set Exchange Library   4/7/16 5:27 AM
Ca, Sr, Ba, Ra: http://www.tc.uni-koeln.de/PP/index.en.html 3/16/17 1:54 PM

================================================================================
                                        WARNINGS
                       Please study these warnings very carefully!
================================================================================


WARNING: MDCI localization with Augmented Hessian Foster-Boys
  ===> : Switching off randomization!

WARNING: Post HF methods need fully converged wavefunctions
  ===> : Setting SCFConvForced true
         You can overwrite this default with %scf ConvForced false 


INFO   : the flag for use of LIBINT has been found!

================================================================================
                                       INPUT FILE
================================================================================
NAME = 54_Xe.in
|  1> #
|  2> # 54_Xe CCSD(T)/aug-cc-pVQZ-PP
|  3> #
|  4> ! CCSD(T) aug-cc-pVQZ-PP tightscf
|  5> 
|  6> *xyz 0 1
|  7>  Xe 0.0 0.0 0.0
|  8> *
|  9> 
| 10> %maxcore 5000 
| 11> 
| 12> %pal
| 13> nprocs 24
| 14> end
| 15> 
| 16> 
| 17>                          ****END OF INPUT****
================================================================================

                       ****************************
                       * Single Point Calculation *
                       ****************************

---------------------------------
CARTESIAN COORDINATES (ANGSTROEM)
---------------------------------
  Xe     0.000000    0.000000    0.000000

----------------------------
CARTESIAN COORDINATES (A.U.)
----------------------------
  NO LB      ZA    FRAG     MASS         X           Y           Z
   0 Xe   26.0000*   0   131.300    0.000000    0.000000    0.000000
* core charge reduced due to ECP

--------------------------------
INTERNAL COORDINATES (ANGSTROEM)
--------------------------------
 Xe     0   0   0     0.000000000000     0.00000000     0.00000000

---------------------------
INTERNAL COORDINATES (A.U.)
---------------------------
 Xe     0   0   0     0.000000000000     0.00000000     0.00000000

---------------------
BASIS SET INFORMATION
---------------------
There are 1 groups of distinct atoms

 Group   1 Type Xe  : 25s19p13d3f2g contracted to 7s7p5d3f2g pattern {101011111/7711111/91111/111/11}

Atom   0Xe   basis set group =>   1
-------------------------
ECP PARAMETER INFORMATION
-------------------------

 Group 1, Type Xe ECP SK MCDHF RSC (replacing 28 core electrons, lmax=4)

Atom   0Xe   ECP group =>   1



           ************************************************************
           *        Program running with 24 parallel MPI-processes    *
           *              working on a common directory               *
           ************************************************************
------------------------------------------------------------------------------
                           ORCA GTO INTEGRAL CALCULATION
------------------------------------------------------------------------------

                         BASIS SET STATISTICS AND STARTUP INFO

 # of primitive gaussian shells          ...   62
 # of primitive gaussian functions       ...  186
 # of contracted shells                  ...   24
 # of contracted basis functions         ...   92
 Highest angular momentum                ...    4
 Maximum contraction depth               ...   10
 Integral package used                   ... LIBINT
 Integral threshhold            Thresh   ...  2.500e-11
 Primitive cut-off              TCut     ...  2.500e-12


------------------------------ INTEGRAL EVALUATION ----------------------------


 * One electron integrals 

   ECP integrals                         ... done
 Pre-screening matrix                    ... done
 Shell pair data                         ... done (   0.000 sec)



           ************************************************************
           *        Program running with 24 parallel MPI-processes    *
           *              working on a common directory               *
           ************************************************************
-------------------------------------------------------------------------------
                                 ORCA SCF
-------------------------------------------------------------------------------

------------
SCF SETTINGS
------------
Hamiltonian:
 Ab initio Hamiltonian  Method          .... Hartree-Fock(GTOs)


General Settings:
 Integral files         IntName         .... 54_Xe
 Hartree-Fock type      HFTyp           .... RHF
 Total Charge           Charge          ....    0
 Multiplicity           Mult            ....    1
 Number of Electrons    NEL             ....   26
 Basis Dimension        Dim             ....   92
 Nuclear Repulsion      ENuc            ....      0.0000000000 Eh

Convergence Acceleration:
 DIIS                   CNVDIIS         .... on
   Start iteration      DIISMaxIt       ....    12
   Startup error        DIISStart       ....  0.200000
   # of expansion vecs  DIISMaxEq       ....     5
   Bias factor          DIISBfac        ....   1.050
   Max. coefficient     DIISMaxC        ....  10.000
 Newton-Raphson         CNVNR           .... off
 SOSCF                  CNVSOSCF        .... on
   Start iteration      SOSCFMaxIt      ....   150
   Startup grad/error   SOSCFStart      ....  0.003300
 Level Shifting         CNVShift        .... on
   Level shift para.    LevelShift      ....    0.2500
   Turn off err/grad.   ShiftErr        ....    0.0010
 Zerner damping         CNVZerner       .... off
 Static damping         CNVDamp         .... on
   Fraction old density DampFac         ....    0.7000
   Max. Damping (<1)    DampMax         ....    0.9800
   Min. Damping (>=0)   DampMin         ....    0.0000
   Turn off err/grad.   DampErr         ....    0.1000
 Fernandez-Rico         CNVRico         .... off

SCF Procedure:
 Maximum # iterations   MaxIter         ....   125
 SCF integral mode      SCFMode         .... Direct
   Integral package                     .... LIBINT
 Reset frequency        DirectResetFreq ....    20
 Integral Threshold     Thresh          ....  2.500e-11 Eh
 Primitive CutOff       TCut            ....  2.500e-12 Eh

Convergence Tolerance:
 Convergence Check Mode ConvCheckMode   .... Total+1el-Energy
 Convergence forced     ConvForced      .... 1
 Energy Change          TolE            ....  1.000e-08 Eh
 1-El. energy change                    ....  1.000e-05 Eh
 Orbital Gradient       TolG            ....  1.000e-05
 Orbital Rotation angle TolX            ....  1.000e-05
 DIIS Error             TolErr          ....  5.000e-07


Diagonalization of the overlap matrix:
Smallest eigenvalue                        ... 8.014e-04
Time for diagonalization                   ...    0.002 sec
Threshold for overlap eigenvalues          ... 1.000e-08
Number of eigenvalues below threshold      ... 0
Time for construction of square roots      ...    0.001 sec
Total time needed                          ...    0.003 sec

-------------------
DFT GRID GENERATION
-------------------

General Integration Accuracy     IntAcc      ...  4.340
Radial Grid Type                 RadialGrid  ... Gauss-Chebyshev
Angular Grid (max. acc.)         AngularGrid ... Lebedev-110
Angular grid pruning method      GridPruning ... 3 (G Style)
Weight generation scheme         WeightScheme... Becke
Basis function cutoff            BFCut       ...    1.0000e-11
Integration weight cutoff        WCut        ...    1.0000e-14
Grids for H and He will be reduced by one unit

# of grid points (after initial pruning)     ...   3222 (   0.0 sec)
# of grid points (after weights+screening)   ...   3222 (   0.0 sec)
Grid point division into batches done        ...    0.0 sec
Reduced shell lists constructed in    0.0 sec

Total number of grid points                  ...     3222
Total number of batches                      ...       51
Average number of points per batch           ...       63
Average number of grid points per atom       ...     3222
Average number of shells per batch           ...    12.00 (50.00%)
Average number of basis functions per batch  ...    52.50 (57.07%)
Average number of large shells per batch     ...     9.00 (75.00%)
Average number of large basis fcns per batch ...    37.50 (71.43%)
Maximum spatial batch extension              ...  19.53, 28.74, 28.74 au
Average spatial batch extension              ...   1.08,  1.51,  1.69 au

Time for grid setup =    0.020 sec

------------------------------
INITIAL GUESS: MODEL POTENTIAL
------------------------------
Loading Hartree-Fock densities                     ... done
  calling /sw/apps/orca/orca_4_2_0_linux_x86-64_openmpi314/orca 54_Xe_atom54.inp > 54_Xe_atom54.out in order to generate an atomic fitting density for atom 0 (Xe with ECP) on-the-fly... 
    atom 0 (Xe), assumed electronic state with S=1: 1s2 2s2 2p6 3s2 3p6 4s2 3d10 4p6 5s2 4d10 5p6           ... done
Calculating cut-offs                               ... done
Setting up the integral package                    ... done
Initializing the effective Hamiltonian             ... done
Starting the Coulomb interaction                   ... done (   0.0 sec)
Reading the grid                                   ... done
Mapping shells                                     ... done
Starting the XC term evaluation                    ... done (   0.0 sec)
Transforming the Hamiltonian                       ... done (   0.0 sec)
Diagonalizing the Hamiltonian                      ... done (   0.0 sec)
Back transforming the eigenvectors                 ... done (   0.0 sec)
Now organizing SCF variables                       ... done
                      ------------------
                      INITIAL GUESS DONE (   1.3 sec)
                      ------------------
--------------
SCF ITERATIONS
--------------
ITER       Energy         Delta-E        Max-DP      RMS-DP      [F,P]     Damp
               ***  Starting incremental Fock matrix formation  ***
  0   -316.3365820174   0.000000000000 6.55674389  0.12169598  1.8662609 0.7000
  1   -320.4969578733  -4.160375855913 4.53429006  0.08526925  1.0353366 0.7000
  2   -322.7383994242  -2.241441550953 3.08857185  0.05928664  0.5181511 0.7000
  3   -324.3389068048  -1.600507380593 2.12726642  0.04130582  0.2570408 0.7000
                               ***Turning on DIIS***
  4   -325.4926696440  -1.153762839193 1.48286592  0.02889837  0.1908106 0.7000
  5   -326.5529967416  -1.060327097594 1.04693575  0.02035244  0.1427647 0.7000
  6   -326.9486947269  -0.395697985239 0.75081072  0.01441877  0.1025837 0.7000
  7   -327.2793534833  -0.330658756458 1.78421977  0.03393914  0.0724600 0.0000
  8   -328.2957096319  -1.016356148573 0.01806808  0.00047718  0.0069637 0.0000
  9   -328.3083478613  -0.012638229359 0.00517470  0.00019778  0.0033826 0.0000
                      *** Initiating the SOSCF procedure ***
                           *** Shutting down DIIS ***
                      *** Re-Reading the Fockian *** 
                      *** Removing any level shift *** 
ITER      Energy       Delta-E        Grad      Rot      Max-DP    RMS-DP
 10   -328.30392499   0.0044228736  0.000863  0.000863  0.001587  0.000068
               *** Restarting incremental Fock matrix formation ***
 11   -328.29914204   0.0047829503  0.000273  0.000517  0.000796  0.000032
 12   -328.29914314  -0.0000011075  0.000064  0.000161  0.000247  0.000010
 13   -328.29914321  -0.0000000700  0.000004  0.000002  0.000017  0.000001
                  ***Gradient check signals convergence***
              ***Rediagonalizing the Fockian in SOSCF/NRSCF***

               *****************************************************
               *                     SUCCESS                       *
               *           SCF CONVERGED AFTER  14 CYCLES          *
               *****************************************************


----------------
TOTAL SCF ENERGY
----------------

Total Energy       :         -328.29914321 Eh           -8933.47386 eV

Components:
Nuclear Repulsion  :            0.00000000 Eh               0.00000 eV
Electronic Energy  :         -328.29914321 Eh           -8933.47386 eV
One Electron Energy:         -571.59984192 Eh          -15554.02245 eV
Two Electron Energy:          243.30069870 Eh            6620.54859 eV

Virial components:
Potential Energy   :         -453.88070706 Eh          -12350.72194 eV
Kinetic Energy     :          125.58156385 Eh            3417.24808 eV
Virial Ratio       :            3.61423041


---------------
SCF CONVERGENCE
---------------

  Last Energy change         ...   -1.2545e-10  Tolerance :   1.0000e-08
  Last MAX-Density change    ...    6.1483e-06  Tolerance :   1.0000e-07
  Last RMS-Density change    ...    1.7837e-07  Tolerance :   5.0000e-09
  Last Orbital Gradient      ...    1.5415e-06  Tolerance :   1.0000e-05
  Last Orbital Rotation      ...    9.0588e-07  Tolerance :   1.0000e-05

             **** THE GBW FILE WAS UPDATED (54_Xe.gbw) ****
             **** DENSITY FILE WAS UPDATED (54_Xe.scfp) ****
             **** ENERGY FILE WAS UPDATED (54_Xe.en.tmp) ****
             **** THE GBW FILE WAS UPDATED (54_Xe.gbw) ****
             **** DENSITY FILE WAS UPDATED (54_Xe.scfp) ****
----------------
ORBITAL ENERGIES
----------------

  NO   OCC          E(Eh)            E(eV) 
   0   2.0000      -8.399983      -228.5752 
   1   2.0000      -6.133652      -166.9052 
   2   2.0000      -6.133652      -166.9052 
   3   2.0000      -6.133652      -166.9052 
   4   2.0000      -2.663987       -72.4908 
   5   2.0000      -2.663987       -72.4908 
   6   2.0000      -2.663987       -72.4908 
   7   2.0000      -2.663987       -72.4908 
   8   2.0000      -2.663987       -72.4908 
   9   2.0000      -1.009628       -27.4734 
  10   2.0000      -0.456233       -12.4147 
  11   2.0000      -0.456233       -12.4147 
  12   2.0000      -0.456233       -12.4147 
  13   0.0000       0.064782         1.7628 
  14   0.0000       0.070783         1.9261 
  15   0.0000       0.070783         1.9261 
  16   0.0000       0.070783         1.9261 
  17   0.0000       0.169229         4.6049 
  18   0.0000       0.169229         4.6049 
  19   0.0000       0.169229         4.6049 
  20   0.0000       0.169229         4.6049 
  21   0.0000       0.169229         4.6049 
  22   0.0000       0.323401         8.8002 
  23   0.0000       0.323401         8.8002 
  24   0.0000       0.323401         8.8002 
  25   0.0000       0.378670        10.3041 
  26   0.0000       0.454993        12.3810 
  27   0.0000       0.454993        12.3810 
  28   0.0000       0.454993        12.3810 
  29   0.0000       0.454993        12.3810 
  30   0.0000       0.454993        12.3810 
  31   0.0000       0.551568        15.0089 
  32   0.0000       0.551568        15.0089 
  33   0.0000       0.551568        15.0089 
  34   0.0000       0.551568        15.0089 
  35   0.0000       0.551568        15.0089 
  36   0.0000       0.551568        15.0089 
  37   0.0000       0.551568        15.0089 
  38   0.0000       1.121007        30.5041 
  39   0.0000       1.121007        30.5041 
  40   0.0000       1.121007        30.5041 
  41   0.0000       1.244064        33.8527 
  42   0.0000       1.244064        33.8527 
  43   0.0000       1.244064        33.8527 
  44   0.0000       1.244064        33.8527 
  45   0.0000       1.244064        33.8527 
  46   0.0000       1.244064        33.8527 
  47   0.0000       1.244064        33.8527 
  48   0.0000       1.244064        33.8527 
  49   0.0000       1.244064        33.8527 
  50   0.0000       1.265767        34.4433 
  51   0.0000       1.265767        34.4433 
  52   0.0000       1.265767        34.4433 
  53   0.0000       1.265767        34.4433 
  54   0.0000       1.265767        34.4433 
  55   0.0000       1.265767        34.4433 
  56   0.0000       1.265767        34.4433 
  57   0.0000       1.302986        35.4560 
  58   0.0000       1.302986        35.4560 
  59   0.0000       1.302986        35.4560 
  60   0.0000       1.302986        35.4560 
  61   0.0000       1.302986        35.4560 
  62   0.0000       1.406907        38.2839 
  63   0.0000       2.422088        65.9084 
  64   0.0000       2.422088        65.9084 
  65   0.0000       2.422088        65.9084 
  66   0.0000       2.422088        65.9084 
  67   0.0000       2.422088        65.9084 
  68   0.0000       2.422088        65.9084 
  69   0.0000       2.422088        65.9084 
  70   0.0000       2.830361        77.0180 
  71   0.0000       2.830361        77.0180 
  72   0.0000       2.830361        77.0180 
  73   0.0000       2.830361        77.0180 
  74   0.0000       2.830361        77.0180 
  75   0.0000       2.830361        77.0180 
  76   0.0000       2.830361        77.0180 
  77   0.0000       2.830361        77.0180 
  78   0.0000       2.830361        77.0180 
  79   0.0000       3.417668        92.9995 
  80   0.0000       3.417668        92.9995 
  81   0.0000       3.417668        92.9995 
  82   0.0000       3.417668        92.9995 
  83   0.0000       3.417668        92.9995 
  84   0.0000       3.674852        99.9978 
  85   0.0000       3.674852        99.9978 
  86   0.0000       3.674852        99.9978 
  87   0.0000       4.854260       132.0911 
  88   0.0000      39.856147      1084.5409 
  89   0.0000      39.856147      1084.5409 
  90   0.0000      39.856147      1084.5409 
  91   0.0000      61.835767      1682.6368 

                    ********************************
                    * MULLIKEN POPULATION ANALYSIS *
                    ********************************

-----------------------
MULLIKEN ATOMIC CHARGES
-----------------------
   0 Xe:    0.000000
Sum of atomic charges:    0.0000000

--------------------------------
MULLIKEN REDUCED ORBITAL CHARGES
--------------------------------
  0 Xes       :     4.000000  s :     4.000000
      pz      :     4.000000  p :    12.000000
      px      :     4.000000
      py      :     4.000000
      dz2     :     2.000000  d :    10.000000
      dxz     :     2.000000
      dyz     :     2.000000
      dx2y2   :     2.000000
      dxy     :     2.000000
      f0      :     0.000000  f :     0.000000
      f+1     :     0.000000
      f-1     :     0.000000
      f+2     :     0.000000
      f-2     :     0.000000
      f+3     :     0.000000
      f-3     :     0.000000
      g0      :     0.000000  g :     0.000000
      g+1     :     0.000000
      g-1     :     0.000000
      g+2     :     0.000000
      g-2     :     0.000000
      g+3     :     0.000000
      g-3     :     0.000000
      g+4     :     0.000000
      g-4     :     0.000000


                     *******************************
                     * LOEWDIN POPULATION ANALYSIS *
                     *******************************

----------------------
LOEWDIN ATOMIC CHARGES
----------------------
   0 Xe:    0.000000

-------------------------------
LOEWDIN REDUCED ORBITAL CHARGES
-------------------------------
  0 Xes       :     4.000000  s :     4.000000
      pz      :     4.000000  p :    12.000000
      px      :     4.000000
      py      :     4.000000
      dz2     :     2.000000  d :    10.000000
      dxz     :     2.000000
      dyz     :     2.000000
      dx2y2   :     2.000000
      dxy     :     2.000000
      f0      :     0.000000  f :     0.000000
      f+1     :     0.000000
      f-1     :     0.000000
      f+2     :     0.000000
      f-2     :     0.000000
      f+3     :     0.000000
      f-3     :     0.000000
      g0      :     0.000000  g :     0.000000
      g+1     :     0.000000
      g-1     :     0.000000
      g+2     :     0.000000
      g-2     :     0.000000
      g+3     :     0.000000
      g-3     :     0.000000
      g+4     :     0.000000
      g-4     :     0.000000


                      *****************************
                      * MAYER POPULATION ANALYSIS *
                      *****************************

  NA   - Mulliken gross atomic population
  ZA   - Total nuclear charge
  QA   - Mulliken gross atomic charge
  VA   - Mayer's total valence
  BVA  - Mayer's bonded valence
  FA   - Mayer's free valence

  ATOM       NA         ZA         QA         VA         BVA        FA
  0 Xe    26.0000    26.0000     0.0000     0.0000     0.0000     0.0000

  Mayer bond orders larger than 0.100000


--------------------------
ATOM BASIS FOR ELEMENT Xe
--------------------------
 NewGTO Xe
 S 25
    1      18774.299999999999         0.000068000760
    2       2824.810000000000         0.000501005598
    3        640.088000000000         0.002097023429
    4        172.616000000000         0.004493050199
    5         29.516900000000        -0.047151526810
    6         18.444800000000         0.374037179004
    7         11.523800000000        -0.512831729714
    8          6.618900000000        -0.478629347581
    9          2.995520000000         0.596477664265
   10          1.649370000000         0.715405993015
   11      18774.299999999999        -0.000000001089
   12       2824.810000000000        -0.000000007925
   13        640.088000000000        -0.000000033546
   14        172.616000000000        -0.000000071024
   15         29.516900000000         0.000000568613
   16         18.444800000000        -0.000005184279
   17         11.523800000000         0.000008113373
   18          6.618900000000         0.000005930391
   19          2.995520000000        -0.000010152824
   20          1.649370000000        -0.000018053217
   21          0.860679000000         0.155159264789
   22          0.442246000000         0.002654036766
   23          0.208182000000         0.001528094840
   24          0.094828000000        -0.000085758395
   25          0.036800000000         0.000039249941
 S 25
    1      18774.299999999999         0.000000005911
    2       2824.810000000000         0.000000043553
    3        640.088000000000         0.000000182297
    4        172.616000000000         0.000000390586
    5         29.516900000000        -0.000004098935
    6         18.444800000000         0.000032515471
    7         11.523800000000        -0.000044581037
    8          6.618900000000        -0.000041607785
    9          2.995520000000         0.000051852471
   10          1.649370000000         0.000062191044
   11      18774.299999999999        -0.000036007442
   12       2824.810000000000        -0.000262054160
   13        640.088000000000        -0.001109229248
   14        172.616000000000        -0.002348485369
   15         29.516900000000         0.018801885843
   16         18.444800000000        -0.171424428808
   17         11.523800000000         0.268278445923
   18          6.618900000000         0.196095527659
   19          2.995520000000        -0.335715383320
   20          1.649370000000        -0.596951373757
   21          0.860679000000        -0.166709945781
   22          0.442246000000         0.574574898427
   23          0.208182000000         0.643018336752
   24          0.094828000000         0.156530516719
   25          0.036800000000         0.000464558034
 S 25
    1      18774.299999999999        -0.000002705729
    2       2824.810000000000        -0.000019934853
    3        640.088000000000        -0.000083439894
    4        172.616000000000        -0.000178777036
    5         29.516900000000         0.001876144231
    6         18.444800000000        -0.014882820195
    7         11.523800000000         0.020405411151
    8          6.618900000000         0.019044509262
    9          2.995520000000        -0.023733656240
   10          1.649370000000        -0.028465776553
   11      18774.299999999999        -0.000004681525
   12       2824.810000000000        -0.000034071097
   13        640.088000000000        -0.000144216971
   14        172.616000000000        -0.000305339449
   15         29.516900000000         0.002444536181
   16         18.444800000000        -0.022287829108
   17         11.523800000000         0.034880350470
   18          6.618900000000         0.025495453826
   19          2.995520000000        -0.043648196143
   20          1.649370000000        -0.077612918395
   21          0.860679000000        -0.263496599359
   22          0.442246000000         0.718115695062
   23          0.208182000000        -0.850988001059
   24          0.094828000000         1.861780332103
   25          0.036800000000        -2.003156939470
 S 25
    1      18774.299999999999         0.000018815969
    2       2824.810000000000         0.000138629417
    3        640.088000000000         0.000580251272
    4        172.616000000000         0.001243237466
    5         29.516900000000        -0.013046937409
    6         18.444800000000         0.103496959551
    7         11.523800000000        -0.141901735352
    8          6.618900000000        -0.132437856468
    9          2.995520000000         0.165046760475
   10          1.649370000000         0.197954506338
   11      18774.299999999999        -0.000040963780
   12       2824.810000000000        -0.000298125288
   13        640.088000000000        -0.001261912001
   14        172.616000000000        -0.002671748763
   15         29.516900000000         0.021389920465
   16         18.444800000000        -0.195020591477
   17         11.523800000000         0.305206332424
   18          6.618900000000         0.223087608085
   19          2.995520000000        -0.381925802981
   20          1.649370000000        -0.679120302763
   21          0.860679000000         0.795162944427
   22          0.442246000000        -1.885228386557
   23          0.208182000000         5.192567344858
   24          0.094828000000        -5.639307852081
   25          0.036800000000         2.022321206365
 S 25
    1      18774.299999999999        -0.000039249488
    2       2824.810000000000        -0.000289176375
    3        640.088000000000        -0.001210384946
    4        172.616000000000        -0.002593352199
    5         29.516900000000         0.027215479530
    6         18.444800000000        -0.215891231469
    7         11.523800000000         0.296002322440
    8          6.618900000000         0.276260984380
    9          2.995520000000        -0.344282078655
   10          1.649370000000        -0.412926547151
   11      18774.299999999999         0.000012460819
   12       2824.810000000000         0.000090687070
   13        640.088000000000         0.000383862446
   14        172.616000000000         0.000812722293
   15         29.516900000000        -0.006506624217
   16         18.444800000000         0.059323535377
   17         11.523800000000        -0.092841061150
   18          6.618900000000        -0.067861273059
   19          2.995520000000         0.116178444095
   20          1.649370000000         0.206582376768
   21          0.860679000000        -3.567100326504
   22          0.442246000000         9.689053736068
   23          0.208182000000       -10.115774525194
   24          0.094828000000         5.229890791971
   25          0.036800000000        -1.209410335174
 S 25
    1      18774.299999999999         0.000359042826
    2       2824.810000000000         0.002645300819
    3        640.088000000000         0.011072247142
    4        172.616000000000         0.023723226709
    5         29.516900000000        -0.248959239384
    6         18.444800000000         1.974909783133
    7         11.523800000000        -2.707742590748
    8          6.618900000000        -2.527154609466
    9          2.995520000000         3.149391666659
   10          1.649370000000         3.777331168731
   11      18774.299999999999        -0.000495888687
   12       2824.810000000000        -0.003608967668
   13        640.088000000000        -0.015276126504
   14        172.616000000000        -0.032342962157
   15         29.516900000000         0.258936542859
   16         18.444800000000        -2.360829617195
   17         11.523800000000         3.694687537782
   18          6.618900000000         2.700596016075
   19          2.995520000000        -4.623418175571
   20          1.649370000000        -8.221118150939
   21          0.860679000000        13.103090676389
   22          0.442246000000       -13.568367396678
   23          0.208182000000         7.951387306153
   24          0.094828000000        -3.129087594556
   25          0.036800000000         0.665558148166
 S 25
    1      18774.299999999999         0.000348540177
    2       2824.810000000000         0.002567921010
    3        640.088000000000         0.010748363989
    4        172.616000000000         0.023029279638
    5         29.516900000000        -0.241676733631
    6         18.444800000000         1.917140118135
    7         11.523800000000        -2.628536247397
    8          6.618900000000        -2.453230789536
    9          2.995520000000         3.057266293092
   10          1.649370000000         3.666837434755
   11      18774.299999999999        -0.000138865044
   12       2824.810000000000        -0.001010628934
   13        640.088000000000        -0.004277814840
   14        172.616000000000        -0.009057086785
   15         29.516900000000         0.072510697350
   16         18.444800000000        -0.661109474845
   17         11.523800000000         1.034633300103
   18          6.618900000000         0.756255174432
   19          2.995520000000        -1.294708241450
   20          1.649370000000        -2.302181853287
   21          0.860679000000        -3.773628318618
   22          0.442246000000         3.405405776250
   23          0.208182000000        -1.916463872184
   24          0.094828000000         0.774067325970
   25          0.036800000000        -0.171628631220
 P 19
    1        613.331000000000        -0.000138002622
    2        141.710000000000        -0.000853016207
    3         20.310600000000        -0.055025045447
    4         11.033100000000         0.252992806729
    5          6.895130000000        -0.009746185172
    6          3.241660000000        -0.526807009053
    7          1.665350000000        -0.501841534722
    8        613.331000000000         0.000000002970
    9        141.710000000000         0.000000021884
   10         20.310600000000         0.000001231124
   11         11.033100000000        -0.000006240061
   12          6.895130000000         0.000001399767
   13          3.241660000000         0.000013525810
   14          1.665350000000         0.000015873122
   15          0.819786000000        -0.121626946481
   16          0.387304000000        -0.004100227621
   17          0.171566000000        -0.001338736279
   18          0.072641000000         0.000328397466
   19          0.028800000000        -0.000092023110
 P 19
    1        613.331000000000         0.000000007224
    2        141.710000000000         0.000000044655
    3         20.310600000000         0.000002880540
    4         11.033100000000        -0.000013244077
    5          6.895130000000         0.000000510209
    6          3.241660000000         0.000027578147
    7          1.665350000000         0.000026271214
    8        613.331000000000        -0.000049010266
    9        141.710000000000        -0.000361075631
   10         20.310600000000        -0.020313254801
   11         11.033100000000         0.102959565844
   12          6.895130000000        -0.023095837639
   13          3.241660000000        -0.223172745618
   14          1.665350000000        -0.261902858002
   15          0.819786000000         0.067523486462
   16          0.387304000000         0.470192460181
   17          0.171566000000         0.487835366650
   18          0.072641000000         0.157829527270
   19          0.028800000000         0.001570385465
 P 19
    1        613.331000000000        -0.000000889808
    2        141.710000000000        -0.000005500048
    3         20.310600000000        -0.000354788549
    4         11.033100000000         0.001631238105
    5          6.895130000000        -0.000062841109
    6          3.241660000000        -0.003396727670
    7          1.665350000000        -0.003235756165
    8        613.331000000000        -0.000006959015
    9        141.710000000000        -0.000051269479
   10         20.310600000000        -0.002884298748
   11         11.033100000000         0.014619328600
   12          6.895130000000        -0.003279400384
   13          3.241660000000        -0.031688514575
   14          1.665350000000        -0.037187840791
   15          0.819786000000        -0.039033886648
   16          0.387304000000         0.241766172499
   17          0.171566000000        -0.255430313060
   18          0.072641000000         0.899349603847
   19          0.028800000000        -1.501752169403
 P 19
    1        613.331000000000         0.000008327828
    2        141.710000000000         0.000051475632
    3         20.310600000000         0.003320510167
    4         11.033100000000        -0.015266960348
    5          6.895130000000         0.000588137760
    6          3.241660000000         0.031790396819
    7          1.665350000000         0.030283844473
    8        613.331000000000        -0.000035129764
    9        141.710000000000        -0.000258813161
   10         20.310600000000        -0.014560211903
   11         11.033100000000         0.073799748526
   12          6.895130000000        -0.016554722194
   13          3.241660000000        -0.159966607955
   14          1.665350000000        -0.187727724962
   15          0.819786000000         0.251679413631
   16          0.387304000000        -0.356042845978
   17          0.171566000000         1.944310251595
   18          0.072641000000        -2.902571323333
   19          0.028800000000         1.223584437733
 P 19
    1        613.331000000000        -0.000006519532
    2        141.710000000000        -0.000040298268
    3         20.310600000000        -0.002599498149
    4         11.033100000000         0.011951908942
    5          6.895130000000        -0.000460430157
    6          3.241660000000        -0.024887464128
    7          1.665350000000        -0.023708042943
    8        613.331000000000        -0.000034783489
    9        141.710000000000        -0.000256262029
   10         20.310600000000        -0.014416691277
   11         11.033100000000         0.073072301278
   12          6.895130000000        -0.016391541596
   13          3.241660000000        -0.158389810323
   14          1.665350000000        -0.185877284823
   15          0.819786000000        -0.688566909360
   16          0.387304000000         3.376143250640
   17          0.171566000000        -4.120772433823
   18          0.072641000000         2.310614121981
   19          0.028800000000        -0.668316354860
 P 19
    1        613.331000000000         0.000220641375
    2        141.710000000000         0.001363819514
    3         20.310600000000         0.087975152359
    4         11.033100000000        -0.404490001543
    5          6.895130000000         0.015582397406
    6          3.241660000000         0.842269670271
    7          1.665350000000         0.802354366429
    8        613.331000000000        -0.000363081356
    9        141.710000000000        -0.002674946317
   10         20.310600000000        -0.150486107373
   11         11.033100000000         0.762752421131
   12          6.895130000000        -0.171100236612
   13          3.241660000000        -1.653324299260
   14          1.665350000000        -1.940247488471
   15          0.819786000000         4.545064999089
   16          0.387304000000        -4.855340732250
   17          0.171566000000         2.903841927113
   18          0.072641000000        -1.240829919235
   19          0.028800000000         0.340484288438
 P 19
    1        613.331000000000        -0.003812003573
    2        141.710000000000        -0.023562601795
    3         20.310600000000        -1.519939743468
    4         11.033100000000         6.988341738522
    5          6.895130000000        -0.269215846537
    6          3.241660000000       -14.551826421919
    7          1.665350000000       -13.862212876999
    8        613.331000000000         0.002750940113
    9        141.710000000000         0.020267130221
   10         20.310600000000         1.140180464424
   11         11.033100000000        -5.779107619623
   12          6.895130000000         1.296366492886
   13          3.241660000000        12.526658442324
   14          1.665350000000        14.700574831287
   15          0.819786000000         0.274488425385
   16          0.387304000000        -0.475590510034
   17          0.171566000000         0.310490675099
   18          0.072641000000        -0.143612177643
   19          0.028800000000         0.041781297147
 D 13
    1        627.684000000000         0.000031999939
    2        190.613000000000         0.000297999436
    3         74.315000000000         0.001540997084
    4         31.440600000000         0.006486987726
    5         14.565600000000        -0.014863971877
    6          6.135460000000         0.125939761720
    7          3.616700000000         0.298801434662
    8          2.084650000000         0.352261333515
    9          1.195180000000         0.248470529889
   10          0.681848000000         0.103763478306
   11          0.380727000000         0.026724716036
   12          0.167600000000         0.002794146162
   13          0.063900000000        -0.000028454498
 D 13
    1        627.684000000000         0.000002650205
    2        190.613000000000         0.000024680036
    3         74.315000000000         0.000127623944
    4         31.440600000000         0.000537246284
    5         14.565600000000        -0.001231020312
    6          6.135460000000         0.010430213809
    7          3.616700000000         0.024746456618
    8          2.084650000000         0.029173955667
    9          1.195180000000         0.020578097945
   10          0.681848000000         0.057687747326
   11          0.380727000000        -0.234956110029
   12          0.167600000000         0.215208137309
   13          0.063900000000        -1.081139345413
 D 13
    1        627.684000000000         0.000008797995
    2        190.613000000000         0.000081931333
    3         74.315000000000         0.000423678470
    4         31.440600000000         0.001783518647
    5         14.565600000000        -0.004086668903
    6          6.135460000000         0.034625610981
    7          3.616700000000         0.082151832716
    8          2.084650000000         0.096849983924
    9          1.195180000000         0.068313960505
   10          0.681848000000        -0.253314469834
   11          0.380727000000         0.352408297402
   12          0.167600000000        -1.563323752708
   13          0.063900000000         0.966737073163
 D 13
    1        627.684000000000         0.000011624304
    2        190.613000000000         0.000108251332
    3         74.315000000000         0.000559782893
    4         31.440600000000         0.002356464390
    5         14.565600000000        -0.005399489238
    6          6.135460000000         0.045748901685
    7          3.616700000000         0.108542665724
    8          2.084650000000         0.127962518702
    9          1.195180000000         0.090259451727
   10          0.681848000000         0.588861175563
   11          0.380727000000        -2.463648147185
   12          0.167600000000         2.017792007499
   13          0.063900000000        -0.640466319094
 D 13
    1        627.684000000000         0.000034892068
    2        190.613000000000         0.000324932386
    3         74.315000000000         0.001680271164
    4         31.440600000000         0.007073276470
    5         14.565600000000        -0.016207365723
    6          6.135460000000         0.137322096286
    7          3.616700000000         0.325806868465
    8          2.084650000000         0.384098430061
    9          1.195180000000         0.270927096922
   10          0.681848000000        -3.368308102370
   11          0.380727000000         3.502494078908
   12          0.167600000000        -1.426433471180
   13          0.063900000000         0.367817190576
 F 3
    1          0.661900000000         0.206425363628
    2          0.297900000000        -0.520948754505
    3          0.159100000000         1.326253734611
 F 3
    1          0.661900000000         0.090406094488
    2          0.297900000000         1.550793773466
    3          0.159100000000        -1.122875898367
 F 3
    1          0.661900000000         1.637865467870
    2          0.297900000000        -2.032718901955
    3          0.159100000000         0.934241336054
 G 2
    1          0.527800000000         0.270896574433
    2          0.265900000000        -1.179918802400
 G 2
    1          0.527800000000         1.433980985453
    2          0.265900000000        -0.858765416410
 end
  // -----------------------------------------------
  // The basis set
  // -----------------------------------------------
  BAS[ATNO] = new BFNGauss[NSH];
  // Basis function   1 L = s
  InitBFNGauss(BAS[ATNO][  0]);
  BAS[ATNO][  0].l  = 0;
  BAS[ATNO][  0].ng = 25;
  BAS[ATNO][  0].a[  0] =     18774.299999999999;     BAS[ATNO][  0].d[  0] =         0.000068000760;
  BAS[ATNO][  0].a[  1] =      2824.810000000000;     BAS[ATNO][  0].d[  1] =         0.000501005598;
  BAS[ATNO][  0].a[  2] =       640.088000000000;     BAS[ATNO][  0].d[  2] =         0.002097023429;
  BAS[ATNO][  0].a[  3] =       172.616000000000;     BAS[ATNO][  0].d[  3] =         0.004493050199;
  BAS[ATNO][  0].a[  4] =        29.516900000000;     BAS[ATNO][  0].d[  4] =        -0.047151526810;
  BAS[ATNO][  0].a[  5] =        18.444800000000;     BAS[ATNO][  0].d[  5] =         0.374037179004;
  BAS[ATNO][  0].a[  6] =        11.523800000000;     BAS[ATNO][  0].d[  6] =        -0.512831729714;
  BAS[ATNO][  0].a[  7] =         6.618900000000;     BAS[ATNO][  0].d[  7] =        -0.478629347581;
  BAS[ATNO][  0].a[  8] =         2.995520000000;     BAS[ATNO][  0].d[  8] =         0.596477664265;
  BAS[ATNO][  0].a[  9] =         1.649370000000;     BAS[ATNO][  0].d[  9] =         0.715405993015;
  BAS[ATNO][  0].a[ 10] =     18774.299999999999;     BAS[ATNO][  0].d[ 10] =        -0.000000001089;
  BAS[ATNO][  0].a[ 11] =      2824.810000000000;     BAS[ATNO][  0].d[ 11] =        -0.000000007925;
  BAS[ATNO][  0].a[ 12] =       640.088000000000;     BAS[ATNO][  0].d[ 12] =        -0.000000033546;
  BAS[ATNO][  0].a[ 13] =       172.616000000000;     BAS[ATNO][  0].d[ 13] =        -0.000000071024;
  BAS[ATNO][  0].a[ 14] =        29.516900000000;     BAS[ATNO][  0].d[ 14] =         0.000000568613;
  BAS[ATNO][  0].a[ 15] =        18.444800000000;     BAS[ATNO][  0].d[ 15] =        -0.000005184279;
  BAS[ATNO][  0].a[ 16] =        11.523800000000;     BAS[ATNO][  0].d[ 16] =         0.000008113373;
  BAS[ATNO][  0].a[ 17] =         6.618900000000;     BAS[ATNO][  0].d[ 17] =         0.000005930391;
  BAS[ATNO][  0].a[ 18] =         2.995520000000;     BAS[ATNO][  0].d[ 18] =        -0.000010152824;
  BAS[ATNO][  0].a[ 19] =         1.649370000000;     BAS[ATNO][  0].d[ 19] =        -0.000018053217;
  BAS[ATNO][  0].a[ 20] =         0.860679000000;     BAS[ATNO][  0].d[ 20] =         0.155159264789;
  BAS[ATNO][  0].a[ 21] =         0.442246000000;     BAS[ATNO][  0].d[ 21] =         0.002654036766;
  BAS[ATNO][  0].a[ 22] =         0.208182000000;     BAS[ATNO][  0].d[ 22] =         0.001528094840;
  BAS[ATNO][  0].a[ 23] =         0.094828000000;     BAS[ATNO][  0].d[ 23] =        -0.000085758395;
  BAS[ATNO][  0].a[ 24] =         0.036800000000;     BAS[ATNO][  0].d[ 24] =         0.000039249941;

  // Basis function   2 L = s
  InitBFNGauss(BAS[ATNO][  1]);
  BAS[ATNO][  1].l  = 0;
  BAS[ATNO][  1].ng = 25;
  BAS[ATNO][  1].a[  0] =     18774.299999999999;     BAS[ATNO][  1].d[  0] =         0.000000005911;
  BAS[ATNO][  1].a[  1] =      2824.810000000000;     BAS[ATNO][  1].d[  1] =         0.000000043553;
  BAS[ATNO][  1].a[  2] =       640.088000000000;     BAS[ATNO][  1].d[  2] =         0.000000182297;
  BAS[ATNO][  1].a[  3] =       172.616000000000;     BAS[ATNO][  1].d[  3] =         0.000000390586;
  BAS[ATNO][  1].a[  4] =        29.516900000000;     BAS[ATNO][  1].d[  4] =        -0.000004098935;
  BAS[ATNO][  1].a[  5] =        18.444800000000;     BAS[ATNO][  1].d[  5] =         0.000032515471;
  BAS[ATNO][  1].a[  6] =        11.523800000000;     BAS[ATNO][  1].d[  6] =        -0.000044581037;
  BAS[ATNO][  1].a[  7] =         6.618900000000;     BAS[ATNO][  1].d[  7] =        -0.000041607785;
  BAS[ATNO][  1].a[  8] =         2.995520000000;     BAS[ATNO][  1].d[  8] =         0.000051852471;
  BAS[ATNO][  1].a[  9] =         1.649370000000;     BAS[ATNO][  1].d[  9] =         0.000062191044;
  BAS[ATNO][  1].a[ 10] =     18774.299999999999;     BAS[ATNO][  1].d[ 10] =        -0.000036007442;
  BAS[ATNO][  1].a[ 11] =      2824.810000000000;     BAS[ATNO][  1].d[ 11] =        -0.000262054160;
  BAS[ATNO][  1].a[ 12] =       640.088000000000;     BAS[ATNO][  1].d[ 12] =        -0.001109229248;
  BAS[ATNO][  1].a[ 13] =       172.616000000000;     BAS[ATNO][  1].d[ 13] =        -0.002348485369;
  BAS[ATNO][  1].a[ 14] =        29.516900000000;     BAS[ATNO][  1].d[ 14] =         0.018801885843;
  BAS[ATNO][  1].a[ 15] =        18.444800000000;     BAS[ATNO][  1].d[ 15] =        -0.171424428808;
  BAS[ATNO][  1].a[ 16] =        11.523800000000;     BAS[ATNO][  1].d[ 16] =         0.268278445923;
  BAS[ATNO][  1].a[ 17] =         6.618900000000;     BAS[ATNO][  1].d[ 17] =         0.196095527659;
  BAS[ATNO][  1].a[ 18] =         2.995520000000;     BAS[ATNO][  1].d[ 18] =        -0.335715383320;
  BAS[ATNO][  1].a[ 19] =         1.649370000000;     BAS[ATNO][  1].d[ 19] =        -0.596951373757;
  BAS[ATNO][  1].a[ 20] =         0.860679000000;     BAS[ATNO][  1].d[ 20] =        -0.166709945781;
  BAS[ATNO][  1].a[ 21] =         0.442246000000;     BAS[ATNO][  1].d[ 21] =         0.574574898427;
  BAS[ATNO][  1].a[ 22] =         0.208182000000;     BAS[ATNO][  1].d[ 22] =         0.643018336752;
  BAS[ATNO][  1].a[ 23] =         0.094828000000;     BAS[ATNO][  1].d[ 23] =         0.156530516719;
  BAS[ATNO][  1].a[ 24] =         0.036800000000;     BAS[ATNO][  1].d[ 24] =         0.000464558034;

  // Basis function   3 L = s
  InitBFNGauss(BAS[ATNO][  2]);
  BAS[ATNO][  2].l  = 0;
  BAS[ATNO][  2].ng = 25;
  BAS[ATNO][  2].a[  0] =     18774.299999999999;     BAS[ATNO][  2].d[  0] =         0.000002705729;
  BAS[ATNO][  2].a[  1] =      2824.810000000000;     BAS[ATNO][  2].d[  1] =         0.000019934853;
  BAS[ATNO][  2].a[  2] =       640.088000000000;     BAS[ATNO][  2].d[  2] =         0.000083439894;
  BAS[ATNO][  2].a[  3] =       172.616000000000;     BAS[ATNO][  2].d[  3] =         0.000178777036;
  BAS[ATNO][  2].a[  4] =        29.516900000000;     BAS[ATNO][  2].d[  4] =        -0.001876144231;
  BAS[ATNO][  2].a[  5] =        18.444800000000;     BAS[ATNO][  2].d[  5] =         0.014882820195;
  BAS[ATNO][  2].a[  6] =        11.523800000000;     BAS[ATNO][  2].d[  6] =        -0.020405411151;
  BAS[ATNO][  2].a[  7] =         6.618900000000;     BAS[ATNO][  2].d[  7] =        -0.019044509262;
  BAS[ATNO][  2].a[  8] =         2.995520000000;     BAS[ATNO][  2].d[  8] =         0.023733656240;
  BAS[ATNO][  2].a[  9] =         1.649370000000;     BAS[ATNO][  2].d[  9] =         0.028465776553;
  BAS[ATNO][  2].a[ 10] =     18774.299999999999;     BAS[ATNO][  2].d[ 10] =         0.000004681525;
  BAS[ATNO][  2].a[ 11] =      2824.810000000000;     BAS[ATNO][  2].d[ 11] =         0.000034071097;
  BAS[ATNO][  2].a[ 12] =       640.088000000000;     BAS[ATNO][  2].d[ 12] =         0.000144216971;
  BAS[ATNO][  2].a[ 13] =       172.616000000000;     BAS[ATNO][  2].d[ 13] =         0.000305339449;
  BAS[ATNO][  2].a[ 14] =        29.516900000000;     BAS[ATNO][  2].d[ 14] =        -0.002444536181;
  BAS[ATNO][  2].a[ 15] =        18.444800000000;     BAS[ATNO][  2].d[ 15] =         0.022287829108;
  BAS[ATNO][  2].a[ 16] =        11.523800000000;     BAS[ATNO][  2].d[ 16] =        -0.034880350470;
  BAS[ATNO][  2].a[ 17] =         6.618900000000;     BAS[ATNO][  2].d[ 17] =        -0.025495453826;
  BAS[ATNO][  2].a[ 18] =         2.995520000000;     BAS[ATNO][  2].d[ 18] =         0.043648196143;
  BAS[ATNO][  2].a[ 19] =         1.649370000000;     BAS[ATNO][  2].d[ 19] =         0.077612918395;
  BAS[ATNO][  2].a[ 20] =         0.860679000000;     BAS[ATNO][  2].d[ 20] =         0.263496599359;
  BAS[ATNO][  2].a[ 21] =         0.442246000000;     BAS[ATNO][  2].d[ 21] =        -0.718115695062;
  BAS[ATNO][  2].a[ 22] =         0.208182000000;     BAS[ATNO][  2].d[ 22] =         0.850988001059;
  BAS[ATNO][  2].a[ 23] =         0.094828000000;     BAS[ATNO][  2].d[ 23] =        -1.861780332103;
  BAS[ATNO][  2].a[ 24] =         0.036800000000;     BAS[ATNO][  2].d[ 24] =         2.003156939470;

  // Basis function   4 L = s
  InitBFNGauss(BAS[ATNO][  3]);
  BAS[ATNO][  3].l  = 0;
  BAS[ATNO][  3].ng = 25;
  BAS[ATNO][  3].a[  0] =     18774.299999999999;     BAS[ATNO][  3].d[  0] =        -0.000018815969;
  BAS[ATNO][  3].a[  1] =      2824.810000000000;     BAS[ATNO][  3].d[  1] =        -0.000138629417;
  BAS[ATNO][  3].a[  2] =       640.088000000000;     BAS[ATNO][  3].d[  2] =        -0.000580251272;
  BAS[ATNO][  3].a[  3] =       172.616000000000;     BAS[ATNO][  3].d[  3] =        -0.001243237466;
  BAS[ATNO][  3].a[  4] =        29.516900000000;     BAS[ATNO][  3].d[  4] =         0.013046937409;
  BAS[ATNO][  3].a[  5] =        18.444800000000;     BAS[ATNO][  3].d[  5] =        -0.103496959551;
  BAS[ATNO][  3].a[  6] =        11.523800000000;     BAS[ATNO][  3].d[  6] =         0.141901735352;
  BAS[ATNO][  3].a[  7] =         6.618900000000;     BAS[ATNO][  3].d[  7] =         0.132437856468;
  BAS[ATNO][  3].a[  8] =         2.995520000000;     BAS[ATNO][  3].d[  8] =        -0.165046760475;
  BAS[ATNO][  3].a[  9] =         1.649370000000;     BAS[ATNO][  3].d[  9] =        -0.197954506338;
  BAS[ATNO][  3].a[ 10] =     18774.299999999999;     BAS[ATNO][  3].d[ 10] =         0.000040963780;
  BAS[ATNO][  3].a[ 11] =      2824.810000000000;     BAS[ATNO][  3].d[ 11] =         0.000298125288;
  BAS[ATNO][  3].a[ 12] =       640.088000000000;     BAS[ATNO][  3].d[ 12] =         0.001261912001;
  BAS[ATNO][  3].a[ 13] =       172.616000000000;     BAS[ATNO][  3].d[ 13] =         0.002671748763;
  BAS[ATNO][  3].a[ 14] =        29.516900000000;     BAS[ATNO][  3].d[ 14] =        -0.021389920465;
  BAS[ATNO][  3].a[ 15] =        18.444800000000;     BAS[ATNO][  3].d[ 15] =         0.195020591477;
  BAS[ATNO][  3].a[ 16] =        11.523800000000;     BAS[ATNO][  3].d[ 16] =        -0.305206332424;
  BAS[ATNO][  3].a[ 17] =         6.618900000000;     BAS[ATNO][  3].d[ 17] =        -0.223087608085;
  BAS[ATNO][  3].a[ 18] =         2.995520000000;     BAS[ATNO][  3].d[ 18] =         0.381925802981;
  BAS[ATNO][  3].a[ 19] =         1.649370000000;     BAS[ATNO][  3].d[ 19] =         0.679120302763;
  BAS[ATNO][  3].a[ 20] =         0.860679000000;     BAS[ATNO][  3].d[ 20] =        -0.795162944427;
  BAS[ATNO][  3].a[ 21] =         0.442246000000;     BAS[ATNO][  3].d[ 21] =         1.885228386557;
  BAS[ATNO][  3].a[ 22] =         0.208182000000;     BAS[ATNO][  3].d[ 22] =        -5.192567344858;
  BAS[ATNO][  3].a[ 23] =         0.094828000000;     BAS[ATNO][  3].d[ 23] =         5.639307852081;
  BAS[ATNO][  3].a[ 24] =         0.036800000000;     BAS[ATNO][  3].d[ 24] =        -2.022321206365;

  // Basis function   5 L = s
  InitBFNGauss(BAS[ATNO][  4]);
  BAS[ATNO][  4].l  = 0;
  BAS[ATNO][  4].ng = 25;
  BAS[ATNO][  4].a[  0] =     18774.299999999999;     BAS[ATNO][  4].d[  0] =         0.000039249488;
  BAS[ATNO][  4].a[  1] =      2824.810000000000;     BAS[ATNO][  4].d[  1] =         0.000289176375;
  BAS[ATNO][  4].a[  2] =       640.088000000000;     BAS[ATNO][  4].d[  2] =         0.001210384946;
  BAS[ATNO][  4].a[  3] =       172.616000000000;     BAS[ATNO][  4].d[  3] =         0.002593352199;
  BAS[ATNO][  4].a[  4] =        29.516900000000;     BAS[ATNO][  4].d[  4] =        -0.027215479530;
  BAS[ATNO][  4].a[  5] =        18.444800000000;     BAS[ATNO][  4].d[  5] =         0.215891231469;
  BAS[ATNO][  4].a[  6] =        11.523800000000;     BAS[ATNO][  4].d[  6] =        -0.296002322440;
  BAS[ATNO][  4].a[  7] =         6.618900000000;     BAS[ATNO][  4].d[  7] =        -0.276260984380;
  BAS[ATNO][  4].a[  8] =         2.995520000000;     BAS[ATNO][  4].d[  8] =         0.344282078655;
  BAS[ATNO][  4].a[  9] =         1.649370000000;     BAS[ATNO][  4].d[  9] =         0.412926547151;
  BAS[ATNO][  4].a[ 10] =     18774.299999999999;     BAS[ATNO][  4].d[ 10] =        -0.000012460819;
  BAS[ATNO][  4].a[ 11] =      2824.810000000000;     BAS[ATNO][  4].d[ 11] =        -0.000090687070;
  BAS[ATNO][  4].a[ 12] =       640.088000000000;     BAS[ATNO][  4].d[ 12] =        -0.000383862446;
  BAS[ATNO][  4].a[ 13] =       172.616000000000;     BAS[ATNO][  4].d[ 13] =        -0.000812722293;
  BAS[ATNO][  4].a[ 14] =        29.516900000000;     BAS[ATNO][  4].d[ 14] =         0.006506624217;
  BAS[ATNO][  4].a[ 15] =        18.444800000000;     BAS[ATNO][  4].d[ 15] =        -0.059323535377;
  BAS[ATNO][  4].a[ 16] =        11.523800000000;     BAS[ATNO][  4].d[ 16] =         0.092841061150;
  BAS[ATNO][  4].a[ 17] =         6.618900000000;     BAS[ATNO][  4].d[ 17] =         0.067861273059;
  BAS[ATNO][  4].a[ 18] =         2.995520000000;     BAS[ATNO][  4].d[ 18] =        -0.116178444095;
  BAS[ATNO][  4].a[ 19] =         1.649370000000;     BAS[ATNO][  4].d[ 19] =        -0.206582376768;
  BAS[ATNO][  4].a[ 20] =         0.860679000000;     BAS[ATNO][  4].d[ 20] =         3.567100326504;
  BAS[ATNO][  4].a[ 21] =         0.442246000000;     BAS[ATNO][  4].d[ 21] =        -9.689053736068;
  BAS[ATNO][  4].a[ 22] =         0.208182000000;     BAS[ATNO][  4].d[ 22] =        10.115774525194;
  BAS[ATNO][  4].a[ 23] =         0.094828000000;     BAS[ATNO][  4].d[ 23] =        -5.229890791971;
  BAS[ATNO][  4].a[ 24] =         0.036800000000;     BAS[ATNO][  4].d[ 24] =         1.209410335174;

  // Basis function   6 L = s
  InitBFNGauss(BAS[ATNO][  5]);
  BAS[ATNO][  5].l  = 0;
  BAS[ATNO][  5].ng = 25;
  BAS[ATNO][  5].a[  0] =     18774.299999999999;     BAS[ATNO][  5].d[  0] =        -0.000359042826;
  BAS[ATNO][  5].a[  1] =      2824.810000000000;     BAS[ATNO][  5].d[  1] =        -0.002645300819;
  BAS[ATNO][  5].a[  2] =       640.088000000000;     BAS[ATNO][  5].d[  2] =        -0.011072247142;
  BAS[ATNO][  5].a[  3] =       172.616000000000;     BAS[ATNO][  5].d[  3] =        -0.023723226709;
  BAS[ATNO][  5].a[  4] =        29.516900000000;     BAS[ATNO][  5].d[  4] =         0.248959239384;
  BAS[ATNO][  5].a[  5] =        18.444800000000;     BAS[ATNO][  5].d[  5] =        -1.974909783133;
  BAS[ATNO][  5].a[  6] =        11.523800000000;     BAS[ATNO][  5].d[  6] =         2.707742590748;
  BAS[ATNO][  5].a[  7] =         6.618900000000;     BAS[ATNO][  5].d[  7] =         2.527154609466;
  BAS[ATNO][  5].a[  8] =         2.995520000000;     BAS[ATNO][  5].d[  8] =        -3.149391666659;
  BAS[ATNO][  5].a[  9] =         1.649370000000;     BAS[ATNO][  5].d[  9] =        -3.777331168731;
  BAS[ATNO][  5].a[ 10] =     18774.299999999999;     BAS[ATNO][  5].d[ 10] =         0.000495888687;
  BAS[ATNO][  5].a[ 11] =      2824.810000000000;     BAS[ATNO][  5].d[ 11] =         0.003608967668;
  BAS[ATNO][  5].a[ 12] =       640.088000000000;     BAS[ATNO][  5].d[ 12] =         0.015276126504;
  BAS[ATNO][  5].a[ 13] =       172.616000000000;     BAS[ATNO][  5].d[ 13] =         0.032342962157;
  BAS[ATNO][  5].a[ 14] =        29.516900000000;     BAS[ATNO][  5].d[ 14] =        -0.258936542859;
  BAS[ATNO][  5].a[ 15] =        18.444800000000;     BAS[ATNO][  5].d[ 15] =         2.360829617195;
  BAS[ATNO][  5].a[ 16] =        11.523800000000;     BAS[ATNO][  5].d[ 16] =        -3.694687537782;
  BAS[ATNO][  5].a[ 17] =         6.618900000000;     BAS[ATNO][  5].d[ 17] =        -2.700596016075;
  BAS[ATNO][  5].a[ 18] =         2.995520000000;     BAS[ATNO][  5].d[ 18] =         4.623418175571;
  BAS[ATNO][  5].a[ 19] =         1.649370000000;     BAS[ATNO][  5].d[ 19] =         8.221118150939;
  BAS[ATNO][  5].a[ 20] =         0.860679000000;     BAS[ATNO][  5].d[ 20] =       -13.103090676389;
  BAS[ATNO][  5].a[ 21] =         0.442246000000;     BAS[ATNO][  5].d[ 21] =        13.568367396678;
  BAS[ATNO][  5].a[ 22] =         0.208182000000;     BAS[ATNO][  5].d[ 22] =        -7.951387306153;
  BAS[ATNO][  5].a[ 23] =         0.094828000000;     BAS[ATNO][  5].d[ 23] =         3.129087594556;
  BAS[ATNO][  5].a[ 24] =         0.036800000000;     BAS[ATNO][  5].d[ 24] =        -0.665558148166;

  // Basis function   7 L = s
  InitBFNGauss(BAS[ATNO][  6]);
  BAS[ATNO][  6].l  = 0;
  BAS[ATNO][  6].ng = 25;
  BAS[ATNO][  6].a[  0] =     18774.299999999999;     BAS[ATNO][  6].d[  0] =        -0.000348540177;
  BAS[ATNO][  6].a[  1] =      2824.810000000000;     BAS[ATNO][  6].d[  1] =        -0.002567921010;
  BAS[ATNO][  6].a[  2] =       640.088000000000;     BAS[ATNO][  6].d[  2] =        -0.010748363989;
  BAS[ATNO][  6].a[  3] =       172.616000000000;     BAS[ATNO][  6].d[  3] =        -0.023029279638;
  BAS[ATNO][  6].a[  4] =        29.516900000000;     BAS[ATNO][  6].d[  4] =         0.241676733631;
  BAS[ATNO][  6].a[  5] =        18.444800000000;     BAS[ATNO][  6].d[  5] =        -1.917140118135;
  BAS[ATNO][  6].a[  6] =        11.523800000000;     BAS[ATNO][  6].d[  6] =         2.628536247397;
  BAS[ATNO][  6].a[  7] =         6.618900000000;     BAS[ATNO][  6].d[  7] =         2.453230789536;
  BAS[ATNO][  6].a[  8] =         2.995520000000;     BAS[ATNO][  6].d[  8] =        -3.057266293092;
  BAS[ATNO][  6].a[  9] =         1.649370000000;     BAS[ATNO][  6].d[  9] =        -3.666837434755;
  BAS[ATNO][  6].a[ 10] =     18774.299999999999;     BAS[ATNO][  6].d[ 10] =         0.000138865044;
  BAS[ATNO][  6].a[ 11] =      2824.810000000000;     BAS[ATNO][  6].d[ 11] =         0.001010628934;
  BAS[ATNO][  6].a[ 12] =       640.088000000000;     BAS[ATNO][  6].d[ 12] =         0.004277814840;
  BAS[ATNO][  6].a[ 13] =       172.616000000000;     BAS[ATNO][  6].d[ 13] =         0.009057086785;
  BAS[ATNO][  6].a[ 14] =        29.516900000000;     BAS[ATNO][  6].d[ 14] =        -0.072510697350;
  BAS[ATNO][  6].a[ 15] =        18.444800000000;     BAS[ATNO][  6].d[ 15] =         0.661109474845;
  BAS[ATNO][  6].a[ 16] =        11.523800000000;     BAS[ATNO][  6].d[ 16] =        -1.034633300103;
  BAS[ATNO][  6].a[ 17] =         6.618900000000;     BAS[ATNO][  6].d[ 17] =        -0.756255174432;
  BAS[ATNO][  6].a[ 18] =         2.995520000000;     BAS[ATNO][  6].d[ 18] =         1.294708241450;
  BAS[ATNO][  6].a[ 19] =         1.649370000000;     BAS[ATNO][  6].d[ 19] =         2.302181853287;
  BAS[ATNO][  6].a[ 20] =         0.860679000000;     BAS[ATNO][  6].d[ 20] =         3.773628318618;
  BAS[ATNO][  6].a[ 21] =         0.442246000000;     BAS[ATNO][  6].d[ 21] =        -3.405405776250;
  BAS[ATNO][  6].a[ 22] =         0.208182000000;     BAS[ATNO][  6].d[ 22] =         1.916463872184;
  BAS[ATNO][  6].a[ 23] =         0.094828000000;     BAS[ATNO][  6].d[ 23] =        -0.774067325970;
  BAS[ATNO][  6].a[ 24] =         0.036800000000;     BAS[ATNO][  6].d[ 24] =         0.171628631220;

  // Basis function   8 L = p
  InitBFNGauss(BAS[ATNO][  7]);
  BAS[ATNO][  7].l  = 1;
  BAS[ATNO][  7].ng = 19;
  BAS[ATNO][  7].a[  0] =       613.331000000000;     BAS[ATNO][  7].d[  0] =         0.000138002622;
  BAS[ATNO][  7].a[  1] =       141.710000000000;     BAS[ATNO][  7].d[  1] =         0.000853016207;
  BAS[ATNO][  7].a[  2] =        20.310600000000;     BAS[ATNO][  7].d[  2] =         0.055025045447;
  BAS[ATNO][  7].a[  3] =        11.033100000000;     BAS[ATNO][  7].d[  3] =        -0.252992806729;
  BAS[ATNO][  7].a[  4] =         6.895130000000;     BAS[ATNO][  7].d[  4] =         0.009746185172;
  BAS[ATNO][  7].a[  5] =         3.241660000000;     BAS[ATNO][  7].d[  5] =         0.526807009053;
  BAS[ATNO][  7].a[  6] =         1.665350000000;     BAS[ATNO][  7].d[  6] =         0.501841534722;
  BAS[ATNO][  7].a[  7] =       613.331000000000;     BAS[ATNO][  7].d[  7] =        -0.000000002970;
  BAS[ATNO][  7].a[  8] =       141.710000000000;     BAS[ATNO][  7].d[  8] =        -0.000000021884;
  BAS[ATNO][  7].a[  9] =        20.310600000000;     BAS[ATNO][  7].d[  9] =        -0.000001231124;
  BAS[ATNO][  7].a[ 10] =        11.033100000000;     BAS[ATNO][  7].d[ 10] =         0.000006240061;
  BAS[ATNO][  7].a[ 11] =         6.895130000000;     BAS[ATNO][  7].d[ 11] =        -0.000001399767;
  BAS[ATNO][  7].a[ 12] =         3.241660000000;     BAS[ATNO][  7].d[ 12] =        -0.000013525810;
  BAS[ATNO][  7].a[ 13] =         1.665350000000;     BAS[ATNO][  7].d[ 13] =        -0.000015873122;
  BAS[ATNO][  7].a[ 14] =         0.819786000000;     BAS[ATNO][  7].d[ 14] =         0.121626946481;
  BAS[ATNO][  7].a[ 15] =         0.387304000000;     BAS[ATNO][  7].d[ 15] =         0.004100227621;
  BAS[ATNO][  7].a[ 16] =         0.171566000000;     BAS[ATNO][  7].d[ 16] =         0.001338736279;
  BAS[ATNO][  7].a[ 17] =         0.072641000000;     BAS[ATNO][  7].d[ 17] =        -0.000328397466;
  BAS[ATNO][  7].a[ 18] =         0.028800000000;     BAS[ATNO][  7].d[ 18] =         0.000092023110;

  // Basis function   9 L = p
  InitBFNGauss(BAS[ATNO][  8]);
  BAS[ATNO][  8].l  = 1;
  BAS[ATNO][  8].ng = 19;
  BAS[ATNO][  8].a[  0] =       613.331000000000;     BAS[ATNO][  8].d[  0] =         0.000000007224;
  BAS[ATNO][  8].a[  1] =       141.710000000000;     BAS[ATNO][  8].d[  1] =         0.000000044655;
  BAS[ATNO][  8].a[  2] =        20.310600000000;     BAS[ATNO][  8].d[  2] =         0.000002880540;
  BAS[ATNO][  8].a[  3] =        11.033100000000;     BAS[ATNO][  8].d[  3] =        -0.000013244077;
  BAS[ATNO][  8].a[  4] =         6.895130000000;     BAS[ATNO][  8].d[  4] =         0.000000510209;
  BAS[ATNO][  8].a[  5] =         3.241660000000;     BAS[ATNO][  8].d[  5] =         0.000027578147;
  BAS[ATNO][  8].a[  6] =         1.665350000000;     BAS[ATNO][  8].d[  6] =         0.000026271214;
  BAS[ATNO][  8].a[  7] =       613.331000000000;     BAS[ATNO][  8].d[  7] =        -0.000049010266;
  BAS[ATNO][  8].a[  8] =       141.710000000000;     BAS[ATNO][  8].d[  8] =        -0.000361075631;
  BAS[ATNO][  8].a[  9] =        20.310600000000;     BAS[ATNO][  8].d[  9] =        -0.020313254801;
  BAS[ATNO][  8].a[ 10] =        11.033100000000;     BAS[ATNO][  8].d[ 10] =         0.102959565844;
  BAS[ATNO][  8].a[ 11] =         6.895130000000;     BAS[ATNO][  8].d[ 11] =        -0.023095837639;
  BAS[ATNO][  8].a[ 12] =         3.241660000000;     BAS[ATNO][  8].d[ 12] =        -0.223172745618;
  BAS[ATNO][  8].a[ 13] =         1.665350000000;     BAS[ATNO][  8].d[ 13] =        -0.261902858002;
  BAS[ATNO][  8].a[ 14] =         0.819786000000;     BAS[ATNO][  8].d[ 14] =         0.067523486462;
  BAS[ATNO][  8].a[ 15] =         0.387304000000;     BAS[ATNO][  8].d[ 15] =         0.470192460181;
  BAS[ATNO][  8].a[ 16] =         0.171566000000;     BAS[ATNO][  8].d[ 16] =         0.487835366650;
  BAS[ATNO][  8].a[ 17] =         0.072641000000;     BAS[ATNO][  8].d[ 17] =         0.157829527270;
  BAS[ATNO][  8].a[ 18] =         0.028800000000;     BAS[ATNO][  8].d[ 18] =         0.001570385465;

  // Basis function  10 L = p
  InitBFNGauss(BAS[ATNO][  9]);
  BAS[ATNO][  9].l  = 1;
  BAS[ATNO][  9].ng = 19;
  BAS[ATNO][  9].a[  0] =       613.331000000000;     BAS[ATNO][  9].d[  0] =         0.000000889808;
  BAS[ATNO][  9].a[  1] =       141.710000000000;     BAS[ATNO][  9].d[  1] =         0.000005500048;
  BAS[ATNO][  9].a[  2] =        20.310600000000;     BAS[ATNO][  9].d[  2] =         0.000354788549;
  BAS[ATNO][  9].a[  3] =        11.033100000000;     BAS[ATNO][  9].d[  3] =        -0.001631238105;
  BAS[ATNO][  9].a[  4] =         6.895130000000;     BAS[ATNO][  9].d[  4] =         0.000062841109;
  BAS[ATNO][  9].a[  5] =         3.241660000000;     BAS[ATNO][  9].d[  5] =         0.003396727670;
  BAS[ATNO][  9].a[  6] =         1.665350000000;     BAS[ATNO][  9].d[  6] =         0.003235756165;
  BAS[ATNO][  9].a[  7] =       613.331000000000;     BAS[ATNO][  9].d[  7] =         0.000006959015;
  BAS[ATNO][  9].a[  8] =       141.710000000000;     BAS[ATNO][  9].d[  8] =         0.000051269479;
  BAS[ATNO][  9].a[  9] =        20.310600000000;     BAS[ATNO][  9].d[  9] =         0.002884298748;
  BAS[ATNO][  9].a[ 10] =        11.033100000000;     BAS[ATNO][  9].d[ 10] =        -0.014619328600;
  BAS[ATNO][  9].a[ 11] =         6.895130000000;     BAS[ATNO][  9].d[ 11] =         0.003279400384;
  BAS[ATNO][  9].a[ 12] =         3.241660000000;     BAS[ATNO][  9].d[ 12] =         0.031688514575;
  BAS[ATNO][  9].a[ 13] =         1.665350000000;     BAS[ATNO][  9].d[ 13] =         0.037187840791;
  BAS[ATNO][  9].a[ 14] =         0.819786000000;     BAS[ATNO][  9].d[ 14] =         0.039033886648;
  BAS[ATNO][  9].a[ 15] =         0.387304000000;     BAS[ATNO][  9].d[ 15] =        -0.241766172499;
  BAS[ATNO][  9].a[ 16] =         0.171566000000;     BAS[ATNO][  9].d[ 16] =         0.255430313060;
  BAS[ATNO][  9].a[ 17] =         0.072641000000;     BAS[ATNO][  9].d[ 17] =        -0.899349603847;
  BAS[ATNO][  9].a[ 18] =         0.028800000000;     BAS[ATNO][  9].d[ 18] =         1.501752169403;

  // Basis function  11 L = p
  InitBFNGauss(BAS[ATNO][ 10]);
  BAS[ATNO][ 10].l  = 1;
  BAS[ATNO][ 10].ng = 19;
  BAS[ATNO][ 10].a[  0] =       613.331000000000;     BAS[ATNO][ 10].d[  0] =        -0.000008327828;
  BAS[ATNO][ 10].a[  1] =       141.710000000000;     BAS[ATNO][ 10].d[  1] =        -0.000051475632;
  BAS[ATNO][ 10].a[  2] =        20.310600000000;     BAS[ATNO][ 10].d[  2] =        -0.003320510167;
  BAS[ATNO][ 10].a[  3] =        11.033100000000;     BAS[ATNO][ 10].d[  3] =         0.015266960348;
  BAS[ATNO][ 10].a[  4] =         6.895130000000;     BAS[ATNO][ 10].d[  4] =        -0.000588137760;
  BAS[ATNO][ 10].a[  5] =         3.241660000000;     BAS[ATNO][ 10].d[  5] =        -0.031790396819;
  BAS[ATNO][ 10].a[  6] =         1.665350000000;     BAS[ATNO][ 10].d[  6] =        -0.030283844473;
  BAS[ATNO][ 10].a[  7] =       613.331000000000;     BAS[ATNO][ 10].d[  7] =         0.000035129764;
  BAS[ATNO][ 10].a[  8] =       141.710000000000;     BAS[ATNO][ 10].d[  8] =         0.000258813161;
  BAS[ATNO][ 10].a[  9] =        20.310600000000;     BAS[ATNO][ 10].d[  9] =         0.014560211903;
  BAS[ATNO][ 10].a[ 10] =        11.033100000000;     BAS[ATNO][ 10].d[ 10] =        -0.073799748526;
  BAS[ATNO][ 10].a[ 11] =         6.895130000000;     BAS[ATNO][ 10].d[ 11] =         0.016554722194;
  BAS[ATNO][ 10].a[ 12] =         3.241660000000;     BAS[ATNO][ 10].d[ 12] =         0.159966607955;
  BAS[ATNO][ 10].a[ 13] =         1.665350000000;     BAS[ATNO][ 10].d[ 13] =         0.187727724962;
  BAS[ATNO][ 10].a[ 14] =         0.819786000000;     BAS[ATNO][ 10].d[ 14] =        -0.251679413631;
  BAS[ATNO][ 10].a[ 15] =         0.387304000000;     BAS[ATNO][ 10].d[ 15] =         0.356042845978;
  BAS[ATNO][ 10].a[ 16] =         0.171566000000;     BAS[ATNO][ 10].d[ 16] =        -1.944310251595;
  BAS[ATNO][ 10].a[ 17] =         0.072641000000;     BAS[ATNO][ 10].d[ 17] =         2.902571323333;
  BAS[ATNO][ 10].a[ 18] =         0.028800000000;     BAS[ATNO][ 10].d[ 18] =        -1.223584437733;

  // Basis function  12 L = p
  InitBFNGauss(BAS[ATNO][ 11]);
  BAS[ATNO][ 11].l  = 1;
  BAS[ATNO][ 11].ng = 19;
  BAS[ATNO][ 11].a[  0] =       613.331000000000;     BAS[ATNO][ 11].d[  0] =         0.000006519532;
  BAS[ATNO][ 11].a[  1] =       141.710000000000;     BAS[ATNO][ 11].d[  1] =         0.000040298268;
  BAS[ATNO][ 11].a[  2] =        20.310600000000;     BAS[ATNO][ 11].d[  2] =         0.002599498149;
  BAS[ATNO][ 11].a[  3] =        11.033100000000;     BAS[ATNO][ 11].d[  3] =        -0.011951908942;
  BAS[ATNO][ 11].a[  4] =         6.895130000000;     BAS[ATNO][ 11].d[  4] =         0.000460430157;
  BAS[ATNO][ 11].a[  5] =         3.241660000000;     BAS[ATNO][ 11].d[  5] =         0.024887464128;
  BAS[ATNO][ 11].a[  6] =         1.665350000000;     BAS[ATNO][ 11].d[  6] =         0.023708042943;
  BAS[ATNO][ 11].a[  7] =       613.331000000000;     BAS[ATNO][ 11].d[  7] =         0.000034783489;
  BAS[ATNO][ 11].a[  8] =       141.710000000000;     BAS[ATNO][ 11].d[  8] =         0.000256262029;
  BAS[ATNO][ 11].a[  9] =        20.310600000000;     BAS[ATNO][ 11].d[  9] =         0.014416691277;
  BAS[ATNO][ 11].a[ 10] =        11.033100000000;     BAS[ATNO][ 11].d[ 10] =        -0.073072301278;
  BAS[ATNO][ 11].a[ 11] =         6.895130000000;     BAS[ATNO][ 11].d[ 11] =         0.016391541596;
  BAS[ATNO][ 11].a[ 12] =         3.241660000000;     BAS[ATNO][ 11].d[ 12] =         0.158389810323;
  BAS[ATNO][ 11].a[ 13] =         1.665350000000;     BAS[ATNO][ 11].d[ 13] =         0.185877284823;
  BAS[ATNO][ 11].a[ 14] =         0.819786000000;     BAS[ATNO][ 11].d[ 14] =         0.688566909360;
  BAS[ATNO][ 11].a[ 15] =         0.387304000000;     BAS[ATNO][ 11].d[ 15] =        -3.376143250640;
  BAS[ATNO][ 11].a[ 16] =         0.171566000000;     BAS[ATNO][ 11].d[ 16] =         4.120772433823;
  BAS[ATNO][ 11].a[ 17] =         0.072641000000;     BAS[ATNO][ 11].d[ 17] =        -2.310614121981;
  BAS[ATNO][ 11].a[ 18] =         0.028800000000;     BAS[ATNO][ 11].d[ 18] =         0.668316354860;

  // Basis function  13 L = p
  InitBFNGauss(BAS[ATNO][ 12]);
  BAS[ATNO][ 12].l  = 1;
  BAS[ATNO][ 12].ng = 19;
  BAS[ATNO][ 12].a[  0] =       613.331000000000;     BAS[ATNO][ 12].d[  0] =        -0.000220641375;
  BAS[ATNO][ 12].a[  1] =       141.710000000000;     BAS[ATNO][ 12].d[  1] =        -0.001363819514;
  BAS[ATNO][ 12].a[  2] =        20.310600000000;     BAS[ATNO][ 12].d[  2] =        -0.087975152359;
  BAS[ATNO][ 12].a[  3] =        11.033100000000;     BAS[ATNO][ 12].d[  3] =         0.404490001543;
  BAS[ATNO][ 12].a[  4] =         6.895130000000;     BAS[ATNO][ 12].d[  4] =        -0.015582397406;
  BAS[ATNO][ 12].a[  5] =         3.241660000000;     BAS[ATNO][ 12].d[  5] =        -0.842269670271;
  BAS[ATNO][ 12].a[  6] =         1.665350000000;     BAS[ATNO][ 12].d[  6] =        -0.802354366429;
  BAS[ATNO][ 12].a[  7] =       613.331000000000;     BAS[ATNO][ 12].d[  7] =         0.000363081356;
  BAS[ATNO][ 12].a[  8] =       141.710000000000;     BAS[ATNO][ 12].d[  8] =         0.002674946317;
  BAS[ATNO][ 12].a[  9] =        20.310600000000;     BAS[ATNO][ 12].d[  9] =         0.150486107373;
  BAS[ATNO][ 12].a[ 10] =        11.033100000000;     BAS[ATNO][ 12].d[ 10] =        -0.762752421131;
  BAS[ATNO][ 12].a[ 11] =         6.895130000000;     BAS[ATNO][ 12].d[ 11] =         0.171100236612;
  BAS[ATNO][ 12].a[ 12] =         3.241660000000;     BAS[ATNO][ 12].d[ 12] =         1.653324299260;
  BAS[ATNO][ 12].a[ 13] =         1.665350000000;     BAS[ATNO][ 12].d[ 13] =         1.940247488471;
  BAS[ATNO][ 12].a[ 14] =         0.819786000000;     BAS[ATNO][ 12].d[ 14] =        -4.545064999089;
  BAS[ATNO][ 12].a[ 15] =         0.387304000000;     BAS[ATNO][ 12].d[ 15] =         4.855340732250;
  BAS[ATNO][ 12].a[ 16] =         0.171566000000;     BAS[ATNO][ 12].d[ 16] =        -2.903841927113;
  BAS[ATNO][ 12].a[ 17] =         0.072641000000;     BAS[ATNO][ 12].d[ 17] =         1.240829919235;
  BAS[ATNO][ 12].a[ 18] =         0.028800000000;     BAS[ATNO][ 12].d[ 18] =        -0.340484288438;

  // Basis function  14 L = p
  InitBFNGauss(BAS[ATNO][ 13]);
  BAS[ATNO][ 13].l  = 1;
  BAS[ATNO][ 13].ng = 19;
[...]
<sp|dd>:          735 b            5 skpd (  0.7%)    0.018 s ( 0.024 ms/b)
<sp|df>: done
<sp|dg>: done
<sp|ff>: done
<sp|fg>: done
<sp|gg>: done
<sd|sd>:          630 b            0 skpd (  0.0%)    0.008 s ( 0.013 ms/b)
<sd|sf>:          735 b            0 skpd (  0.0%)    0.002 s ( 0.003 ms/b)
<sd|sg>:          490 b            0 skpd (  0.0%)    0.003 s ( 0.006 ms/b)
<sd|pp>:          980 b            0 skpd (  0.0%)    0.007 s ( 0.007 ms/b)
<sd|pd>:         1225 b           52 skpd (  4.2%)    0.012 s ( 0.011 ms/b)
<sd|pf>: done
<sd|pg>: done
<sd|dd>:          525 b            4 skpd (  0.8%)    0.028 s ( 0.054 ms/b)
<sd|df>:          525 b           18 skpd (  3.4%)    0.006 s ( 0.011 ms/b)
<sd|dg>:          350 b           14 skpd (  4.0%)    0.007 s ( 0.022 ms/b)
<sd|ff>: done
<sd|fg>: done
<sd|gg>: done
<sf|sf>:          231 b            0 skpd (  0.0%)    0.001 s ( 0.002 ms/b)
<sf|sg>:          294 b            0 skpd (  0.0%)    0.001 s ( 0.004 ms/b)
<sf|pp>:          588 b            0 skpd (  0.0%)    0.003 s ( 0.005 ms/b)
<sf|pd>: done
<sf|pf>: done
<sf|pg>: done
<sf|dd>:          315 b            6 skpd (  1.9%)    0.015 s ( 0.049 ms/b)
<sf|df>: done
<sf|dg>: done
<sf|ff>: done
<sf|fg>: done
<sf|gg>: done
<sg|sg>:          105 b            0 skpd (  0.0%)    0.001 s ( 0.010 ms/b)
<sg|pp>:          392 b            0 skpd (  0.0%)    0.004 s ( 0.010 ms/b)
<sg|pd>: done
<sg|pf>: done
<sg|pg>: done
<sg|dd>:          210 b            5 skpd (  2.4%)    0.020 s ( 0.097 ms/b)
<sg|df>: done
<sg|dg>: done
<sg|ff>: done
<sg|fg>: done
<sg|gg>: done
<pp|pp>:          406 b            0 skpd (  0.0%)    0.004 s ( 0.010 ms/b)
<pp|pd>:          980 b            0 skpd (  0.0%)    0.009 s ( 0.010 ms/b)
<pp|pf>:          588 b            0 skpd (  0.0%)    0.002 s ( 0.003 ms/b)
<pp|pg>:          392 b            0 skpd (  0.0%)    0.003 s ( 0.008 ms/b)
<pp|dd>:          420 b            0 skpd (  0.0%)    0.021 s ( 0.051 ms/b)
<pp|df>:          420 b            0 skpd (  0.0%)    0.004 s ( 0.009 ms/b)
<pp|dg>:          280 b            0 skpd (  0.0%)    0.006 s ( 0.020 ms/b)
<pp|ff>:          168 b            0 skpd (  0.0%)    0.001 s ( 0.007 ms/b)
<pp|fg>:          168 b            0 skpd (  0.0%)    0.002 s ( 0.011 ms/b)
<pp|gg>:           84 b            0 skpd (  0.0%)    0.002 s ( 0.029 ms/b)
<pd|pd>:          630 b            0 skpd (  0.0%)    0.021 s ( 0.033 ms/b)
<pd|pf>:          735 b            0 skpd (  0.0%)    0.004 s ( 0.006 ms/b)
<pd|pg>:          490 b            0 skpd (  0.0%)    0.008 s ( 0.016 ms/b)
<pd|dd>:          525 b            3 skpd (  0.6%)    0.044 s ( 0.084 ms/b)
<pd|df>:          525 b           15 skpd (  2.9%)    0.009 s ( 0.018 ms/b)
<pd|dg>:          350 b           12 skpd (  3.4%)    0.015 s ( 0.045 ms/b)
<pd|ff>: done
<pd|fg>: done
<pd|gg>: done
<pf|pf>:          231 b            0 skpd (  0.0%)    0.002 s ( 0.007 ms/b)
<pf|pg>:          294 b            0 skpd (  0.0%)    0.004 s ( 0.013 ms/b)
<pf|dd>:          315 b            5 skpd (  1.6%)    0.019 s ( 0.062 ms/b)
<pf|df>: done
<pf|dg>: done
<pf|ff>: done
<pf|fg>: done
<pf|gg>: done
<pg|pg>:          105 b            0 skpd (  0.0%)    0.004 s ( 0.034 ms/b)
<pg|dd>:          210 b            5 skpd (  2.4%)    0.027 s ( 0.129 ms/b)
<pg|df>: done
<pg|dg>: done
<pg|ff>: done
<pg|fg>: done
<pg|gg>: done
<dd|dd>:          120 b            0 skpd (  0.0%)    0.043 s ( 0.360 ms/b)
<dd|df>:          225 b            0 skpd (  0.0%)    0.010 s ( 0.044 ms/b)
<dd|dg>:          150 b            0 skpd (  0.0%)    0.017 s ( 0.112 ms/b)
<dd|ff>:           90 b            0 skpd (  0.0%)    0.003 s ( 0.034 ms/b)
<dd|fg>:           90 b            0 skpd (  0.0%)    0.005 s ( 0.052 ms/b)
<dd|gg>:           45 b            0 skpd (  0.0%)    0.006 s ( 0.124 ms/b)
<df|df>:          120 b            3 skpd (  2.5%)    0.005 s ( 0.041 ms/b)
<df|dg>:          150 b            5 skpd (  3.3%)    0.010 s ( 0.070 ms/b)
<df|ff>: done
<df|fg>: done
<df|gg>: done
<dg|dg>:           55 b            3 skpd (  5.5%)    0.008 s ( 0.148 ms/b)
<dg|ff>: done
<dg|fg>: done
<dg|gg>: done
<ff|ff>: done
<ff|fg>: done
<ff|gg>: done
<fg|fg>: done
<fg|gg>: done
<gg|gg>: done
Recanonicalizing the internal orbitals
Recanonicalizing the virtual orbitals
Time needed for Fock operator              ...            0.530 sec
Reference energy                           ...   -328.299143215

------------------------------
PARTIAL COULOMB TRANSFORMATION
------------------------------

Transformation type                        ... one-operator
Dimension of the basis                     ...   92
Number of internal MOs                     ...   88 (4-91)
Pair cutoff                                ... 0.000e+00 Eh
Number of AO pairs included in the trafo   ... 4278
Total Number of distinct AO pairs          ... 4278
Memory devoted for trafo                   ... 2500.0 MB 
Max. Number of MO pairs treated together   ... 76596      
Max. Number of MOs treated per batch       ...  832      
Number Format for Storage                  ... Double (8 Byte)
AO-integral source                         ... DIRECT
Integral package used                      ... LIBINT

Starting integral evaluation:
<ss|**>: <sp|**>:         8400 b        0 skpd     0.030 s (  0.004 ms/b)
<sd|**>:        14700 b        0 skpd     0.032 s (  0.002 ms/b)
       10500 b        0 skpd     0.081 s (  0.008 ms/b)
<sf|**>:         6300 b        0 skpd     0.018 s (  0.003 ms/b)
<sg|**>:         4200 b        0 skpd     0.043 s (  0.010 ms/b)
<pp|**>:         8400 b        0 skpd     0.052 s (  0.006 ms/b)
<pd|**>:        10500 b        0 skpd     0.124 s (  0.012 ms/b)
<pf|**>:         6300 b        0 skpd     0.027 s (  0.004 ms/b)
<pg|**>:         4200 b        0 skpd     0.050 s (  0.012 ms/b)
<dd|**>:         4500 b        0 skpd     0.303 s (  0.067 ms/b)
<df|**>:         4500 b        0 skpd     0.069 s (  0.015 ms/b)
<dg|**>:         3000 b        0 skpd     0.111 s (  0.037 ms/b)
<ff|**>:         1800 b        0 skpd     0.023 s (  0.013 ms/b)
<fg|**>:         1800 b        0 skpd     0.034 s (  0.019 ms/b)
<gg|**>:          900 b        0 skpd     0.050 s (  0.056 ms/b)
Closing buffer AOJ ( 0.01 GB; CompressionRatio= 1.00)
Collecting buffer AOJ 
    ... done with AO integral generation
Number of MO pairs included in the trafo   ... 3916
    ... Now sorting integrals
IBATCH = 1 of  1
Closing buffer JAO ( 0.01 GB; CompressionRatio= 1.00)
Collecting buffer JAO 
TOTAL TIME for half transformation         ...     1.145 sec
AO-integral generation                     ...     1.035 sec
Half transformation                        ...     0.019 sec
J-integral sorting                         ...     0.067 sec

-------------------------- SECOND HALF TRANSFORMATION -------------------------
Formation of (pq|rs)                       ... ok (     0.040 sec)
Integral sorting                           ... ok (     0.434 sec)

------------------
CLOSED SHELL GUESS
------------------

Initial guess performed in     0.006 sec
E(0)                                       ...   -328.299143215
E(MP2)                                     ...     -0.303231287
Initial E(tot)                             ...   -328.602374502
<T|T>                                      ...      0.085565239
Number of pairs included                   ... 45
Total number of pairs                      ... 45

------------------------------------------------
                  RHF COUPLED CLUSTER ITERATIONS
------------------------------------------------

Number of amplitudes to be optimized       ... 281556

Iter       E(tot)           E(Corr)          Delta-E          Residual     Time
  0   -328.602374502     -0.303231287      0.000000000      0.014306797    0.10
                           *** Turning on DIIS ***
  1   -328.601501195     -0.302357980      0.000873308      0.001901391    0.45
  2   -328.606431042     -0.307287827     -0.004929847      0.000788081    0.47
  3   -328.607250372     -0.308107157     -0.000819330      0.000169998    0.47
  4   -328.607314414     -0.308171199     -0.000064042      0.000062172    0.47
  5   -328.607320780     -0.308177565     -0.000006367      0.000016908    0.47
  6   -328.607321311     -0.308178096     -0.000000531      0.000004468    0.47
               --- The Coupled-Cluster iterations have converged ---

----------------------
COUPLED CLUSTER ENERGY
----------------------

E(0)                                       ...   -328.299143215
E(CORR)                                    ...     -0.308178096
E(TOT)                                     ...   -328.607321311
Singles Norm <S|S>**1/2                    ...      0.017885560  
T1 diagnostic                              ...      0.004215667  

------------------
LARGEST AMPLITUDES
------------------
  11-> 29  11-> 29       0.027290
  11-> 30  11-> 30       0.023274
  10-> 26  10-> 26       0.022789
  10-> 28  10-> 28       0.022750
  12-> 26  12-> 26       0.021782
  12-> 27  12-> 27       0.021623
  10-> 27  10-> 27       0.019603
  11-> 28  11-> 28       0.018271
  12-> 30  12-> 30       0.015982
  12-> 29  12-> 29       0.015557
  11-> 20  11-> 29       0.015350
  11-> 29  11-> 20       0.015350
  11-> 30  11-> 21       0.014767
  11-> 21  11-> 30       0.014767
  10-> 17  10-> 26       0.014377
  10-> 26  10-> 17       0.014377


        !!!!!!!!!!!!!!!!!!!!!!!!!!!!!!!!!!!!!!!!!!!!!!!!!!!!!!!!!!!!!!!!!!!!!!!!!! 
        !  Warning: Densities are linearized densities !                         !
        !!!!!!!!!!!!!!!!!!!!!!!!!!!!!!!!!!!!!!!!!!!!!!!!!!!!!!!!!!!!!!!!!!!!!!!!!! 

Trace of internal density part =     -0.184083497
Trace of external density part =      0.184083497
----------------------
RHF TRIPLES CORRECTION (Algorithm 1)
----------------------

Multiplier for the singles contribution    ...      1.000000000

10% done
20% done
30% done
40% done
50% done
60% done
70% done
80% done

Triples Correction (T)                     ...     -0.009736992
Scaling of triples based on CCSD energies (Peterson et al. Molecular Physics 113, 1551 (2015))
E(T*) = f*E(T) where f = E(F12-CCSD)/E(CCSD) 
f = CCSD (with F12)/ CCSD (without F12)    ...      1.000000000
Scaled triples correction (T)              ...     -0.009736992

Final correlation energy                   ...     -0.317915088
E(CCSD)                                    ...   -328.607321311
E(CCSD(T))                                 ...   -328.617058303

NORM  =      1.092361642 sqrt=     1.045161060
W(HF) =      0.915447743
------------------------------------------------------------------------------
                           ORCA POPULATION ANALYSIS
------------------------------------------------------------------------------
Input electron density              ... 54_Xe.mdcip
BaseName (.gbw .S,...)              ... 54_Xe

                    ********************************
                    * MULLIKEN POPULATION ANALYSIS *
                    ********************************

-----------------------
MULLIKEN ATOMIC CHARGES
-----------------------
   0 Xe:    0.000000
Sum of atomic charges:    0.0000000

--------------------------------
MULLIKEN REDUCED ORBITAL CHARGES
--------------------------------
  0 Xes       :     3.984240  s :     3.984240
      pz      :     3.962091  p :    11.886274
      px      :     3.962091
      py      :     3.962091
      dz2     :     2.017818  d :    10.089090
      dxz     :     2.017818
      dyz     :     2.017818
      dx2y2   :     2.017818
      dxy     :     2.017818
      f0      :     0.004780  f :     0.033457
      f+1     :     0.004780
      f-1     :     0.004780
      f+2     :     0.004780
      f-2     :     0.004780
      f+3     :     0.004780
      f-3     :     0.004780
      g0      :     0.000771  g :     0.006940
      g+1     :     0.000771
      g-1     :     0.000771
      g+2     :     0.000771
      g-2     :     0.000771
      g+3     :     0.000771
      g-3     :     0.000771
      g+4     :     0.000771
      g-4     :     0.000771


                     *******************************
                     * LOEWDIN POPULATION ANALYSIS *
                     *******************************

----------------------
LOEWDIN ATOMIC CHARGES
----------------------
   0 Xe:    0.000000

-------------------------------
LOEWDIN REDUCED ORBITAL CHARGES
-------------------------------
  0 Xes       :     3.984240  s :     3.984240
      pz      :     3.962091  p :    11.886274
      px      :     3.962091
      py      :     3.962091
      dz2     :     2.017818  d :    10.089090
      dxz     :     2.017818
      dyz     :     2.017818
      dx2y2   :     2.017818
      dxy     :     2.017818
      f0      :     0.004780  f :     0.033457
      f+1     :     0.004780
      f-1     :     0.004780
      f+2     :     0.004780
      f-2     :     0.004780
      f+3     :     0.004780
      f-3     :     0.004780
      g0      :     0.000771  g :     0.006940
      g+1     :     0.000771
      g-1     :     0.000771
      g+2     :     0.000771
      g-2     :     0.000771
      g+3     :     0.000771
      g-3     :     0.000771
      g+4     :     0.000771
      g-4     :     0.000771


                      *****************************
                      * MAYER POPULATION ANALYSIS *
                      *****************************

  NA   - Mulliken gross atomic population
  ZA   - Total nuclear charge
  QA   - Mulliken gross atomic charge
  VA   - Mayer's total valence
  BVA  - Mayer's bonded valence
  FA   - Mayer's free valence

  ATOM       NA         ZA         QA         VA         BVA        FA
  0 Xe    26.0000    26.0000     0.0000     0.7245     0.0000     0.7245





------------------------------------------------------------------------------- 
                                     TIMINGS                                   
------------------------------------------------------------------------------- 


Total execution time                   ...        5.632 sec

Fock Matrix Formation                  ...        0.530 sec (  9.4%)
Initial Guess                          ...        0.006 sec (  0.1%)
DIIS Solver                            ...        0.095 sec (  1.7%)
State Vector Update                    ...        0.005 sec (  0.1%)
Sigma-vector construction              ...        2.809 sec ( 49.9%)
  <D|H|D>(0-ext)                       ...        0.010 sec (  0.4% of sigma)
  <D|H|D>(2-ext)                       ...        0.022 sec (  0.8% of sigma)
  <D|H|D>(4-ext)                       ...        0.122 sec (  4.4% of sigma)
  <D|H|D>(4-ext-corr)                  ...        0.112 sec (  4.0% of sigma)
  <S|H|0>                              ...        0.002 sec (  0.1% of sigma)
  <S|H|S>                              ...        0.002 sec (  0.1% of sigma)
  <S|H|D>(1-ext)                       ...        0.007 sec (  0.3% of sigma)
  <D|H|S>(1-ext)                       ...        0.006 sec (  0.2% of sigma)
  <S|H|D>(3-ext)                       ...        0.093 sec (  3.3% of sigma)
  Fock-dressing                        ...        2.111 sec ( 75.2% of sigma)
  (ik|jl)-dressing                     ...        0.011 sec (  0.4% of sigma)
  (ij|ab),(ia|jb)-dressing             ...        0.246 sec (  8.8% of sigma)
  Pair energies                        ...        0.001 sec (  0.0% of sigma)
Total Time for computing (T)           ...        0.252 sec (  4.5% of ALL)
  I/O of integral and amplitudes       ...        0.088 sec ( 34.8% of (T))
  N**6 sorting step                    ...        0.062 sec ( 24.8% of (T))
  External N**7 contributions          ...        0.055 sec ( 22.0% of (T))
  Internal N**7 contributions          ...        0.021 sec (  8.3% of (T))
  N**6 triples energy contributions    ...        0.025 sec ( 10.1% of (T))
One-particle density matrix            ...        0.001 sec (  0.0%)


-------------------------   --------------------
FINAL SINGLE POINT ENERGY      -328.617058302666
-------------------------   --------------------


                            ***************************************
                            *     ORCA property calculations      *
                            ***************************************

                                    ---------------------
                                    Active property flags
                                    ---------------------
   (+) Dipole Moment


------------------------------------------------------------------------------
                       ORCA ELECTRIC PROPERTIES CALCULATION
------------------------------------------------------------------------------

Dipole Moment Calculation                       ... on
Quadrupole Moment Calculation                   ... off
Polarizability Calculation                      ... off
GBWName                                         ... 54_Xe.gbw
Electron density file                           ... 54_Xe.scfp
The origin for moment calculation is the CENTER OF MASS  = ( 0.000000,  0.000000  0.000000)

-------------
DIPOLE MOMENT
-------------
                                X             Y             Z
Electronic contribution:     -0.00000      -0.00000      -0.00000
Nuclear contribution   :      0.00000       0.00000       0.00000
                        -----------------------------------------
Total Dipole Moment    :     -0.00000      -0.00000      -0.00000
                        -----------------------------------------
Magnitude (a.u.)       :      0.00000
Magnitude (Debye)      :      0.00000



--------------------
Rotational spectrum 
--------------------
 
Rotational constants in cm-1:     0.000000     0.000000     0.000000 
Rotational constants in MHz :     0.000000     0.000000     0.000000 

 Dipole components along the rotational axes: 
x,y,z [a.u.] :    -0.000000    -0.000000    -0.000000 
x,y,z [Debye]:    -0.000000    -0.000000    -0.000000 

 

                           *** MDCI DENSITY ***

------------------------------------------------------------------------------
                       ORCA ELECTRIC PROPERTIES CALCULATION
------------------------------------------------------------------------------

Dipole Moment Calculation                       ... on
Quadrupole Moment Calculation                   ... off
Polarizability Calculation                      ... off
GBWName                                         ... 54_Xe.gbw
Electron density file                           ... 54_Xe.mdcip
The origin for moment calculation is the CENTER OF MASS  = ( 0.000000,  0.000000  0.000000)

-------------
DIPOLE MOMENT
-------------
                                X             Y             Z
Electronic contribution:      0.00000      -0.00000      -0.00000
Nuclear contribution   :      0.00000       0.00000       0.00000
                        -----------------------------------------
Total Dipole Moment    :      0.00000      -0.00000      -0.00000
                        -----------------------------------------
Magnitude (a.u.)       :      0.00000
Magnitude (Debye)      :      0.00000



--------------------
Rotational spectrum 
--------------------
 
Rotational constants in cm-1:     0.000000     0.000000     0.000000 
Rotational constants in MHz :     0.000000     0.000000     0.000000 

 Dipole components along the rotational axes: 
x,y,z [a.u.] :     0.000000    -0.000000    -0.000000 
x,y,z [Debye]:     0.000000    -0.000000    -0.000000 

 

Timings for individual modules:

Sum of individual times         ...       11.827 sec (=   0.197 min)
GTO integral calculation        ...        1.011 sec (=   0.017 min)   8.5 %
SCF iterations                  ...        4.673 sec (=   0.078 min)  39.5 %
MDCI module                     ...        6.144 sec (=   0.102 min)  51.9 %
                             ****ORCA TERMINATED NORMALLY****
TOTAL RUN TIME: 0 days 0 hours 0 minutes 12 seconds 442 msec
