
                                 *****************
                                 * O   R   C   A *
                                 *****************

           --- An Ab Initio, DFT and Semiempirical electronic structure package ---

                  #######################################################
                  #                        -***-                        #
                  #          Department of theory and spectroscopy      #
                  #               Directorship: Frank Neese             #
                  #        Max Planck Institute fuer Kohlenforschung    #
                  #                Kaiser Wilhelm Platz 1               #
                  #                 D-45470 Muelheim/Ruhr               #
                  #                      Germany                        #
                  #                                                     #
                  #                  All rights reserved                #
                  #                        -***-                        #
                  #######################################################


                         Program Version 4.2.0 -  RELEASE  -


 With contributions from (in alphabetic order):
   Daniel Aravena         : Magnetic Suceptibility
   Michael Atanasov       : Ab Initio Ligand Field Theory (pilot matlab implementation)
   Alexander A. Auer      : GIAO ZORA, VPT2
   Ute Becker             : Parallelization
   Giovanni Bistoni       : ED, misc. LED, open-shell LED, HFLED
   Martin Brehm           : Molecular dynamics
   Dmytro Bykov           : SCF Hessian
   Vijay G. Chilkuri      : MRCI spin determinant printing, contributions to CSF-ICE
   Dipayan Datta          : RHF DLPNO-CCSD density
   Achintya Kumar Dutta   : EOM-CC, STEOM-CC
   Dmitry Ganyushin       : Spin-Orbit,Spin-Spin,Magnetic field MRCI
   Miquel Garcia          : C-PCM Hessian, Gaussian charge scheme
   Yang Guo               : DLPNO-NEVPT2, CIM, IAO-localization
   Andreas Hansen         : Spin unrestricted coupled pair/coupled cluster methods
   Benjamin Helmich-Paris : CASSCF linear response (MC-RPA)
   Lee Huntington         : MR-EOM, pCC
   Robert Izsak           : Overlap fitted RIJCOSX, COSX-SCS-MP3, EOM
   Christian Kollmar      : KDIIS, OOCD, Brueckner-CCSD(T), CCSD density
   Simone Kossmann        : Meta GGA functionals, TD-DFT gradient, OOMP2, MP2 Hessian
   Martin Krupicka        : AUTO-CI
   Lucas Lang             : DCDCAS
   Dagmar Lenk            : GEPOL surface, SMD
   Dimitrios Liakos       : Extrapolation schemes; Compound Job, initial MDCI parallelization
   Dimitrios Manganas     : Further ROCIS development; embedding schemes
   Dimitrios Pantazis     : SARC Basis sets
   Taras Petrenko         : DFT Hessian,TD-DFT gradient, ASA, ECA, R-Raman, ABS, FL, XAS/XES, NRVS
   Peter Pinski           : DLPNO-MP2, DLPNO-MP2 Gradient
   Christoph Reimann      : Effective Core Potentials
   Marius Retegan         : Local ZFS, SOC
   Christoph Riplinger    : Optimizer, TS searches, QM/MM, DLPNO-CCSD(T), (RO)-DLPNO pert. Triples
   Tobias Risthaus        : Range-separated hybrids, TD-DFT gradient, RPA, STAB
   Michael Roemelt        : Original ROCIS implementation
   Masaaki Saitow         : Open-shell DLPNO-CCSD energy and density
   Barbara Sandhoefer     : DKH picture change effects
   Avijit Sen             : IP-ROCIS
   Kantharuban Sivalingam : CASSCF convergence, NEVPT2, FIC-MRCI
   Bernardo de Souza      : ESD, SOC TD-DFT
   Georgi Stoychev        : AutoAux, RI-MP2 NMR
   Willem Van den Heuvel  : Paramagnetic NMR
   Boris Wezisla          : Elementary symmetry handling
   Frank Wennmohs         : Technical directorship


 We gratefully acknowledge several colleagues who have allowed us to
 interface, adapt or use parts of their codes:
   Stefan Grimme, W. Hujo, H. Kruse,             : VdW corrections, initial TS optimization,
                  C. Bannwarth                     DFT functionals, gCP, sTDA/sTD-DF
   Ed Valeev, F. Pavosevic, A. Kumar             : LibInt (2-el integral package), F12 methods
   Garnet Chan, S. Sharma, J. Yang, R. Olivares  : DMRG
   Ulf Ekstrom                                   : XCFun DFT Library
   Mihaly Kallay                                 : mrcc  (arbitrary order and MRCC methods)
   Andreas Klamt, Michael Diedenhofen            : otool_cosmo (COSMO solvation model)
   Jiri Pittner, Ondrej Demel                    : Mk-CCSD
   Frank Weinhold                                : gennbo (NPA and NBO analysis)
   Christopher J. Cramer and Donald G. Truhlar   : smd solvation model
   Lars Goerigk                                  : TD-DFT with DH, B97 family of functionals
   V. Asgeirsson, H. Jonsson                     : NEB implementation
   FAccTs GmbH                                   : IRC, NEB, NEB-TS, Multilevel, MM, QM/MM, CI optimization
   S Lehtola, MJT Oliveira, MAL Marques          : LibXC Library


 Your calculation uses the libint2 library for the computation of 2-el integrals
 For citations please refer to: http://libint.valeyev.net

 Your ORCA version has been built with support for libXC version: 4.2.3
 For citations please refer to: https://tddft.org/programs/libxc/

 This ORCA versions uses:
   CBLAS   interface :  Fast vector & matrix operations
   LAPACKE interface :  Fast linear algebra routines
   SCALAPACK package :  Parallel linear algebra routines


Setting NCore(Ir) from 46 to 60
----- Orbital basis set information -----
Your calculation utilizes the basis: aug-cc-pVQZ-PP 
       Ca, Sr, Ba, Ra : Obtained from the Peterson Research Group Website (tyr0.chem.wsu.edu/~kipeters) Feb. 2017
                        H. Li, H. Feng, W. Sun, Y. Zhang, Q. Fan, K. A. Peterson, Y. Xie, H. F. Schaefer III, Mol. Phys. 111, 2292 (2013)
  Cu-Zn, Ag-Cd, Au-Hg : Obtained from the ccRepo (grant-hill.group.shef.ac.uk/ccrepo) Feb. 2017
                        K. A. Peterson, C. Puzzarini, Theor. Chem. Acc. 114, 283 (2005)
  Ga-Kr, In-Xe, Tl-Rn : Obtained from the ccRepo (grant-hill.group.shef.ac.uk/ccrepo) Feb. 2017
                        K. A. Peterson, J. Chem. Phys. 119, 11099 (2003)
                        K. A. Peterson, D. Figgen, E. Goll, H. Stoll, M. Dolg, J. Chem. Phys. 119, 11113 (2003)
                 Y-Pd : Obtained from the ccRepo (grant-hill.group.shef.ac.uk/ccrepo) Feb. 2017
                        K. A. Peterson, D. Figgen, M. Dolg, H. Stoll, J. Chem. Phys. 126, 124101 (2007)
                Hf-Pt : Obtained from the ccRepo (grant-hill.group.shef.ac.uk/ccrepo) Feb. 2017
                        D. Figgen, K. A. Peterson, M. Dolg, H. Stoll, J. Chem. Phys. 130, 164108 (2009)

cite the ECPs for Ir [SK MCDHF RSC] as follows:
O: B. Metz and H. Stoll, private communication (KAP)
Tl: B. Metz, M. Schweizer, H. Stoll, M. Dolg, W. Liu, Theor. Chem. Acc. 104, 22 (2000)
Ga-As, In-Sb, Pb-Bi: B. Metz, H. Stoll, M. Dolg, J. Chem. Phys. 113, 2563 (2000)
Se-Kr, Te-Xe, Po-Rn: K.A. Peterson, D. Figgen, E. Goll, H. Stoll, and M. Dolg, J. Chem. Phys., in press (2003)
Cu-Zn, Ag-Cd, Au-Hg: D. Figgen, G. Rauhut, M. Dolg, and H. Stoll, Chem. Phys. 311, 227 (2005)
Y-Pd: K.A. Peterson, D. Figgen, M. Dolg, H. Stoll, J. Chem. Phys. 126, 124101 (2007)
I: K. A. Peterson, B. C. Shepler, D. Figgen, H. Stoll, J. Phys. Chem. A 110, 13877 (2006)
Hf-Pt: D. Figgen, K.A. Peterson, M. Dolg, H. Stoll, J. Chem. Phys. 130, 164108 (2009)
Ca, Sr, Ba, Ra: I.S. Lim, H. Stoll, P. Schwerdtfeger, J. Chem. Phys. 124, 034107 (2006)

ECP parameters for Ir [SK MCDHF RSC] have been obtained from:
cc-pVDZ-PP  EMSL  Basis Set Exchange Library   4/7/16 5:27 AM
Ca, Sr, Ba, Ra: http://www.tc.uni-koeln.de/PP/index.en.html 3/16/17 1:54 PM

================================================================================
                                        WARNINGS
                       Please study these warnings very carefully!
================================================================================


WARNING: your system is open-shell and RHF/RKS was chosen
  ===> : WILL SWITCH to UHF/UKS


WARNING: MDCI localization with Augmented Hessian Foster-Boys
  ===> : Switching off randomization!

WARNING: Post HF methods need fully converged wavefunctions
  ===> : Setting SCFConvForced true
         You can overwrite this default with %scf ConvForced false 


INFO   : the flag for use of LIBINT has been found!

================================================================================
                                       INPUT FILE
================================================================================
NAME = 77_Ir.in
|  1> #
|  2> # 77_Ir CCSD(T)/aug-cc-pVQZ-PP
|  3> #
|  4> ! CCSD(T) aug-cc-pVQZ-PP tightscf slowconv
|  5> 
|  6> *xyz 0 4
|  7>  Ir 0.0 0.0 0.0
|  8> *
|  9> 
| 10> %maxcore 5000 
| 11> 
| 12> %pal
| 13> nprocs 24
| 14> end
| 15> 
| 16> %method
| 17> NewNCore Ir 60 end
| 18> end
| 19> 
| 20> 
| 21>                          ****END OF INPUT****
================================================================================

                       ****************************
                       * Single Point Calculation *
                       ****************************

---------------------------------
CARTESIAN COORDINATES (ANGSTROEM)
---------------------------------
  Ir     0.000000    0.000000    0.000000

----------------------------
CARTESIAN COORDINATES (A.U.)
----------------------------
  NO LB      ZA    FRAG     MASS         X           Y           Z
   0 Ir   17.0000*   0   192.220    0.000000    0.000000    0.000000
* core charge reduced due to ECP

--------------------------------
INTERNAL COORDINATES (ANGSTROEM)
--------------------------------
 Ir     0   0   0     0.000000000000     0.00000000     0.00000000

---------------------------
INTERNAL COORDINATES (A.U.)
---------------------------
 Ir     0   0   0     0.000000000000     0.00000000     0.00000000

---------------------
BASIS SET INFORMATION
---------------------
There are 1 groups of distinct atoms

 Group   1 Type Ir  : 67s52p38d4f3g2h contracted to 7s7p6d4f3g2h pattern {131313131311/101010101011/999911/1111/111/11}

Atom   0Ir   basis set group =>   1
-------------------------
ECP PARAMETER INFORMATION
-------------------------

 Group 1, Type Ir ECP SK MCDHF RSC (replacing 60 core electrons, lmax=5)

Atom   0Ir   ECP group =>   1



           ************************************************************
           *        Program running with 24 parallel MPI-processes    *
           *              working on a common directory               *
           ************************************************************
------------------------------------------------------------------------------
                           ORCA GTO INTEGRAL CALCULATION
------------------------------------------------------------------------------

                         BASIS SET STATISTICS AND STARTUP INFO

 # of primitive gaussian shells          ...  166
 # of primitive gaussian functions       ...  490
 # of contracted shells                  ...   29
 # of contracted basis functions         ...  135
 Highest angular momentum                ...    5
 Maximum contraction depth               ...   13
 Integral package used                   ... LIBINT
 Integral threshhold            Thresh   ...  2.500e-11
 Primitive cut-off              TCut     ...  2.500e-12


------------------------------ INTEGRAL EVALUATION ----------------------------


 * One electron integrals 

   ECP integrals                         ... done
 Pre-screening matrix                    ... done
 Shell pair data                         ... done (   0.000 sec)



           ************************************************************
           *        Program running with 24 parallel MPI-processes    *
           *              working on a common directory               *
           ************************************************************
-------------------------------------------------------------------------------
                                 ORCA SCF
-------------------------------------------------------------------------------

------------
SCF SETTINGS
------------
Hamiltonian:
 Ab initio Hamiltonian  Method          .... Hartree-Fock(GTOs)


General Settings:
 Integral files         IntName         .... 77_Ir
 Hartree-Fock type      HFTyp           .... UHF
 Total Charge           Charge          ....    0
 Multiplicity           Mult            ....    4
 Number of Electrons    NEL             ....   17
 Basis Dimension        Dim             ....  135
 Nuclear Repulsion      ENuc            ....      0.0000000000 Eh

Convergence Acceleration:
 DIIS                   CNVDIIS         .... on
   Start iteration      DIISMaxIt       ....     0
   Startup error        DIISStart       ....  0.200000
   # of expansion vecs  DIISMaxEq       ....     5
   Bias factor          DIISBfac        ....   1.050
   Max. coefficient     DIISMaxC        ....  10.000
 Newton-Raphson         CNVNR           .... off
 SOSCF                  CNVSOSCF        .... off
 Level Shifting         CNVShift        .... on
   Level shift para.    LevelShift      ....    0.2500
   Turn off err/grad.   ShiftErr        ....    0.0000
 Zerner damping         CNVZerner       .... off
 Static damping         CNVDamp         .... on
   Fraction old density DampFac         ....    0.8500
   Max. Damping (<1)    DampMax         ....    0.9800
   Min. Damping (>=0)   DampMin         ....    0.0000
   Turn off err/grad.   DampErr         ....    0.0300
 Fernandez-Rico         CNVRico         .... off

SCF Procedure:
 Maximum # iterations   MaxIter         ....   125
 SCF integral mode      SCFMode         .... Direct
   Integral package                     .... LIBINT
 Reset frequency        DirectResetFreq ....    20
 Integral Threshold     Thresh          ....  2.500e-11 Eh
 Primitive CutOff       TCut            ....  2.500e-12 Eh

Convergence Tolerance:
 Convergence Check Mode ConvCheckMode   .... Total+1el-Energy
 Convergence forced     ConvForced      .... 1
 Energy Change          TolE            ....  1.000e-08 Eh
 1-El. energy change                    ....  1.000e-05 Eh
 DIIS Error             TolErr          ....  5.000e-07


Diagonalization of the overlap matrix:
Smallest eigenvalue                        ... 1.932e-03
Time for diagonalization                   ...    0.004 sec
Threshold for overlap eigenvalues          ... 1.000e-08
Number of eigenvalues below threshold      ... 0
Time for construction of square roots      ...    0.002 sec
Total time needed                          ...    0.006 sec

-------------------
DFT GRID GENERATION
-------------------

General Integration Accuracy     IntAcc      ...  4.340
Radial Grid Type                 RadialGrid  ... Gauss-Chebyshev
Angular Grid (max. acc.)         AngularGrid ... Lebedev-110
Angular grid pruning method      GridPruning ... 3 (G Style)
Weight generation scheme         WeightScheme... Becke
Basis function cutoff            BFCut       ...    1.0000e-11
Integration weight cutoff        WCut        ...    1.0000e-14
Grids for H and He will be reduced by one unit

# of grid points (after initial pruning)     ...   3530 (   0.0 sec)
# of grid points (after weights+screening)   ...   3530 (   0.0 sec)
Grid point division into batches done        ...    0.0 sec
Reduced shell lists constructed in    0.0 sec

Total number of grid points                  ...     3530
Total number of batches                      ...       56
Average number of points per batch           ...       63
Average number of grid points per atom       ...     3530
Average number of shells per batch           ...    17.25 (59.48%)
Average number of basis functions per batch  ...    60.75 (45.00%)
Average number of large shells per batch     ...    14.25 (82.61%)
Average number of large basis fcns per batch ...    45.75 (75.31%)
Maximum spatial batch extension              ...  25.56, 38.92, 38.92 au
Average spatial batch extension              ...   1.31,  1.85,  2.08 au

Time for grid setup =    0.029 sec

------------------------------
INITIAL GUESS: MODEL POTENTIAL
------------------------------
Loading Hartree-Fock densities                     ... done
  calling /sw/apps/orca/orca_4_2_0_linux_x86-64_openmpi314/orca 77_Ir_atom77.inp > 77_Ir_atom77.out in order to generate an atomic fitting density for atom 0 (Ir with ECP) on-the-fly... 
    atom 0 (Ir), assumed electronic state with S=4: 1s2 2s2 2p6 3s2 3p6 4s2 3d10 4p6 5s2 4d10 5p6 6s2 4f14 5d7           ... done
Calculating cut-offs                               ... done
Setting up the integral package                    ... done
Initializing the effective Hamiltonian             ... done
Starting the Coulomb interaction                   ... done (   0.0 sec)
Reading the grid                                   ... done
Mapping shells                                     ... done
Starting the XC term evaluation                    ... done (   0.0 sec)
Transforming the Hamiltonian                       ... done (   0.0 sec)
Diagonalizing the Hamiltonian                      ... done (   0.0 sec)
Back transforming the eigenvectors                 ... done (   0.0 sec)
Now organizing SCF variables                       ... done
                      ------------------
                      INITIAL GUESS DONE (  29.4 sec)
                      ------------------
--------------
SCF ITERATIONS
--------------
ITER       Energy         Delta-E        Max-DP      RMS-DP      [F,P]     Damp
               ***  Starting incremental Fock matrix formation  ***
  0   -103.3886014535   0.000000000000 0.02908690  0.00054075  0.5110747 0.8500
  1   -103.4307963420  -0.042194888512 0.02579219  0.00048184  0.4299678 0.8500
                               ***Turning on DIIS***
  2   -103.4634050831  -0.032608741038 0.02170526  0.00040275  0.3596736 0.8500
  3   -103.8820008587  -0.418595775597 0.01784124  0.00032519  0.3015259 0.8500
  4   -104.0252560162  -0.143255157548 0.01492719  0.00026984  0.2557107 0.8500
  5   -103.9894911928   0.035764823405 0.01270050  0.00022891  0.2183013 0.8500
  6   -103.9253772062   0.064113986607 0.01085631  0.00019543  0.1865734 0.8500
  7   -103.8286111772   0.096766029017 0.00932812  0.00016773  0.1593430 0.8500
  8   -103.7758802353   0.052730941876 0.00796751  0.00014341  0.1356756 0.8500
  9   -103.7497476967   0.026132538611 0.00677360  0.00012217  0.1153478 0.8500
 10   -103.7320889387   0.017658758002 0.00575047  0.00010395  0.0980514 0.8500
 11   -103.7163790035   0.015709935153 0.00488303  0.00008845  0.0833751 0.8500
 12   -103.7013288402   0.015050163299 0.00414944  0.00007530  0.0709150 0.8500
 13   -103.6879748898   0.013353950471 0.00352715  0.00006412  0.0603208 0.8500
 14   -103.6767591373   0.011215752427 0.00299808  0.00005460  0.0513070 0.8500
 15   -103.6674742685   0.009284868881 0.00254807  0.00004649  0.0436383 0.8500
 16   -103.6597330262   0.007741242273 0.00216547  0.00003958  0.0371155 0.8500
 17   -103.6532116414   0.006521384814 0.00184031  0.00003370  0.0315682 0.8500
 18   -103.6476955127   0.005516128722 0.01042681  0.00019128  0.0268506 0.0000
 19   -103.6178321398   0.029863372849 0.00031873  0.00000396  0.0005121 0.0000
               *** Restarting incremental Fock matrix formation ***
                                   *** Resetting DIIS ***
 20   -103.6179952579  -0.000163118106 0.00025686  0.00000228  0.0003290 0.0000
 21   -103.6180846378  -0.000089379922 0.00018320  0.00000159  0.0001648 0.0000
 22   -103.6181418088  -0.000057171008 0.00017841  0.00000150  0.0001074 0.0000
 23   -103.6180141727   0.000127636145 0.00011505  0.00000078  0.0000444 0.0000
 24   -103.6180215433  -0.000007370640 0.00007577  0.00000049  0.0000224 0.0000
 25   -103.6180157803   0.000005763029 0.00004676  0.00000030  0.0000111 0.0000
 26   -103.6180055475   0.000010232819 0.00002673  0.00000018  0.0000054 0.0000
 27   -103.6180013732   0.000004174322 0.00001443  0.00000010  0.0000026 0.0000
 28   -103.6179981532   0.000003219928 0.00000709  0.00000005  0.0000012 0.0000
                            ***DIIS convergence achieved***

               *****************************************************
               *                     SUCCESS                       *
               *           SCF CONVERGED AFTER  29 CYCLES          *
               *****************************************************


----------------
TOTAL SCF ENERGY
----------------

Total Energy       :         -103.61799717 Eh           -2819.58905 eV

Components:
Nuclear Repulsion  :            0.00000000 Eh               0.00000 eV
Electronic Energy  :         -103.61799717 Eh           -2819.58905 eV
One Electron Energy:         -181.47667884 Eh           -4938.23149 eV
Two Electron Energy:           77.85868167 Eh            2118.64244 eV

Virial components:
Potential Energy   :         -139.14703036 Eh           -3786.38319 eV
Kinetic Energy     :           35.52903319 Eh             966.79414 eV
Virial Ratio       :            3.91643166


---------------
SCF CONVERGENCE
---------------

  Last Energy change         ...    9.8419e-07  Tolerance :   1.0000e-08
  Last MAX-Density change    ...    3.5295e-06  Tolerance :   1.0000e-07
  Last RMS-Density change    ...    2.4429e-08  Tolerance :   5.0000e-09
  Last DIIS Error            ...    5.7000e-07  Tolerance :   5.0000e-07

             **** THE GBW FILE WAS UPDATED (77_Ir.gbw) ****
             **** DENSITY FILE WAS UPDATED (77_Ir.scfp) ****
             **** ENERGY FILE WAS UPDATED (77_Ir.en.tmp) ****
----------------------
UHF SPIN CONTAMINATION
----------------------

Expectation value of <S**2>     :     3.753800
Ideal value S*(S+1) for S=1.5   :     3.750000
Deviation                       :     0.003800

             **** THE GBW FILE WAS UPDATED (77_Ir.gbw) ****
             **** DENSITY FILE WAS UPDATED (77_Ir.scfp) ****
----------------
ORBITAL ENERGIES
----------------
                 SPIN UP ORBITALS
  NO   OCC          E(Eh)            E(eV) 
   0   1.0000      -4.159758      -113.1928 
   1   1.0000      -2.435613       -66.2764 
   2   1.0000      -2.435613       -66.2764 
   3   1.0000      -2.435613       -66.2764 
   4   1.0000      -0.430035       -11.7019 
   5   1.0000      -0.430035       -11.7019 
   6   1.0000      -0.391138       -10.6434 
   7   1.0000      -0.391138       -10.6434 
   8   1.0000      -0.391138       -10.6434 
   9   1.0000      -0.292436        -7.9576 
  10   0.0000       0.018376         0.5000 
  11   0.0000       0.018376         0.5000 
  12   0.0000       0.018376         0.5000 
  13   0.0000       0.035460         0.9649 
  14   0.0000       0.055006         1.4968 
  15   0.0000       0.055006         1.4968 
  16   0.0000       0.055006         1.4968 
  17   0.0000       0.067965         1.8494 
  18   0.0000       0.067965         1.8494 
  19   0.0000       0.068221         1.8564 
  20   0.0000       0.068221         1.8564 
  21   0.0000       0.068221         1.8564 
  22   0.0000       0.170940         4.6515 
  23   0.0000       0.170940         4.6515 
  24   0.0000       0.170940         4.6515 
  25   0.0000       0.215634         5.8677 
  26   0.0000       0.215634         5.8677 
  27   0.0000       0.217988         5.9318 
  28   0.0000       0.217988         5.9318 
  29   0.0000       0.217988         5.9318 
  30   0.0000       0.327367         8.9081 
  31   0.0000       0.388303        10.5663 
  32   0.0000       0.388303        10.5663 
  33   0.0000       0.388303        10.5663 
  34   0.0000       0.389509        10.5991 
  35   0.0000       0.389509        10.5991 
  36   0.0000       0.389509        10.5991 
  37   0.0000       0.391065        10.6414 
  38   0.0000       0.552493        15.0341 
  39   0.0000       0.552493        15.0341 
  40   0.0000       0.552493        15.0341 
  41   0.0000       0.622468        16.9382 
  42   0.0000       0.622468        16.9382 
  43   0.0000       0.631939        17.1959 
  44   0.0000       0.631939        17.1959 
  45   0.0000       0.631939        17.1959 
  46   0.0000       1.015699        27.6386 
  47   0.0000       1.015699        27.6386 
  48   0.0000       1.015699        27.6386 
  49   0.0000       1.023348        27.8467 
  50   0.0000       1.023348        27.8467 
  51   0.0000       1.023348        27.8467 
  52   0.0000       1.033207        28.1150 
  53   0.0000       1.098666        29.8962 
  54   0.0000       1.100354        29.9421 
  55   0.0000       1.100354        29.9421 
  56   0.0000       1.100354        29.9421 
  57   0.0000       1.101607        29.9762 
  58   0.0000       1.101607        29.9762 
  59   0.0000       1.105420        30.0800 
  60   0.0000       1.105420        30.0800 
  61   0.0000       1.105420        30.0800 
  62   0.0000       1.517510        41.2935 
  63   0.0000       1.748194        47.5708 
  64   0.0000       1.748194        47.5708 
  65   0.0000       1.748194        47.5708 
  66   0.0000       1.853767        50.4436 
  67   0.0000       1.853767        50.4436 
  68   0.0000       1.875546        51.0362 
  69   0.0000       1.875546        51.0362 
  70   0.0000       1.875546        51.0362 
  71   0.0000       2.283593        62.1397 
  72   0.0000       2.283593        62.1397 
  73   0.0000       2.283593        62.1397 
  74   0.0000       2.298745        62.5520 
  75   0.0000       2.298745        62.5520 
  76   0.0000       2.298746        62.5520 
  77   0.0000       2.318299        63.0841 
  78   0.0000       2.576920        70.1216 
  79   0.0000       2.576920        70.1216 
  80   0.0000       2.576920        70.1216 
  81   0.0000       2.579692        70.1970 
  82   0.0000       2.579692        70.1970 
  83   0.0000       2.579692        70.1970 
  84   0.0000       2.587295        70.4039 
  85   0.0000       2.587295        70.4039 
  86   0.0000       2.588721        70.4427 
  87   0.0000       2.588721        70.4427 
  88   0.0000       2.588721        70.4427 
  89   0.0000       2.792725        75.9939 
  90   0.0000       2.798791        76.1590 
  91   0.0000       2.798791        76.1590 
  92   0.0000       2.798791        76.1590 
  93   0.0000       2.803416        76.2848 
  94   0.0000       2.803416        76.2848 
  95   0.0000       2.817379        76.6648 
  96   0.0000       2.817379        76.6648 
  97   0.0000       2.817379        76.6648 
  98   0.0000       5.287196       143.8719 
  99   0.0000       5.287196       143.8719 
 100   0.0000       5.287196       143.8719 
 101   0.0000       5.317307       144.6913 
 102   0.0000       5.351231       145.6144 
 103   0.0000       5.351231       145.6144 
 104   0.0000       5.378034       146.3438 
 105   0.0000       5.378034       146.3438 
 106   0.0000       5.378034       146.3438 
 107   0.0000       5.632834       153.2772 
 108   0.0000       5.632834       153.2772 
 109   0.0000       5.632834       153.2772 
 110   0.0000       5.648795       153.7115 
 111   0.0000       5.648795       153.7115 
 112   0.0000       5.648795       153.7115 
 113   0.0000       5.669214       154.2671 
 114   0.0000       6.335152       172.3883 
 115   0.0000       6.335152       172.3883 
 116   0.0000       6.335152       172.3883 
 117   0.0000       6.341692       172.5662 
 118   0.0000       6.341692       172.5662 
 119   0.0000       6.341692       172.5662 
 120   0.0000       6.359642       173.0547 
 121   0.0000       6.359642       173.0547 
 122   0.0000       6.363003       173.1461 
 123   0.0000       6.363003       173.1461 
 124   0.0000       6.363003       173.1461 
 125   0.0000       6.404912       174.2865 
 126   0.0000       6.413899       174.5311 
 127   0.0000       6.413899       174.5311 
 128   0.0000       6.413899       174.5311 
 129   0.0000       6.420729       174.7169 
 130   0.0000       6.420729       174.7169 
 131   0.0000       6.441313       175.2770 
 132   0.0000       6.441313       175.2770 
 133   0.0000       6.441313       175.2770 
 134   0.0000      19.090186       519.4704 

                 SPIN DOWN ORBITALS
  NO   OCC          E(Eh)            E(eV) 
   0   1.0000      -4.058244      -110.4304 
   1   1.0000      -2.297879       -62.5285 
   2   1.0000      -2.297879       -62.5285 
   3   1.0000      -2.297879       -62.5285 
   4   1.0000      -0.338306        -9.2058 
   5   1.0000      -0.338306        -9.2058 
   6   1.0000      -0.338306        -9.2058 
   7   0.0000      -0.003502        -0.0953 
   8   0.0000       0.022794         0.6203 
   9   0.0000       0.022794         0.6203 
  10   0.0000       0.022794         0.6203 
  11   0.0000       0.060237         1.6391 
  12   0.0000       0.066972         1.8224 
  13   0.0000       0.066972         1.8224 
  14   0.0000       0.068825         1.8728 
  15   0.0000       0.068825         1.8728 
  16   0.0000       0.068825         1.8728 
  17   0.0000       0.077355         2.1049 
  18   0.0000       0.077355         2.1049 
  19   0.0000       0.077355         2.1049 
  20   0.0000       0.148073         4.0293 
  21   0.0000       0.148073         4.0293 
  22   0.0000       0.208829         5.6825 
  23   0.0000       0.208829         5.6825 
  24   0.0000       0.208829         5.6825 
  25   0.0000       0.224058         6.0969 
  26   0.0000       0.224058         6.0969 
  27   0.0000       0.224058         6.0969 
  28   0.0000       0.256605         6.9826 
  29   0.0000       0.256605         6.9826 
  30   0.0000       0.381126        10.3710 
  31   0.0000       0.399009        10.8576 
  32   0.0000       0.400718        10.9041 
  33   0.0000       0.400718        10.9041 
  34   0.0000       0.400718        10.9041 
  35   0.0000       0.401821        10.9341 
  36   0.0000       0.401821        10.9341 
  37   0.0000       0.401821        10.9341 
  38   0.0000       0.596359        16.2278 
  39   0.0000       0.596359        16.2278 
  40   0.0000       0.596359        16.2278 
  41   0.0000       0.650227        17.6936 
  42   0.0000       0.650227        17.6936 
  43   0.0000       0.650227        17.6936 
  44   0.0000       0.686852        18.6902 
  45   0.0000       0.686852        18.6902 
  46   0.0000       1.052519        28.6405 
  47   0.0000       1.071943        29.1691 
  48   0.0000       1.071943        29.1691 
  49   0.0000       1.071943        29.1691 
  50   0.0000       1.086373        29.5617 
  51   0.0000       1.086373        29.5617 
  52   0.0000       1.086373        29.5617 
  53   0.0000       1.119421        30.4610 
  54   0.0000       1.119484        30.4627 
  55   0.0000       1.119484        30.4627 
  56   0.0000       1.119484        30.4627 
  57   0.0000       1.119509        30.4634 
  58   0.0000       1.119509        30.4634 
  59   0.0000       1.119509        30.4634 
  60   0.0000       1.119599        30.4658 
  61   0.0000       1.119599        30.4658 
  62   0.0000       1.567158        42.6445 
  63   0.0000       1.790712        48.7277 
  64   0.0000       1.790712        48.7277 
  65   0.0000       1.790712        48.7277 
  66   0.0000       1.899543        51.6892 
  67   0.0000       1.899543        51.6892 
  68   0.0000       1.899543        51.6892 
  69   0.0000       1.932476        52.5853 
  70   0.0000       1.932476        52.5853 
  71   0.0000       2.328267        63.3554 
  72   0.0000       2.358200        64.1699 
  73   0.0000       2.358200        64.1699 
  74   0.0000       2.358200        64.1699 
  75   0.0000       2.381997        64.8174 
  76   0.0000       2.381997        64.8174 
  77   0.0000       2.381997        64.8174 
  78   0.0000       2.602080        70.8062 
  79   0.0000       2.602080        70.8062 
  80   0.0000       2.602080        70.8062 
  81   0.0000       2.603002        70.8313 
  82   0.0000       2.603002        70.8313 
  83   0.0000       2.603002        70.8313 
  84   0.0000       2.605140        70.8895 
  85   0.0000       2.605140        70.8895 
  86   0.0000       2.605604        70.9021 
  87   0.0000       2.605604        70.9021 
  88   0.0000       2.605604        70.9021 
  89   0.0000       2.844147        77.3932 
  90   0.0000       2.844147        77.3932 
  91   0.0000       2.844147        77.3932 
  92   0.0000       2.849378        77.5355 
  93   0.0000       2.849378        77.5355 
  94   0.0000       2.850602        77.5688 
  95   0.0000       2.850602        77.5688 
  96   0.0000       2.850602        77.5688 
  97   0.0000       2.852873        77.6306 
  98   0.0000       5.319061       144.7390 
  99   0.0000       5.319061       144.7390 
 100   0.0000       5.319061       144.7390 
 101   0.0000       5.350559       145.5961 
 102   0.0000       5.395768       146.8263 
 103   0.0000       5.395768       146.8263 
 104   0.0000       5.395768       146.8263 
 105   0.0000       5.412384       147.2785 
 106   0.0000       5.412384       147.2785 
 107   0.0000       5.674375       154.4076 
 108   0.0000       5.686917       154.7489 
 109   0.0000       5.686917       154.7489 
 110   0.0000       5.686917       154.7489 
 111   0.0000       5.696654       155.0138 
 112   0.0000       5.696654       155.0138 
 113   0.0000       5.696654       155.0138 
 114   0.0000       6.381825       173.6583 
 115   0.0000       6.381825       173.6583 
 116   0.0000       6.381825       173.6583 
 117   0.0000       6.382854       173.6863 
 118   0.0000       6.382854       173.6863 
 119   0.0000       6.382854       173.6863 
 120   0.0000       6.385065       173.7465 
 121   0.0000       6.385065       173.7465 
 122   0.0000       6.385556       173.7598 
 123   0.0000       6.385556       173.7598 
 124   0.0000       6.385556       173.7598 
 125   0.0000       6.463101       175.8699 
 126   0.0000       6.463101       175.8699 
 127   0.0000       6.463101       175.8699 
 128   0.0000       6.468144       176.0071 
 129   0.0000       6.468144       176.0071 
 130   0.0000       6.469489       176.0437 
 131   0.0000       6.469489       176.0437 
 132   0.0000       6.469489       176.0437 
 133   0.0000       6.471700       176.1039 
 134   0.0000      19.095201       519.6068 

                    ********************************
                    * MULLIKEN POPULATION ANALYSIS *
                    ********************************

--------------------------------------------
MULLIKEN ATOMIC CHARGES AND SPIN POPULATIONS
--------------------------------------------
   0 Ir:    0.000000    3.000000
Sum of atomic charges         :    0.0000000
Sum of atomic spin populations:    3.0000000

-----------------------------------------------------
MULLIKEN REDUCED ORBITAL CHARGES AND SPIN POPULATIONS
-----------------------------------------------------
CHARGE
  0 Irs       :     2.999889  s :     2.999889
      pz      :     1.999438  p :     5.998313
      px      :     1.999438
      py      :     1.999438
      dz2     :     0.999954  d :     7.999792
      dxz     :     1.999961
      dyz     :     1.999961
      dx2y2   :     0.999954
      dxy     :     1.999961
      f0      :     0.000553  f :     0.001658
      f+1     :     0.000207
      f-1     :     0.000207
      f+2     :     0.000000
      f-2     :     0.000000
      f+3     :     0.000345
      f-3     :     0.000345
      g0      :     0.000084  g :     0.000320
      g+1     :     0.000005
      g-1     :     0.000005
      g+2     :     0.000046
      g-2     :     0.000039
      g+3     :     0.000034
      g-3     :     0.000034
      g+4     :     0.000073
      g-4     :     0.000000
      h0      :     0.000008  h :     0.000029
      h+1     :     0.000005
      h-1     :     0.000005
      h+2     :     0.000000
      h-2     :     0.000000
      h+3     :     0.000000
      h-3     :     0.000000
      h+4     :     0.000002
      h-4     :     0.000000
      h+5     :     0.000005
      h-5     :     0.000005

SPIN
  0 Irs       :     0.999978  s :     0.999978
      pz      :     0.000481  p :     0.001444
      px      :     0.000481
      py      :     0.000481
      dz2     :     0.999954  d :     1.999954
      dxz     :     0.000015
      dyz     :     0.000015
      dx2y2   :     0.999954
      dxy     :     0.000015
      f0      :    -0.000484  f :    -0.001452
      f+1     :    -0.000182
      f-1     :    -0.000182
      f+2     :    -0.000000
      f-2     :    -0.000000
      f+3     :    -0.000303
      f-3     :    -0.000303
      g0      :     0.000032  g :     0.000068
      g+1     :    -0.000002
      g-1     :    -0.000002
      g+2     :     0.000046
      g-2     :    -0.000015
      g+3     :    -0.000013
      g-3     :    -0.000013
      g+4     :     0.000036
      g-4     :     0.000000
      h0      :     0.000002  h :     0.000008
      h+1     :     0.000001
      h-1     :     0.000001
      h+2     :     0.000000
      h-2     :     0.000000
      h+3     :     0.000000
      h-3     :     0.000000
      h+4     :     0.000000
      h-4     :     0.000000
      h+5     :     0.000001
      h-5     :     0.000001


                     *******************************
                     * LOEWDIN POPULATION ANALYSIS *
                     *******************************

-------------------------------------------
LOEWDIN ATOMIC CHARGES AND SPIN POPULATIONS
-------------------------------------------
   0 Ir:   -0.000000    3.000000

----------------------------------------------------
LOEWDIN REDUCED ORBITAL CHARGES AND SPIN POPULATIONS
----------------------------------------------------
CHARGE
  0 Irs       :     2.999889  s :     2.999889
      pz      :     1.999438  p :     5.998313
      px      :     1.999438
      py      :     1.999438
      dz2     :     0.999954  d :     7.999792
      dxz     :     1.999961
      dyz     :     1.999961
      dx2y2   :     0.999954
      dxy     :     1.999961
      f0      :     0.000553  f :     0.001658
      f+1     :     0.000207
      f-1     :     0.000207
      f+2     :     0.000000
      f-2     :     0.000000
      f+3     :     0.000345
      f-3     :     0.000345
      g0      :     0.000084  g :     0.000320
      g+1     :     0.000005
      g-1     :     0.000005
      g+2     :     0.000046
      g-2     :     0.000039
      g+3     :     0.000034
      g-3     :     0.000034
      g+4     :     0.000073
      g-4     :     0.000000
      h0      :     0.000008  h :     0.000029
      h+1     :     0.000005
      h-1     :     0.000005
      h+2     :     0.000000
      h-2     :     0.000000
      h+3     :     0.000000
      h-3     :     0.000000
      h+4     :     0.000002
      h-4     :     0.000000
      h+5     :     0.000005
      h-5     :     0.000005

SPIN
  0 Irs       :     0.999978  s :     0.999978
      pz      :     0.000481  p :     0.001444
      px      :     0.000481
      py      :     0.000481
      dz2     :     0.999954  d :     1.999954
      dxz     :     0.000015
      dyz     :     0.000015
      dx2y2   :     0.999954
      dxy     :     0.000015
      f0      :    -0.000484  f :    -0.001452
      f+1     :    -0.000182
      f-1     :    -0.000182
      f+2     :    -0.000000
      f-2     :    -0.000000
      f+3     :    -0.000303
      f-3     :    -0.000303
      g0      :     0.000032  g :     0.000068
      g+1     :    -0.000002
      g-1     :    -0.000002
      g+2     :     0.000046
      g-2     :    -0.000015
      g+3     :    -0.000013
      g-3     :    -0.000013
      g+4     :     0.000036
      g-4     :     0.000000
      h0      :     0.000002  h :     0.000008
      h+1     :     0.000001
      h-1     :     0.000001
      h+2     :     0.000000
      h-2     :     0.000000
      h+3     :     0.000000
      h-3     :     0.000000
      h+4     :     0.000000
      h-4     :     0.000000
      h+5     :     0.000001
      h-5     :     0.000001


                      *****************************
                      * MAYER POPULATION ANALYSIS *
                      *****************************

  NA   - Mulliken gross atomic population
  ZA   - Total nuclear charge
  QA   - Mulliken gross atomic charge
  VA   - Mayer's total valence
  BVA  - Mayer's bonded valence
  FA   - Mayer's free valence

  ATOM       NA         ZA         QA         VA         BVA        FA
  0 Ir    17.0000    17.0000    -0.0000     3.0076     0.0000     3.0076

  Mayer bond orders larger than 0.100000


-------
TIMINGS
-------

Total SCF time: 0 days 0 hours 2 min 23 sec 

Total time                  ....     143.422 sec
Sum of individual times     ....     143.132 sec  ( 99.8%)

Fock matrix formation       ....     113.489 sec  ( 79.1%)
Diagonalization             ....       0.140 sec  (  0.1%)
Density matrix formation    ....       0.017 sec  (  0.0%)
Population analysis         ....       0.006 sec  (  0.0%)
Initial guess               ....      29.393 sec  ( 20.5%)
Orbital Transformation      ....       0.000 sec  (  0.0%)
Orbital Orthonormalization  ....       0.000 sec  (  0.0%)
DIIS solution               ....       0.057 sec  (  0.0%)


           ************************************************************
           *        Program running with 24 parallel MPI-processes    *
           *              working on a common directory               *
           ************************************************************


------------------------------------------------------------------------------- 
                              ORCA-MATRIX DRIVEN CI                            
------------------------------------------------------------------------------- 

--------------------------------
AUTOMATIC CHOICE OF INCORE LEVEL
--------------------------------

Memory available                           ...   2500.00 MB
Memory needed for S+T                      ...     19.67 MB
Memory needed for J+K                      ...     39.44 MB
Memory needed for DIIS                     ...    275.37 MB
Memory needed for 3-ext                    ...    149.01 MB
Memory needed for 4-ext                    ...    938.77 MB
Memory needed for triples                  ...     74.51 MB
 -> Final InCoreLevel    ... 5
 -> check shows that triples correction can be computed


Wavefunction type
-----------------
Correlation treatment                      ...      CCSD     
Single excitations                         ... ON
Orbital optimization                       ... OFF
Calculation of Z vector                    ... OFF
Calculation of Brueckner orbitals          ... OFF
Perturbative triple excitations            ... ON
Calculation of F12 correction              ... OFF
Frozen core treatment                      ... chemical core (0 el)
Reference Wavefunction                     ... UHF
  Alpha-MOs occ    :     0 ...    9 ( 10 MO's/ 10 electrons)
  Beta-MOs occ     :     0 ...    6 (  7 MO's/  7 electrons)
  Alpha-MOs virt   :    10 ...  134 (125 MO's              )
  Beta-MOs virt    :     7 ...  134 (128 MO's              )
Number of AO's                             ...    135
Number of electrons                        ...     17
Number of correlated electrons             ...     17

Algorithmic settings
--------------------
Integral transformation                    ... AO direct full transformation
K(C) Formation                             ... FULL-MO TRAFO
Maximum number of iterations               ...        50
Convergence tolerance (max. residuum)      ... 1.000e-05
Level shift for amplitude update           ... 2.000e-01
Maximum number of DIIS vectors             ...         7
DIIS turned on at iteration                ...         0
Damping before turning on DIIS             ...     0.500
Damping after turning on DIIS              ...     0.000
Pair specific amplitude update             ... OFF
Natural orbital iterations                 ... OFF
Perturbative natural orbital generation    ... OFF
Printlevel                                 ... 2

Memory handling:
----------------
Maximum memory for working arrays          ...   2500 MB
Data storage in matrix containers          ... UNCOMPRESSED
Data type for integral storage             ... DOUBLE
In-Core Storage of quantities:
   Amplitudes+Sigma Vector      ... YES
   J+K operators                ... YES
   DIIS vectors                 ... YES
   3-external integrals         ... YES
   4-external integrals         ... YES


Initializing the integral package          ... done
Warning: reference  - re-canonicalizations have been set to INT 1 VIRT 1

--------------------------
UNRESTRICTED FOCK OPERATOR
--------------------------

<ss|ss>:          406 b            0 skpd (  0.0%)    0.017 s ( 0.041 ms/b)
<ss|sp>:         1372 b            0 skpd (  0.0%)    0.142 s ( 0.104 ms/b)
<ss|sd>:         1176 b            0 skpd (  0.0%)    0.138 s ( 0.118 ms/b)
<ss|sf>:          784 b            0 skpd (  0.0%)    0.010 s ( 0.012 ms/b)
<ss|sg>:          588 b            0 skpd (  0.0%)    0.008 s ( 0.013 ms/b)
<ss|sh>:          392 b            0 skpd (  0.0%)    0.012 s ( 0.030 ms/b)
<ss|pp>:          784 b            0 skpd (  0.0%)    0.065 s ( 0.083 ms/b)
<ss|pd>:         1176 b            0 skpd (  0.0%)    0.110 s ( 0.093 ms/b)
<ss|pf>:          784 b            0 skpd (  0.0%)    0.011 s ( 0.015 ms/b)
<ss|pg>:          588 b            0 skpd (  0.0%)    0.009 s ( 0.016 ms/b)
<ss|ph>:          392 b            0 skpd (  0.0%)    0.014 s ( 0.036 ms/b)
<ss|dd>:          588 b            0 skpd (  0.0%)    0.067 s ( 0.114 ms/b)
<ss|df>:          672 b            0 skpd (  0.0%)    0.009 s ( 0.013 ms/b)
<ss|dg>:          504 b            0 skpd (  0.0%)    0.013 s ( 0.025 ms/b)
<ss|dh>:          336 b            0 skpd (  0.0%)    0.019 s ( 0.056 ms/b)
<ss|ff>:          280 b            0 skpd (  0.0%)    0.001 s ( 0.005 ms/b)
<ss|fg>:          336 b            0 skpd (  0.0%)    0.002 s ( 0.006 ms/b)
<ss|fh>:          224 b            0 skpd (  0.0%)    0.003 s ( 0.013 ms/b)
<ss|gg>:          168 b            0 skpd (  0.0%)    0.003 s ( 0.018 ms/b)
<ss|gh>:          168 b            0 skpd (  0.0%)    0.004 s ( 0.026 ms/b)
<ss|hh>:           84 b            0 skpd (  0.0%)    0.006 s ( 0.072 ms/b)
<sp|sp>:         1225 b            0 skpd (  0.0%)    0.108 s ( 0.088 ms/b)
<sp|sd>:         2058 b            0 skpd (  0.0%)    0.200 s ( 0.097 ms/b)
<sp|sf>:         1372 b            0 skpd (  0.0%)    0.017 s ( 0.012 ms/b)
<sp|sg>:         1029 b            0 skpd (  0.0%)    0.014 s ( 0.013 ms/b)
<sp|sh>:          686 b            0 skpd (  0.0%)    0.021 s ( 0.030 ms/b)
<sp|pp>:         1372 b            0 skpd (  0.0%)    0.092 s ( 0.067 ms/b)
<sp|pd>:         2058 b            3 skpd (  0.1%)    0.175 s ( 0.085 ms/b)
<sp|pf>:         1372 b            0 skpd (  0.0%)    0.025 s ( 0.018 ms/b)
<sp|pg>:         1029 b            0 skpd (  0.0%)    0.019 s ( 0.018 ms/b)
<sp|ph>:          686 b            1 skpd (  0.1%)    0.027 s ( 0.040 ms/b)
<sp|dd>:         1029 b            0 skpd (  0.0%)    0.132 s ( 0.128 ms/b)
<sp|df>:         1176 b            0 skpd (  0.0%)    0.018 s ( 0.016 ms/b)
<sp|dg>:          882 b            0 skpd (  0.0%)    0.027 s ( 0.030 ms/b)
<sp|dh>:          588 b            1 skpd (  0.2%)    0.038 s ( 0.064 ms/b)
<sp|ff>:          490 b            0 skpd (  0.0%)    0.003 s ( 0.007 ms/b)
<sp|fg>:          588 b            0 skpd (  0.0%)    0.005 s ( 0.008 ms/b)
<sp|fh>:          392 b            0 skpd (  0.0%)    0.007 s ( 0.017 ms/b)
<sp|gg>:          294 b            0 skpd (  0.0%)    0.007 s ( 0.023 ms/b)
<sp|gh>:          294 b            0 skpd (  0.0%)    0.010 s ( 0.034 ms/b)
<sp|hh>:          147 b            0 skpd (  0.0%)    0.013 s ( 0.087 ms/b)
<sd|sd>:          903 b            0 skpd (  0.0%)    0.096 s ( 0.106 ms/b)
<sd|sf>:         1176 b            0 skpd (  0.0%)    0.027 s ( 0.023 ms/b)
<sd|sg>:          882 b            0 skpd (  0.0%)    0.021 s ( 0.023 ms/b)
<sd|sh>:          588 b            0 skpd (  0.0%)    0.037 s ( 0.063 ms/b)
<sd|pp>:         1176 b            0 skpd (  0.0%)    0.099 s ( 0.084 ms/b)
<sd|pd>:         1764 b            4 skpd (  0.2%)    0.249 s ( 0.142 ms/b)
<sd|pf>:         1176 b            2 skpd (  0.2%)    0.040 s ( 0.034 ms/b)
<sd|pg>:          882 b            0 skpd (  0.0%)    0.035 s ( 0.040 ms/b)
<sd|ph>:          588 b            3 skpd (  0.5%)    0.055 s ( 0.095 ms/b)
<sd|dd>:          882 b            0 skpd (  0.0%)    0.195 s ( 0.221 ms/b)
<sd|df>:         1008 b            5 skpd (  0.5%)    0.036 s ( 0.036 ms/b)
<sd|dg>:          756 b            0 skpd (  0.0%)    0.059 s ( 0.078 ms/b)
<sd|dh>:          504 b            3 skpd (  0.6%)    0.091 s ( 0.181 ms/b)
<sd|ff>:          420 b            0 skpd (  0.0%)    0.007 s ( 0.017 ms/b)
<sd|fg>:          504 b            0 skpd (  0.0%)    0.011 s ( 0.021 ms/b)
<sd|fh>:          336 b            1 skpd (  0.3%)    0.015 s ( 0.045 ms/b)
<sd|gg>:          252 b            0 skpd (  0.0%)    0.016 s ( 0.062 ms/b)
<sd|gh>:          252 b            0 skpd (  0.0%)    0.021 s ( 0.085 ms/b)
<sd|hh>:          126 b            0 skpd (  0.0%)    0.028 s ( 0.226 ms/b)
<sf|sf>:          406 b            0 skpd (  0.0%)    0.003 s ( 0.007 ms/b)
<sf|sg>:          588 b            0 skpd (  0.0%)    0.005 s ( 0.009 ms/b)
<sf|sh>:          392 b            0 skpd (  0.0%)    0.011 s ( 0.027 ms/b)
<sf|pp>:          784 b            0 skpd (  0.0%)    0.018 s ( 0.023 ms/b)
<sf|pd>:         1176 b            3 skpd (  0.3%)    0.051 s ( 0.044 ms/b)
<sf|pf>:          784 b            0 skpd (  0.0%)    0.010 s ( 0.012 ms/b)
<sf|pg>:          588 b            0 skpd (  0.0%)    0.009 s ( 0.016 ms/b)
<sf|ph>:          392 b            1 skpd (  0.3%)    0.016 s ( 0.040 ms/b)
<sf|dd>:          588 b            0 skpd (  0.0%)    0.044 s ( 0.075 ms/b)
<sf|df>:          672 b            0 skpd (  0.0%)    0.010 s ( 0.014 ms/b)
<sf|dg>:          504 b            0 skpd (  0.0%)    0.015 s ( 0.031 ms/b)
<sf|dh>:          336 b            2 skpd (  0.6%)    0.023 s ( 0.069 ms/b)
<sf|ff>:          280 b            0 skpd (  0.0%)    0.002 s ( 0.009 ms/b)
<sf|fg>:          336 b            0 skpd (  0.0%)    0.003 s ( 0.010 ms/b)
<sf|fh>:          224 b            0 skpd (  0.0%)    0.005 s ( 0.021 ms/b)
<sf|gg>:          168 b            0 skpd (  0.0%)    0.005 s ( 0.029 ms/b)
<sf|gh>:          168 b            0 skpd (  0.0%)    0.007 s ( 0.042 ms/b)
<sf|hh>:           84 b            0 skpd (  0.0%)    0.009 s ( 0.112 ms/b)
<sg|sg>:          231 b            0 skpd (  0.0%)    0.007 s ( 0.030 ms/b)
<sg|sh>:          294 b            0 skpd (  0.0%)    0.015 s ( 0.051 ms/b)
<sg|pp>:          588 b            0 skpd (  0.0%)    0.026 s ( 0.043 ms/b)
<sg|pd>:          882 b            0 skpd (  0.0%)    0.077 s ( 0.087 ms/b)
<sg|pf>:          588 b            0 skpd (  0.0%)    0.014 s ( 0.024 ms/b)
<sg|pg>:          441 b            0 skpd (  0.0%)    0.015 s ( 0.033 ms/b)
<sg|ph>:          294 b            0 skpd (  0.0%)    0.024 s ( 0.082 ms/b)
<sg|dd>:          441 b            0 skpd (  0.0%)    0.064 s ( 0.146 ms/b)
<sg|df>:          504 b            0 skpd (  0.0%)    0.015 s ( 0.029 ms/b)
<sg|dg>:          378 b            0 skpd (  0.0%)    0.024 s ( 0.065 ms/b)
<sg|dh>:          252 b            0 skpd (  0.0%)    0.037 s ( 0.147 ms/b)
<sg|ff>:          210 b            0 skpd (  0.0%)    0.003 s ( 0.015 ms/b)
<sg|fg>:          252 b            0 skpd (  0.0%)    0.005 s ( 0.020 ms/b)
<sg|fh>:          168 b            0 skpd (  0.0%)    0.007 s ( 0.041 ms/b)
<sg|gg>:          126 b            0 skpd (  0.0%)    0.008 s ( 0.060 ms/b)
<sg|gh>:          126 b            0 skpd (  0.0%)    0.010 s ( 0.081 ms/b)
<sg|hh>:           63 b            0 skpd (  0.0%)    0.014 s ( 0.215 ms/b)
<sh|sh>:          105 b            0 skpd (  0.0%)    0.019 s ( 0.178 ms/b)
<sh|pp>:          392 b            0 skpd (  0.0%)    0.034 s ( 0.087 ms/b)
<sh|pd>:          588 b            0 skpd (  0.0%)    0.108 s ( 0.183 ms/b)
<sh|pf>:          392 b            0 skpd (  0.0%)    0.020 s ( 0.050 ms/b)
<sh|pg>:          294 b            0 skpd (  0.0%)    0.019 s ( 0.065 ms/b)
<sh|ph>:          196 b            0 skpd (  0.0%)    0.030 s ( 0.155 ms/b)
<sh|dd>:          294 b            0 skpd (  0.0%)    0.092 s ( 0.314 ms/b)
<sh|df>:          336 b            0 skpd (  0.0%)    0.019 s ( 0.058 ms/b)
<sh|dg>:          252 b            0 skpd (  0.0%)    0.031 s ( 0.125 ms/b)
<sh|dh>:          168 b            0 skpd (  0.0%)    0.047 s ( 0.278 ms/b)
<sh|ff>:          140 b            0 skpd (  0.0%)    0.004 s ( 0.029 ms/b)
<sh|fg>:          168 b            0 skpd (  0.0%)    0.006 s ( 0.036 ms/b)
<sh|fh>:          112 b            0 skpd (  0.0%)    0.009 s ( 0.077 ms/b)
<sh|gg>:           84 b            0 skpd (  0.0%)    0.009 s ( 0.106 ms/b)
<sh|gh>:           84 b            0 skpd (  0.0%)    0.012 s ( 0.146 ms/b)
<sh|hh>:           42 b            0 skpd (  0.0%)    0.017 s ( 0.403 ms/b)
<pp|pp>:          406 b            0 skpd (  0.0%)    0.062 s ( 0.152 ms/b)
<pp|pd>:         1176 b            0 skpd (  0.0%)    0.165 s ( 0.140 ms/b)
<pp|pf>:          784 b            0 skpd (  0.0%)    0.027 s ( 0.034 ms/b)
<pp|pg>:          588 b            0 skpd (  0.0%)    0.023 s ( 0.040 ms/b)
<pp|ph>:          392 b            0 skpd (  0.0%)    0.040 s ( 0.103 ms/b)
<pp|dd>:          588 b            0 skpd (  0.0%)    0.129 s ( 0.220 ms/b)
<pp|df>:          672 b            0 skpd (  0.0%)    0.024 s ( 0.036 ms/b)
<pp|dg>:          504 b            0 skpd (  0.0%)    0.038 s ( 0.076 ms/b)
<pp|dh>:          336 b            0 skpd (  0.0%)    0.059 s ( 0.177 ms/b)
<pp|ff>:          280 b            0 skpd (  0.0%)    0.005 s ( 0.019 ms/b)
<pp|fg>:          336 b            0 skpd (  0.0%)    0.007 s ( 0.022 ms/b)
<pp|fh>:          224 b            0 skpd (  0.0%)    0.010 s ( 0.045 ms/b)
<pp|gg>:          168 b            0 skpd (  0.0%)    0.011 s ( 0.066 ms/b)
<pp|gh>:          168 b            0 skpd (  0.0%)    0.014 s ( 0.085 ms/b)
<pp|hh>:           84 b            0 skpd (  0.0%)    0.021 s ( 0.249 ms/b)
<pd|pd>:          903 b            0 skpd (  0.0%)    0.228 s ( 0.253 ms/b)
<pd|pf>:         1176 b            0 skpd (  0.0%)    0.074 s ( 0.063 ms/b)
<pd|pg>:          882 b            0 skpd (  0.0%)    0.071 s ( 0.080 ms/b)
<pd|ph>:          588 b            0 skpd (  0.0%)    0.113 s ( 0.191 ms/b)
<pd|dd>:          882 b            0 skpd (  0.0%)    0.347 s ( 0.394 ms/b)
<pd|df>:         1008 b            0 skpd (  0.0%)    0.075 s ( 0.075 ms/b)
<pd|dg>:          756 b            1 skpd (  0.1%)    0.115 s ( 0.152 ms/b)
<pd|dh>:          504 b            0 skpd (  0.0%)    0.176 s ( 0.348 ms/b)
<pd|ff>:          420 b            0 skpd (  0.0%)    0.016 s ( 0.037 ms/b)
<pd|fg>:          504 b            0 skpd (  0.0%)    0.023 s ( 0.045 ms/b)
<pd|fh>:          336 b            0 skpd (  0.0%)    0.032 s ( 0.095 ms/b)
<pd|gg>:          252 b            0 skpd (  0.0%)    0.033 s ( 0.132 ms/b)
<pd|gh>:          252 b            0 skpd (  0.0%)    0.045 s ( 0.180 ms/b)
<pd|hh>:          126 b            0 skpd (  0.0%)    0.062 s ( 0.490 ms/b)
<pf|pf>:          406 b            0 skpd (  0.0%)    0.009 s ( 0.021 ms/b)
<pf|pg>:          588 b            0 skpd (  0.0%)    0.016 s ( 0.027 ms/b)
<pf|ph>:          392 b            0 skpd (  0.0%)    0.026 s ( 0.067 ms/b)
<pf|dd>:          588 b            0 skpd (  0.0%)    0.070 s ( 0.120 ms/b)
<pf|df>:          672 b            0 skpd (  0.0%)    0.016 s ( 0.024 ms/b)
<pf|dg>:          504 b            0 skpd (  0.0%)    0.027 s ( 0.053 ms/b)
<pf|dh>:          336 b            0 skpd (  0.0%)    0.041 s ( 0.122 ms/b)
<pf|ff>:          280 b            0 skpd (  0.0%)    0.005 s ( 0.017 ms/b)
<pf|fg>:          336 b            0 skpd (  0.0%)    0.007 s ( 0.020 ms/b)
<pf|fh>:          224 b            0 skpd (  0.0%)    0.009 s ( 0.041 ms/b)
<pf|gg>:          168 b            0 skpd (  0.0%)    0.010 s ( 0.057 ms/b)
<pf|gh>:          168 b            0 skpd (  0.0%)    0.013 s ( 0.077 ms/b)
<pf|hh>:           84 b            0 skpd (  0.0%)    0.017 s ( 0.208 ms/b)
<pg|pg>:          231 b            0 skpd (  0.0%)    0.023 s ( 0.101 ms/b)
<pg|ph>:          294 b            1 skpd (  0.3%)    0.037 s ( 0.126 ms/b)
<pg|dd>:          441 b            0 skpd (  0.0%)    0.109 s ( 0.247 ms/b)
<pg|df>:          504 b            0 skpd (  0.0%)    0.024 s ( 0.047 ms/b)
<pg|dg>:          378 b            0 skpd (  0.0%)    0.039 s ( 0.103 ms/b)
<pg|dh>:          252 b            0 skpd (  0.0%)    0.057 s ( 0.224 ms/b)
<pg|ff>:          210 b            0 skpd (  0.0%)    0.006 s ( 0.027 ms/b)
<pg|fg>:          252 b            0 skpd (  0.0%)    0.009 s ( 0.036 ms/b)
<pg|fh>:          168 b            0 skpd (  0.0%)    0.012 s ( 0.069 ms/b)
<pg|gg>:          126 b            0 skpd (  0.0%)    0.013 s ( 0.104 ms/b)
<pg|gh>:          126 b            0 skpd (  0.0%)    0.018 s ( 0.139 ms/b)
<pg|hh>:           63 b            0 skpd (  0.0%)    0.023 s ( 0.362 ms/b)
<ph|ph>:          105 b            0 skpd (  0.0%)    0.043 s ( 0.407 ms/b)
<ph|dd>:          294 b            0 skpd (  0.0%)    0.140 s ( 0.478 ms/b)
<ph|df>:          336 b            0 skpd (  0.0%)    0.029 s ( 0.085 ms/b)
<ph|dg>:          252 b            0 skpd (  0.0%)    0.045 s ( 0.178 ms/b)
<ph|dh>:          168 b            0 skpd (  0.0%)    0.066 s ( 0.390 ms/b)
<ph|ff>:          140 b            0 skpd (  0.0%)    0.006 s ( 0.045 ms/b)
<ph|fg>:          168 b            0 skpd (  0.0%)    0.009 s ( 0.056 ms/b)
<ph|fh>:          112 b            0 skpd (  0.0%)    0.013 s ( 0.117 ms/b)
<ph|gg>:           84 b            0 skpd (  0.0%)    0.013 s ( 0.160 ms/b)
<ph|gh>:           84 b            0 skpd (  0.0%)    0.018 s ( 0.220 ms/b)
<ph|hh>:           42 b            0 skpd (  0.0%)    0.026 s ( 0.616 ms/b)
<dd|dd>:          231 b            0 skpd (  0.0%)    0.304 s ( 1.318 ms/b)
<dd|df>:          504 b            0 skpd (  0.0%)    0.068 s ( 0.136 ms/b)
<dd|dg>:          378 b            0 skpd (  0.0%)    0.111 s ( 0.293 ms/b)
<dd|dh>:          252 b            0 skpd (  0.0%)    0.170 s ( 0.676 ms/b)
<dd|ff>:          210 b            0 skpd (  0.0%)    0.014 s ( 0.069 ms/b)
<dd|fg>:          252 b            0 skpd (  0.0%)    0.022 s ( 0.087 ms/b)
<dd|fh>:          168 b            0 skpd (  0.0%)    0.031 s ( 0.183 ms/b)
<dd|gg>:          126 b            0 skpd (  0.0%)    0.032 s ( 0.255 ms/b)
<dd|gh>:          126 b            0 skpd (  0.0%)    0.044 s ( 0.349 ms/b)
<dd|hh>:           63 b            0 skpd (  0.0%)    0.059 s ( 0.931 ms/b)
<df|df>:          300 b            0 skpd (  0.0%)    0.024 s ( 0.079 ms/b)
<df|dg>:          432 b            1 skpd (  0.2%)    0.038 s ( 0.089 ms/b)
<df|dh>:          288 b            0 skpd (  0.0%)    0.057 s ( 0.199 ms/b)
<df|ff>:          240 b            0 skpd (  0.0%)    0.007 s ( 0.029 ms/b)
<df|fg>:          288 b            0 skpd (  0.0%)    0.010 s ( 0.034 ms/b)
<df|fh>:          192 b            0 skpd (  0.0%)    0.014 s ( 0.071 ms/b)
<df|gg>:          144 b            0 skpd (  0.0%)    0.014 s ( 0.099 ms/b)
<df|gh>:          144 b            0 skpd (  0.0%)    0.019 s ( 0.134 ms/b)
<df|hh>:           72 b            0 skpd (  0.0%)    0.026 s ( 0.365 ms/b)
<dg|dg>:          171 b            0 skpd (  0.0%)    0.050 s ( 0.292 ms/b)
<dg|dh>:          216 b            1 skpd (  0.5%)    0.074 s ( 0.345 ms/b)
<dg|ff>:          180 b            0 skpd (  0.0%)    0.008 s ( 0.044 ms/b)
<dg|fg>:          216 b            0 skpd (  0.0%)    0.012 s ( 0.056 ms/b)
<dg|fh>:          144 b            0 skpd (  0.0%)    0.016 s ( 0.111 ms/b)
<dg|gg>:          108 b            0 skpd (  0.0%)    0.018 s ( 0.167 ms/b)
<dg|gh>:          108 b            0 skpd (  0.0%)    0.024 s ( 0.218 ms/b)
<dg|hh>:           54 b            0 skpd (  0.0%)    0.032 s ( 0.586 ms/b)
<dh|dh>:           78 b            0 skpd (  0.0%)    0.080 s ( 1.023 ms/b)
<dh|ff>:          120 b            0 skpd (  0.0%)    0.008 s ( 0.068 ms/b)
<dh|fg>:          144 b            0 skpd (  0.0%)    0.012 s ( 0.085 ms/b)
<dh|fh>:           96 b            0 skpd (  0.0%)    0.017 s ( 0.175 ms/b)
<dh|gg>:           72 b            0 skpd (  0.0%)    0.018 s ( 0.248 ms/b)
<dh|gh>:           72 b            0 skpd (  0.0%)    0.025 s ( 0.343 ms/b)
<dh|hh>:           36 b            0 skpd (  0.0%)    0.034 s ( 0.944 ms/b)
<ff|ff>:           55 b            0 skpd (  0.0%)    0.002 s ( 0.033 ms/b)
<ff|fg>:          120 b            0 skpd (  0.0%)    0.003 s ( 0.026 ms/b)
<ff|fh>:           80 b            0 skpd (  0.0%)    0.004 s ( 0.053 ms/b)
<ff|gg>:           60 b            0 skpd (  0.0%)    0.004 s ( 0.074 ms/b)
<ff|gh>:           60 b            0 skpd (  0.0%)    0.006 s ( 0.105 ms/b)
<ff|hh>:           30 b            0 skpd (  0.0%)    0.009 s ( 0.292 ms/b)
<fg|fg>:           78 b            0 skpd (  0.0%)    0.005 s ( 0.070 ms/b)
<fg|fh>:           96 b            0 skpd (  0.0%)    0.008 s ( 0.081 ms/b)
<fg|gg>:           72 b            0 skpd (  0.0%)    0.009 s ( 0.125 ms/b)
<fg|gh>:           72 b            0 skpd (  0.0%)    0.013 s ( 0.175 ms/b)
<fg|hh>:           36 b            0 skpd (  0.0%)    0.016 s ( 0.456 ms/b)
<fh|fh>:           36 b            0 skpd (  0.0%)    0.007 s ( 0.206 ms/b)
<fh|gg>:           48 b            0 skpd (  0.0%)    0.008 s ( 0.158 ms/b)
<fh|gh>:           48 b            0 skpd (  0.0%)    0.012 s ( 0.251 ms/b)
<fh|hh>:           24 b            0 skpd (  0.0%)    0.017 s ( 0.696 ms/b)
<gg|gg>:           21 b            0 skpd (  0.0%)    0.007 s ( 0.321 ms/b)
<gg|gh>:           36 b            0 skpd (  0.0%)    0.011 s ( 0.312 ms/b)
<gg|hh>:           18 b            0 skpd (  0.0%)    0.014 s ( 0.799 ms/b)
<gh|gh>:           21 b            0 skpd (  0.0%)    0.015 s ( 0.732 ms/b)
<gh|hh>:           18 b            0 skpd (  0.0%)    0.022 s ( 1.247 ms/b)
<hh|hh>:            6 b            0 skpd (  0.0%)    0.020 s ( 3.370 ms/b)
Recanonicalizing the internal orbitals
Recanonicalizing the virtual orbitals
Time needed for Fock operator              ...            8.663 sec
Reference energy                           ...   -103.617995801
Warning: for UHF the TrafoType has to be JK
Warning: for UHF the K(C)-option cannot be MO but must be AOX

-------------------------------
PARTIAL EXCHANGE TRANSFORMATION
-------------------------------

Transformation type                        ... two-operators
Generation of integrals (i,mue|j,nue)      ... ON
Generation of integrals (mue,kappa|nue,tau)... ON
Generation of integrals (i,mue|a,nue)      ... ON
Dimension of the basis                     ...  135
Number of internal alpha-MOs               ...   10 (   0-   9)
Number of internal beta-MOs                ...    7 (   0-   6)
Number of external alpha-MOs               ...  125 (  10- 134)
Number of external beta-MOs                ...  128 (   7- 134)
Pair cutoff                                ... 0.000e+00 Eh
Number of AO pairs in the trafo            ... 9180
Total Number of distinct AO pairs          ... 9180
Memory devoted for trafo                   ... 2500.0 MB 
Max. Number of MO pairs treated together   ... 17979      
Number Format for Storage                  ... Double (8 Byte)
Integral package used                      ... LIBINT

Starting integral evaluation:
    ... done with AO integral generation
Closing buffer AOK[aa] ( 0.00 GB; CompressionRatio= 0.99)
Closing buffer AOK[bb] ( 0.00 GB; CompressionRatio= 0.97)
Closing buffer AOK[ab] ( 0.00 GB; CompressionRatio= 0.98)
Closing buffer AOK[ba] ( 0.00 GB; CompressionRatio= 0.98)
Collecting buffer AOK 
Closing buffer IAAO1[aa] ( 0.00 GB; CompressionRatio= 1.00)
Closing buffer IAAO1[bb] ( 0.00 GB; CompressionRatio= 1.00)
Closing buffer IAAO1[ab] ( 0.00 GB; CompressionRatio= 1.00)
Closing buffer IAAO1[ba] ( 0.00 GB; CompressionRatio= 1.00)
Closing buffer IAAO2[aa] ( 0.00 GB; CompressionRatio= 1.00)
Closing buffer IAAO2[bb] ( 0.00 GB; CompressionRatio= 1.00)
Closing buffer IAAO2[ab] ( 0.00 GB; CompressionRatio= 1.00)
Closing buffer IAAO2[ba] ( 0.00 GB; CompressionRatio= 1.00)
Collecting buffer IAAO 
Closing buffer PRQS    ( 0.01 GB; CompressionRatio= 1.00)
Collecting buffer PRQS 
Number of alpha/alpha MO pairs in trafo    ...   55
Number of beta /beta  MO pairs in trafo    ...   28
Number of alpha/ beta MO pairs in trafo    ...   70
------------------------
SORTING OF (i,mue|j,nue)
------------------------

SORTING OF ALPHA/ALPHA PAIRS
IBATCH = 1 of  1
Closing buffer KAO[aa] ( 0.00 GB; CompressionRatio= 1.00)
Collecting buffer KAO 
SORTING OF BETA /BETA  PAIRS
IBATCH = 1 of  1
Closing buffer KAO[bb] ( 0.00 GB; CompressionRatio= 1.00)
Collecting buffer KAO 
SORTING OF ALPHA/BETA  PAIRS
IBATCH = 1 of  1
Closing buffer KAO[ab] ( 0.00 GB; CompressionRatio= 0.999917702247)
Collecting buffer KAO[ab] 
------------------------
SORTING OF (i,mue|a,nue)
------------------------

Number of alpha/alpha (i,a) pairs in trafo  ... 1250
Number of beta /beta  (i,a) pairs in trafo  ...  896
Number of alpha/ beta (i,a) pairs in trafo  ... 1280
Number of beta /alpha (i,a) pairs in trafo  ...  875
Setting up the alpha/alpha list             ... done
Setting up the beta /beta  list             ... done
Setting up the alpha/beta  list             ... done
Setting up the beta /alpha list             ... done
    ... Now sorting (i,mue|a,nue)integrals
    ... Integrals (i,b|a,c) will be made on the fly
SORTING OF ALPHA/ALPHA PAIRS
IBATCH = 1 of  1
Closing buffer IPAQ[aa]  0.01 GB; CompressionRatio= 1.00)
SORTING OF BETA /BETA  PAIRS
IBATCH = 1 of  1
Closing buffer IPAQ[bb]( 0.00 GB; CompressionRatio= 1.00)
SORTING OF ALPHA/BETA  PAIRS (NMatSort_ab=54)
IBATCH = 1 of  1
Closing buffer IPAQ[ab]( 0.01 GB; CompressionRatio= 1.00)
SORTING OF BETA/ALPHA  PAIRS
IBATCH = 1 of  1
Closing buffer IPAQ[ba]( 0.00 GB; CompressionRatio= 1.00)
N(AO-Batches) Done                         ...      5046 
N(AO-Batches) Skipped                      ...         0 
N(IJ)-pairs Skipped                        ...         0 
TOTAL TIME for half transformation         ...    36.742 sec
AO-integral generation                     ...     2.086 sec
Half transformation                        ...     0.016 sec
K-integral sorting                         ...     1.942 sec
<ss|**>: 
------------------------------
PARTIAL COULOMB TRANSFORMATION
------------------------------

Transformation type                        ... two-operators
Dimension of the basis                     ...  135
Number of internal alpha-MOs               ...   10 (0-9)
Number of internal beta-MOs                ...    7 (0-6)
Pair cutoff                                ... 0.000e+00 Eh
Number of AO pairs included in the trafo   ... 9180
Total Number of distinct AO pairs          ... 9180
Memory devoted for trafo                   ... 2500.0 MB 
Max. Number of MO pairs treated together   ... 35694      
Max. Number of MOs treated per batch       ...  264      
Number Format for Storage                  ... Double (8 Byte)
AO-integral source                         ... DIRECT
Integral package used                      ... LIBINT

Starting integral evaluation:
<sp|**>:        12180 b        0 skpd     0.612 s (  0.050 ms/b)
<sd|**>:        21315 b        0 skpd     1.070 s (  0.050 ms/b)
<sf|**>:        18270 b        0 skpd     1.555 s (  0.085 ms/b)
       12180 b        0 skpd     0.304 s (  0.025 ms/b)
<sg|**>:         9135 b        0 skpd     0.299 s (  0.033 ms/b)
<sh|**>:         6090 b        0 skpd     0.598 s (  0.098 ms/b)
<pp|**>:        12180 b        0 skpd     0.826 s (  0.068 ms/b)
<pd|**>:        18270 b        0 skpd     2.434 s (  0.133 ms/b)
<pf|**>:        12180 b        0 skpd     0.472 s (  0.039 ms/b)
<pg|**>:         9135 b        0 skpd     0.448 s (  0.049 ms/b)
<ph|**>:         6090 b        0 skpd     0.764 s (  0.126 ms/b)
<dd|**>:         9135 b        0 skpd     2.165 s (  0.237 ms/b)
<df|**>:        10440 b        0 skpd     0.442 s (  0.042 ms/b)
<dg|**>:         7830 b        0 skpd     0.714 s (  0.091 ms/b)
<dh|**>:         5220 b        0 skpd     1.087 s (  0.208 ms/b)
<ff|**>:         4350 b        0 skpd     0.104 s (  0.024 ms/b)
<fg|**>:         5220 b        0 skpd     0.155 s (  0.030 ms/b)
<fh|**>:         3480 b        0 skpd     0.220 s (  0.063 ms/b)
<gg|**>:         2610 b        0 skpd     0.239 s (  0.091 ms/b)
<gh|**>:         2610 b        0 skpd     0.326 s (  0.125 ms/b)
<hh|**>:         1305 b        0 skpd     0.455 s (  0.348 ms/b)
Closing buffer AOJ[aa] ( 0.00 GB; CompressionRatio= 0.97)
Closing buffer AOJ[bb] ( 0.00 GB; CompressionRatio= 0.00)
Collecting buffer AOJ 
    ... done with AO integral generation
Number of Alpha-MO pairs included          ...   55
Number of Beta-MO pairs included           ...   28
    ... Now sorting integrals
SORTING ALPHA/ALPHA PAIRS
IBATCH = 1 of  1
Closing buffer JAO[aa] ( 0.00 GB; CompressionRatio= 1.00)
SORTING BETA/BETA PAIRS
IBATCH = 1 of  1
Closing buffer JAO[bb] ( 0.00 GB; CompressionRatio= 1.00)
Collecting buffer JAO 
TOTAL TIME for half transformation         ...    15.365 sec
AO-integral generation                     ...    15.304 sec
Half transformation                        ...     0.023 sec
J-integral sorting                         ...     0.025 sec

-------------------------- SECOND HALF TRANSFORMATION -------------------------
Formation of (ij|kl),(ij|ka), (ij|ab)      ... ok (     0.069 sec)
Formation of (ik|jl),(ik|ja), (ia|jb)      ... ok (     0.109 sec)


-----------------------
SPIN UNRESTRICTED GUESS
-----------------------

Entering MDCI_UHF_Guess, Tailored=0
Spin-components of the MP2 energy:
EMP2(aa)=     -0.129414399
EMP2(bb)=     -0.059099225
EMP2(ab)=     -0.411599930

Initial guess performed in     0.049 sec
E(0)                                       ...   -103.617995801
E(MP2)                                     ...     -0.600113553
Initial E(tot)                             ...   -104.218109354
<T|T>                                      ...      0.130282759
Number of pairs included                   ... 136

------------------------------------------------
                  UHF COUPLED CLUSTER ITERATIONS
------------------------------------------------

Number of amplitudes to be optimized       ...      1644645

Iter       E(tot)           E(Corr)          Delta-E          Residual     Time      <S|S>**1/2
  0   -104.218109354     -0.600113553     -0.000000000      0.021579562    4.37      0.000000802
                           *** Turning on DIIS ***
  1   -104.188626434     -0.570630633      0.029482920      0.007269999    9.82      0.032406373
  2   -104.198951101     -0.580955300     -0.010324666      0.004506182    9.86      0.038067473
  3   -104.200011463     -0.582015661     -0.001060362      0.002154594    9.92      0.045589473
  4   -104.200474965     -0.582479163     -0.000463502      0.000738804    9.90      0.049677994
  5   -104.200623974     -0.582628173     -0.000149010      0.000189490    9.92      0.051851492
  6   -104.200636952     -0.582641151     -0.000012978      0.000040651    9.98      0.052419788
  7   -104.200639287     -0.582643486     -0.000002335      0.000009053    9.98      0.052545176
               --- The Coupled-Cluster iterations have converged ---

----------------------
COUPLED CLUSTER ENERGY
----------------------

E(0)                                       ...   -103.617995801
E(CORR)                                    ...     -0.582643486
E(TOT)                                     ...   -104.200639287
Singles norm <S|S>**1/2                    ...      0.052545176 ( 0.035885196, 0.016659980)  
T1 diagnostic                              ...      0.012744077                              

------------------
LARGEST AMPLITUDES
------------------
   9a-> 30a  -1a-> -1a       0.044796
   9a-> 13a  -1a-> -1a       0.032823
   9a-> 14a   4b-> 24b       0.016050
   9a-> 22a   4b-> 24b       0.015955
   7a-> 44a   5b-> 42b       0.015344
   8a-> 45a   6b-> 43b       0.015342
   6a-> 43a   4b-> 41b       0.015328
   4b-> 41b  -1b-> -1b       0.015020
   5b-> 42b  -1b-> -1b       0.015020
   6b-> 43b  -1b-> -1b       0.015020
   4b-> 25b  -1b-> -1b       0.013297
   5b-> 26b  -1b-> -1b       0.013297
   6b-> 27b  -1b-> -1b       0.013297
   9a-> 22a   4b-> 38b       0.012515
   9a-> 14a   4b-> 38b       0.011749
   5a-> 42a   5b-> 42b       0.011539

----------------------
UHF TRIPLES CORRECTION (Algorithm 1)
----------------------

Multiplier for the singles contribution    ...      1.000000000

SPIN-CASE Alpha-Alpha-Alpha:
10% done
20% done
30% done
40% done
50% done
60% done
70% done
80% done
90% done


SPIN-CASE Beta-Beta-Beta:
10% done
20% done
30% done
40% done
50% done
60% done
70% done
80% done
90% done


SPIN-CASE Alpha-Alpha-Beta:
10% done
20% done
30% done
40% done
50% done
60% done
70% done
80% done
90% done


SPIN-CASE Beta-Beta-Alpha:
10% done
20% done
30% done
40% done
50% done
60% done
70% done
80% done
90% done


Triples Correction (T)                     ...     -0.023395895
    alpha-alpha-alpha ... -0.001984492 (  8.5%)
    alpha-alpha-beta  ... -0.013686516 ( 58.5%)
    alpha-beta -beta  ... -0.007386978 ( 31.6%)
    beta -beta -beta  ... -0.000337908 (  1.4%)
Scaling of triples based on CCSD energies (Peterson et al. Molecular Physics 113, 1551 (2015))
E(T*) = f*E(T) where f = E(F12-CCSD)/E(CCSD) 
f = CCSD (with F12)/ CCSD (without F12)    ...      1.000000000
Scaled triples correction (T)              ...     -0.023395895

Final correlation energy                   ...     -0.606039380
E(CCSD)                                    ...   -104.200639287
E(CCSD(T))                                 ...   -104.224035181



        !!!!!!!!!!!!!!!!!!!!!!!!!!!!!!!!!!!!!!!!!!!!!!!!!!!!!!!!!!!!!!!!!!!!!!!!!! 
        !  Warning: Densities are linearized densities                           !
        !!!!!!!!!!!!!!!!!!!!!!!!!!!!!!!!!!!!!!!!!!!!!!!!!!!!!!!!!!!!!!!!!!!!!!!!!! 

NORM  =      1.127634030 sqrt=     1.061901140
W(HF) =      0.886812541
------------------------------------------------------------------------------
                           ORCA POPULATION ANALYSIS
------------------------------------------------------------------------------
Input electron density              ... 77_Ir.mdcip
Input spin density                  ... 77_Ir.mdcir
BaseName (.gbw .S,...)              ... 77_Ir

                    ********************************
                    * MULLIKEN POPULATION ANALYSIS *
                    ********************************

------------------------------------------
MULLIKEN ATOMIC CHARGES AND SPIN DENSITIES
------------------------------------------
   0 Ir:   -0.000000    3.000000
Sum of atomic charges       :   -0.0000000
Sum of atomic spin densities:    3.0000000

---------------------------------------------------
MULLIKEN REDUCED ORBITAL CHARGES AND SPIN DENSITIES
---------------------------------------------------
CHARGE
  0 Irs       :     2.977938  s :     2.977938
      pz      :     2.004989  p :     6.014967
      px      :     2.004989
      py      :     2.004989
      dz2     :     0.996735  d :     7.899703
      dxz     :     1.968744
      dyz     :     1.968744
      dx2y2   :     0.996735
      dxy     :     1.968744
      f0      :     0.011287  f :     0.089379
      f+1     :     0.012459
      f-1     :     0.012459
      f+2     :     0.013163
      f-2     :     0.016031
      f+3     :     0.011990
      f-3     :     0.011990
      g0      :     0.001482  g :     0.014731
      g+1     :     0.001561
      g-1     :     0.001561
      g+2     :     0.001634
      g-2     :     0.001843
      g+3     :     0.001803
      g-3     :     0.001803
      g+4     :     0.001525
      g-4     :     0.001520
      h0      :     0.000269  h :     0.003281
      h+1     :     0.000278
      h-1     :     0.000278
      h+2     :     0.000275
      h-2     :     0.000330
      h+3     :     0.000328
      h-3     :     0.000328
      h+4     :     0.000330
      h-4     :     0.000330
      h+5     :     0.000267
      h-5     :     0.000267

SPIN
  0 Irs       :     0.977642  s :     0.977642
      pz      :     0.008853  p :     0.026558
      px      :     0.008853
      py      :     0.008853
      dz2     :     0.980931  d :     1.976930
      dxz     :     0.005023
      dyz     :     0.005023
      dx2y2   :     0.980931
      dxy     :     0.005023
      f0      :     0.003563  f :     0.015089
      f+1     :     0.002467
      f-1     :     0.002467
      f+2     :     0.001810
      f-2     :    -0.001028
      f+3     :     0.002905
      f-3     :     0.002905
      g0      :     0.000460  g :     0.003421
      g+1     :     0.000428
      g-1     :     0.000428
      g+2     :     0.000463
      g-2     :     0.000222
      g+3     :     0.000251
      g-3     :     0.000251
      g+4     :     0.000461
      g-4     :     0.000457
      h0      :     0.000046  h :     0.000360
      h+1     :     0.000041
      h-1     :     0.000041
      h+2     :     0.000038
      h-2     :     0.000022
      h+3     :     0.000020
      h-3     :     0.000020
      h+4     :     0.000022
      h-4     :     0.000022
      h+5     :     0.000044
      h-5     :     0.000044


                     *******************************
                     * LOEWDIN POPULATION ANALYSIS *
                     *******************************

-----------------------------------------
LOEWDIN ATOMIC CHARGES AND SPIN DENSITIES
-----------------------------------------
   0 Ir:   -0.000000    3.000000

--------------------------------------------------
LOEWDIN REDUCED ORBITAL CHARGES AND SPIN DENSITIES
--------------------------------------------------
CHARGE
  0 Irs       :     2.977938  s :     2.977938
      pz      :     2.004989  p :     6.014967
      px      :     2.004989
      py      :     2.004989
      dz2     :     0.996735  d :     7.899703
      dxz     :     1.968744
      dyz     :     1.968744
      dx2y2   :     0.996735
      dxy     :     1.968744
      f0      :     0.011287  f :     0.089379
      f+1     :     0.012459
      f-1     :     0.012459
      f+2     :     0.013163
      f-2     :     0.016031
      f+3     :     0.011990
      f-3     :     0.011990
      g0      :     0.001482  g :     0.014731
      g+1     :     0.001561
      g-1     :     0.001561
      g+2     :     0.001634
      g-2     :     0.001843
      g+3     :     0.001803
      g-3     :     0.001803
      g+4     :     0.001525
      g-4     :     0.001520
      h0      :     0.000269  h :     0.003281
      h+1     :     0.000278
      h-1     :     0.000278
      h+2     :     0.000275
      h-2     :     0.000330
      h+3     :     0.000328
      h-3     :     0.000328
      h+4     :     0.000330
      h-4     :     0.000330
      h+5     :     0.000267
      h-5     :     0.000267

SPIN
  0 Irs       :     0.977642  s :     0.977642
      pz      :     0.008853  p :     0.026558
      px      :     0.008853
      py      :     0.008853
      dz2     :     0.980931  d :     1.976930
      dxz     :     0.005023
      dyz     :     0.005023
      dx2y2   :     0.980931
      dxy     :     0.005023
      f0      :     0.003563  f :     0.015089
      f+1     :     0.002467
      f-1     :     0.002467
      f+2     :     0.001810
      f-2     :    -0.001028
      f+3     :     0.002905
      f-3     :     0.002905
      g0      :     0.000460  g :     0.003421
      g+1     :     0.000428
      g-1     :     0.000428
      g+2     :     0.000463
      g-2     :     0.000222
      g+3     :     0.000251
      g-3     :     0.000251
      g+4     :     0.000461
      g-4     :     0.000457
      h0      :     0.000046  h :     0.000360
      h+1     :     0.000041
      h-1     :     0.000041
      h+2     :     0.000038
      h-2     :     0.000022
      h+3     :     0.000020
      h-3     :     0.000020
      h+4     :     0.000022
      h-4     :     0.000022
      h+5     :     0.000044
      h-5     :     0.000044


                      *****************************
                      * MAYER POPULATION ANALYSIS *
                      *****************************

  NA   - Mulliken gross atomic population
  ZA   - Total nuclear charge
  QA   - Mulliken gross atomic charge
  VA   - Mayer's total valence
  BVA  - Mayer's bonded valence
  FA   - Mayer's free valence

  ATOM       NA         ZA         QA         VA         BVA        FA
  0 Ir    17.0000    17.0000    -0.0000     3.8259     0.0000     3.8259





------------------------------------------------------------------------------- 
                                     TIMINGS                                   
------------------------------------------------------------------------------- 


Total execution time                   ...      144.451 sec

Fock Matrix Formation                  ...        8.663 sec (  6.0%)
Initial Guess                          ...        0.049 sec (  0.0%)
DIIS Solver                            ...        0.945 sec (  0.7%)
State Vector Update                    ...        0.048 sec (  0.0%)
Sigma-vector construction              ...       72.759 sec ( 50.4%)
  <0|H|D>                              ...        0.003 sec (  0.0% of sigma)
  <D|H|D>(0-ext Fock)                  ...        0.020 sec (  0.0% of sigma)
  <D|H|D>(0-ext)                       ...        0.077 sec (  0.1% of sigma)
  <D|H|D>(2-ext Fock)                  ...        0.008 sec (  0.0% of sigma)
  <D|H|D>(2-ext)                       ...        0.312 sec (  0.4% of sigma)
  <D|H|D>(4-ext)                       ...        9.252 sec ( 12.7% of sigma)
  <S|H|0>                              ...        0.701 sec (  1.0% of sigma)
  <S|H|S>                              ...        0.002 sec (  0.0% of sigma)
  <S|H|D>(1-ext)                       ...        0.005 sec (  0.0% of sigma)
  <D|H|S>(1-ext)                       ...        0.097 sec (  0.1% of sigma)
  Fock-dressing                        ...       58.611 sec ( 80.6% of sigma)
  (ik|jl)-dressing                     ...        0.093 sec (  0.1% of sigma)
  (ij|ab),(ia|jb)-dressing             ...        2.941 sec (  4.0% of sigma)
  Pair energies                        ...        0.005 sec (  0.0% of sigma)
Total Time for computing (T)           ...        6.088 sec (  4.2% of ALL)
  I/O of integral and amplitudes       ...        1.247 sec ( 20.5% of (T))
  External N**7 contributions          ...        1.905 sec ( 31.3% of (T))
  Internal N**7 contributions          ...        0.637 sec ( 10.5% of (T))
  N**6 triples energy contributions    ...        2.196 sec ( 36.1% of (T))


-------------------------   --------------------
FINAL SINGLE POINT ENERGY      -104.224035181422
-------------------------   --------------------


                            ***************************************
                            *     ORCA property calculations      *
                            ***************************************

                                    ---------------------
                                    Active property flags
                                    ---------------------
   (+) Dipole Moment


------------------------------------------------------------------------------
                       ORCA ELECTRIC PROPERTIES CALCULATION
------------------------------------------------------------------------------

Dipole Moment Calculation                       ... on
Quadrupole Moment Calculation                   ... off
Polarizability Calculation                      ... off
GBWName                                         ... 77_Ir.gbw
Electron density file                           ... 77_Ir.scfp
The origin for moment calculation is the CENTER OF MASS  = ( 0.000000,  0.000000  0.000000)

-------------
DIPOLE MOMENT
-------------
                                X             Y             Z
Electronic contribution:      0.00000      -0.00000       0.00000
Nuclear contribution   :      0.00000       0.00000       0.00000
                        -----------------------------------------
Total Dipole Moment    :      0.00000      -0.00000       0.00000
                        -----------------------------------------
Magnitude (a.u.)       :      0.00000
Magnitude (Debye)      :      0.00000



--------------------
Rotational spectrum 
--------------------
 
Rotational constants in cm-1:     0.000000     0.000000     0.000000 
Rotational constants in MHz :     0.000000     0.000000     0.000000 

 Dipole components along the rotational axes: 
x,y,z [a.u.] :     0.000000    -0.000000     0.000000 
x,y,z [Debye]:     0.000000    -0.000000     0.000000 

 

                           *** MDCI DENSITY ***

------------------------------------------------------------------------------
                       ORCA ELECTRIC PROPERTIES CALCULATION
------------------------------------------------------------------------------

Dipole Moment Calculation                       ... on
Quadrupole Moment Calculation                   ... off
Polarizability Calculation                      ... off
GBWName                                         ... 77_Ir.gbw
Electron density file                           ... 77_Ir.mdcip
The origin for moment calculation is the CENTER OF MASS  = ( 0.000000,  0.000000  0.000000)

-------------
DIPOLE MOMENT
-------------
                                X             Y             Z
Electronic contribution:      0.00000       0.00000      -0.00000
Nuclear contribution   :      0.00000       0.00000       0.00000
                        -----------------------------------------
Total Dipole Moment    :      0.00000       0.00000      -0.00000
                        -----------------------------------------
Magnitude (a.u.)       :      0.00000
Magnitude (Debye)      :      0.00000



--------------------
Rotational spectrum 
--------------------
 
Rotational constants in cm-1:     0.000000     0.000000     0.000000 
Rotational constants in MHz :     0.000000     0.000000     0.000000 

 Dipole components along the rotational axes: 
x,y,z [a.u.] :     0.000000     0.000000    -0.000000 
x,y,z [Debye]:     0.000000     0.000000    -0.000000 

 

Timings for individual modules:

Sum of individual times         ...      291.573 sec (=   4.860 min)
GTO integral calculation        ...        2.311 sec (=   0.039 min)   0.8 %
SCF iterations                  ...      143.851 sec (=   2.398 min)  49.3 %
MDCI module                     ...      145.411 sec (=   2.424 min)  49.9 %
                             ****ORCA TERMINATED NORMALLY****
TOTAL RUN TIME: 0 days 0 hours 4 minutes 52 seconds 336 msec
