
                                 *****************
                                 * O   R   C   A *
                                 *****************

           --- An Ab Initio, DFT and Semiempirical electronic structure package ---

                  #######################################################
                  #                        -***-                        #
                  #          Department of theory and spectroscopy      #
                  #               Directorship: Frank Neese             #
                  #        Max Planck Institute fuer Kohlenforschung    #
                  #                Kaiser Wilhelm Platz 1               #
                  #                 D-45470 Muelheim/Ruhr               #
                  #                      Germany                        #
                  #                                                     #
                  #                  All rights reserved                #
                  #                        -***-                        #
                  #######################################################


                         Program Version 4.2.0 -  RELEASE  -


 With contributions from (in alphabetic order):
   Daniel Aravena         : Magnetic Suceptibility
   Michael Atanasov       : Ab Initio Ligand Field Theory (pilot matlab implementation)
   Alexander A. Auer      : GIAO ZORA, VPT2
   Ute Becker             : Parallelization
   Giovanni Bistoni       : ED, misc. LED, open-shell LED, HFLED
   Martin Brehm           : Molecular dynamics
   Dmytro Bykov           : SCF Hessian
   Vijay G. Chilkuri      : MRCI spin determinant printing, contributions to CSF-ICE
   Dipayan Datta          : RHF DLPNO-CCSD density
   Achintya Kumar Dutta   : EOM-CC, STEOM-CC
   Dmitry Ganyushin       : Spin-Orbit,Spin-Spin,Magnetic field MRCI
   Miquel Garcia          : C-PCM Hessian, Gaussian charge scheme
   Yang Guo               : DLPNO-NEVPT2, CIM, IAO-localization
   Andreas Hansen         : Spin unrestricted coupled pair/coupled cluster methods
   Benjamin Helmich-Paris : CASSCF linear response (MC-RPA)
   Lee Huntington         : MR-EOM, pCC
   Robert Izsak           : Overlap fitted RIJCOSX, COSX-SCS-MP3, EOM
   Christian Kollmar      : KDIIS, OOCD, Brueckner-CCSD(T), CCSD density
   Simone Kossmann        : Meta GGA functionals, TD-DFT gradient, OOMP2, MP2 Hessian
   Martin Krupicka        : AUTO-CI
   Lucas Lang             : DCDCAS
   Dagmar Lenk            : GEPOL surface, SMD
   Dimitrios Liakos       : Extrapolation schemes; Compound Job, initial MDCI parallelization
   Dimitrios Manganas     : Further ROCIS development; embedding schemes
   Dimitrios Pantazis     : SARC Basis sets
   Taras Petrenko         : DFT Hessian,TD-DFT gradient, ASA, ECA, R-Raman, ABS, FL, XAS/XES, NRVS
   Peter Pinski           : DLPNO-MP2, DLPNO-MP2 Gradient
   Christoph Reimann      : Effective Core Potentials
   Marius Retegan         : Local ZFS, SOC
   Christoph Riplinger    : Optimizer, TS searches, QM/MM, DLPNO-CCSD(T), (RO)-DLPNO pert. Triples
   Tobias Risthaus        : Range-separated hybrids, TD-DFT gradient, RPA, STAB
   Michael Roemelt        : Original ROCIS implementation
   Masaaki Saitow         : Open-shell DLPNO-CCSD energy and density
   Barbara Sandhoefer     : DKH picture change effects
   Avijit Sen             : IP-ROCIS
   Kantharuban Sivalingam : CASSCF convergence, NEVPT2, FIC-MRCI
   Bernardo de Souza      : ESD, SOC TD-DFT
   Georgi Stoychev        : AutoAux, RI-MP2 NMR
   Willem Van den Heuvel  : Paramagnetic NMR
   Boris Wezisla          : Elementary symmetry handling
   Frank Wennmohs         : Technical directorship


 We gratefully acknowledge several colleagues who have allowed us to
 interface, adapt or use parts of their codes:
   Stefan Grimme, W. Hujo, H. Kruse,             : VdW corrections, initial TS optimization,
                  C. Bannwarth                     DFT functionals, gCP, sTDA/sTD-DF
   Ed Valeev, F. Pavosevic, A. Kumar             : LibInt (2-el integral package), F12 methods
   Garnet Chan, S. Sharma, J. Yang, R. Olivares  : DMRG
   Ulf Ekstrom                                   : XCFun DFT Library
   Mihaly Kallay                                 : mrcc  (arbitrary order and MRCC methods)
   Andreas Klamt, Michael Diedenhofen            : otool_cosmo (COSMO solvation model)
   Jiri Pittner, Ondrej Demel                    : Mk-CCSD
   Frank Weinhold                                : gennbo (NPA and NBO analysis)
   Christopher J. Cramer and Donald G. Truhlar   : smd solvation model
   Lars Goerigk                                  : TD-DFT with DH, B97 family of functionals
   V. Asgeirsson, H. Jonsson                     : NEB implementation
   FAccTs GmbH                                   : IRC, NEB, NEB-TS, Multilevel, MM, QM/MM, CI optimization
   S Lehtola, MJT Oliveira, MAL Marques          : LibXC Library


 Your calculation uses the libint2 library for the computation of 2-el integrals
 For citations please refer to: http://libint.valeyev.net

 Your ORCA version has been built with support for libXC version: 4.2.3
 For citations please refer to: https://tddft.org/programs/libxc/

 This ORCA versions uses:
   CBLAS   interface :  Fast vector & matrix operations
   LAPACKE interface :  Fast linear algebra routines
   SCALAPACK package :  Parallel linear algebra routines


Setting NCore(Pt) from 46 to 60
----- Orbital basis set information -----
Your calculation utilizes the basis: aug-cc-pVQZ-PP 
       Ca, Sr, Ba, Ra : Obtained from the Peterson Research Group Website (tyr0.chem.wsu.edu/~kipeters) Feb. 2017
                        H. Li, H. Feng, W. Sun, Y. Zhang, Q. Fan, K. A. Peterson, Y. Xie, H. F. Schaefer III, Mol. Phys. 111, 2292 (2013)
  Cu-Zn, Ag-Cd, Au-Hg : Obtained from the ccRepo (grant-hill.group.shef.ac.uk/ccrepo) Feb. 2017
                        K. A. Peterson, C. Puzzarini, Theor. Chem. Acc. 114, 283 (2005)
  Ga-Kr, In-Xe, Tl-Rn : Obtained from the ccRepo (grant-hill.group.shef.ac.uk/ccrepo) Feb. 2017
                        K. A. Peterson, J. Chem. Phys. 119, 11099 (2003)
                        K. A. Peterson, D. Figgen, E. Goll, H. Stoll, M. Dolg, J. Chem. Phys. 119, 11113 (2003)
                 Y-Pd : Obtained from the ccRepo (grant-hill.group.shef.ac.uk/ccrepo) Feb. 2017
                        K. A. Peterson, D. Figgen, M. Dolg, H. Stoll, J. Chem. Phys. 126, 124101 (2007)
                Hf-Pt : Obtained from the ccRepo (grant-hill.group.shef.ac.uk/ccrepo) Feb. 2017
                        D. Figgen, K. A. Peterson, M. Dolg, H. Stoll, J. Chem. Phys. 130, 164108 (2009)

cite the ECPs for Pt [SK MCDHF RSC] as follows:
O: B. Metz and H. Stoll, private communication (KAP)
Tl: B. Metz, M. Schweizer, H. Stoll, M. Dolg, W. Liu, Theor. Chem. Acc. 104, 22 (2000)
Ga-As, In-Sb, Pb-Bi: B. Metz, H. Stoll, M. Dolg, J. Chem. Phys. 113, 2563 (2000)
Se-Kr, Te-Xe, Po-Rn: K.A. Peterson, D. Figgen, E. Goll, H. Stoll, and M. Dolg, J. Chem. Phys., in press (2003)
Cu-Zn, Ag-Cd, Au-Hg: D. Figgen, G. Rauhut, M. Dolg, and H. Stoll, Chem. Phys. 311, 227 (2005)
Y-Pd: K.A. Peterson, D. Figgen, M. Dolg, H. Stoll, J. Chem. Phys. 126, 124101 (2007)
I: K. A. Peterson, B. C. Shepler, D. Figgen, H. Stoll, J. Phys. Chem. A 110, 13877 (2006)
Hf-Pt: D. Figgen, K.A. Peterson, M. Dolg, H. Stoll, J. Chem. Phys. 130, 164108 (2009)
Ca, Sr, Ba, Ra: I.S. Lim, H. Stoll, P. Schwerdtfeger, J. Chem. Phys. 124, 034107 (2006)

ECP parameters for Pt [SK MCDHF RSC] have been obtained from:
cc-pVDZ-PP  EMSL  Basis Set Exchange Library   4/7/16 5:27 AM
Ca, Sr, Ba, Ra: http://www.tc.uni-koeln.de/PP/index.en.html 3/16/17 1:54 PM

================================================================================
                                        WARNINGS
                       Please study these warnings very carefully!
================================================================================


WARNING: your system is open-shell and RHF/RKS was chosen
  ===> : WILL SWITCH to UHF/UKS


WARNING: MDCI localization with Augmented Hessian Foster-Boys
  ===> : Switching off randomization!

WARNING: Post HF methods need fully converged wavefunctions
  ===> : Setting SCFConvForced true
         You can overwrite this default with %scf ConvForced false 


INFO   : the flag for use of LIBINT has been found!

================================================================================
                                       INPUT FILE
================================================================================
NAME = 78_Pt.in
|  1> #
|  2> # 78_Pt CCSD(T)/aug-cc-pVQZ-PP
|  3> #
|  4> ! CCSD(T) aug-cc-pVQZ-PP tightscf veryslowconv kdiis
|  5> 
|  6> *xyz 0 3
|  7>  Pt 0.0 0.0 0.0
|  8> *
|  9> 
| 10> %maxcore 5000 
| 11> 
| 12> %pal
| 13> nprocs 24
| 14> end
| 15> 
| 16> %method
| 17> NewNCore Pt 60 end
| 18> end
| 19> 
| 20> 
| 21>                          ****END OF INPUT****
================================================================================

                       ****************************
                       * Single Point Calculation *
                       ****************************

---------------------------------
CARTESIAN COORDINATES (ANGSTROEM)
---------------------------------
  Pt     0.000000    0.000000    0.000000

----------------------------
CARTESIAN COORDINATES (A.U.)
----------------------------
  NO LB      ZA    FRAG     MASS         X           Y           Z
   0 Pt   18.0000*   0   195.090    0.000000    0.000000    0.000000
* core charge reduced due to ECP

--------------------------------
INTERNAL COORDINATES (ANGSTROEM)
--------------------------------
 Pt     0   0   0     0.000000000000     0.00000000     0.00000000

---------------------------
INTERNAL COORDINATES (A.U.)
---------------------------
 Pt     0   0   0     0.000000000000     0.00000000     0.00000000

---------------------
BASIS SET INFORMATION
---------------------
There are 1 groups of distinct atoms

 Group   1 Type Pt  : 67s52p38d4f3g2h contracted to 7s7p6d4f3g2h pattern {131313131311/101010101011/999911/1111/111/11}

Atom   0Pt   basis set group =>   1
-------------------------
ECP PARAMETER INFORMATION
-------------------------

 Group 1, Type Pt ECP SK MCDHF RSC (replacing 60 core electrons, lmax=5)

Atom   0Pt   ECP group =>   1



           ************************************************************
           *        Program running with 24 parallel MPI-processes    *
           *              working on a common directory               *
           ************************************************************
------------------------------------------------------------------------------
                           ORCA GTO INTEGRAL CALCULATION
------------------------------------------------------------------------------

                         BASIS SET STATISTICS AND STARTUP INFO

 # of primitive gaussian shells          ...  166
 # of primitive gaussian functions       ...  490
 # of contracted shells                  ...   29
 # of contracted basis functions         ...  135
 Highest angular momentum                ...    5
 Maximum contraction depth               ...   13
 Integral package used                   ... LIBINT
 Integral threshhold            Thresh   ...  2.500e-11
 Primitive cut-off              TCut     ...  2.500e-12


------------------------------ INTEGRAL EVALUATION ----------------------------


 * One electron integrals 

   ECP integrals                         ... done
 Pre-screening matrix                    ... done
 Shell pair data                         ... done (   0.000 sec)



           ************************************************************
           *        Program running with 24 parallel MPI-processes    *
           *              working on a common directory               *
           ************************************************************
-------------------------------------------------------------------------------
                                 ORCA SCF
-------------------------------------------------------------------------------

------------
SCF SETTINGS
------------
Hamiltonian:
 Ab initio Hamiltonian  Method          .... Hartree-Fock(GTOs)


General Settings:
 Integral files         IntName         .... 78_Pt
 Hartree-Fock type      HFTyp           .... UHF
 Total Charge           Charge          ....    0
 Multiplicity           Mult            ....    3
 Number of Electrons    NEL             ....   18
 Basis Dimension        Dim             ....  135
 Nuclear Repulsion      ENuc            ....      0.0000000000 Eh

Convergence Acceleration:
 DIIS                   CNVDIIS         .... off
 Newton-Raphson         CNVNR           .... off
 SOSCF                  CNVSOSCF        .... off
 Level Shifting         CNVShift        .... off
 Zerner damping         CNVZerner       .... off
 Static damping         CNVDamp         .... off
 Fernandez-Rico         CNVRico         .... off

SCF Procedure:
 Maximum # iterations   MaxIter         ....   125
 SCF integral mode      SCFMode         .... Direct
   Integral package                     .... LIBINT
 Reset frequency        DirectResetFreq ....    20
 Integral Threshold     Thresh          ....  2.500e-11 Eh
 Primitive CutOff       TCut            ....  2.500e-12 Eh

Convergence Tolerance:
 Convergence Check Mode ConvCheckMode   .... Total+1el-Energy
 Convergence forced     ConvForced      .... 1
 Energy Change          TolE            ....  1.000e-08 Eh
 1-El. energy change                    ....  1.000e-05 Eh


Diagonalization of the overlap matrix:
Smallest eigenvalue                        ... 3.264e-03
Time for diagonalization                   ...    0.005 sec
Threshold for overlap eigenvalues          ... 1.000e-08
Number of eigenvalues below threshold      ... 0
Time for construction of square roots      ...    0.002 sec
Total time needed                          ...    0.008 sec

-------------------
DFT GRID GENERATION
-------------------

General Integration Accuracy     IntAcc      ...  4.340
Radial Grid Type                 RadialGrid  ... Gauss-Chebyshev
Angular Grid (max. acc.)         AngularGrid ... Lebedev-110
Angular grid pruning method      GridPruning ... 3 (G Style)
Weight generation scheme         WeightScheme... Becke
Basis function cutoff            BFCut       ...    1.0000e-11
Integration weight cutoff        WCut        ...    1.0000e-14
Grids for H and He will be reduced by one unit

# of grid points (after initial pruning)     ...   3530 (   0.0 sec)
# of grid points (after weights+screening)   ...   3530 (   0.0 sec)
Grid point division into batches done        ...    0.0 sec
Reduced shell lists constructed in    0.0 sec

Total number of grid points                  ...     3530
Total number of batches                      ...       56
Average number of points per batch           ...       63
Average number of grid points per atom       ...     3530
Average number of shells per batch           ...    17.25 (59.48%)
Average number of basis functions per batch  ...    60.75 (45.00%)
Average number of large shells per batch     ...    14.25 (82.61%)
Average number of large basis fcns per batch ...    45.75 (75.31%)
Maximum spatial batch extension              ...  25.56, 38.92, 38.92 au
Average spatial batch extension              ...   1.31,  1.85,  2.08 au

Time for grid setup =    0.025 sec

------------------------------
INITIAL GUESS: MODEL POTENTIAL
------------------------------
Loading Hartree-Fock densities                     ... done
  calling /sw/apps/orca/orca_4_2_0_linux_x86-64_openmpi314/orca 78_Pt_atom78.inp > 78_Pt_atom78.out in order to generate an atomic fitting density for atom 0 (Pt with ECP) on-the-fly... 
    atom 0 (Pt), assumed electronic state with S=3: 1s2 2s2 2p6 3s2 3p6 4s2 3d10 4p6 5s2 4d10 5p6 6s2 4f14 5d8           ... done
Calculating cut-offs                               ... done
Setting up the integral package                    ... done
Initializing the effective Hamiltonian             ... done
Starting the Coulomb interaction                   ... done (   0.0 sec)
Reading the grid                                   ... done
Mapping shells                                     ... done
Starting the XC term evaluation                    ... done (   0.0 sec)
Transforming the Hamiltonian                       ... done (   0.0 sec)
Diagonalizing the Hamiltonian                      ... done (   0.0 sec)
Back transforming the eigenvectors                 ... done (   0.0 sec)
Now organizing SCF variables                       ... done
                      ------------------
                      INITIAL GUESS DONE (  30.0 sec)
                      ------------------
--------------
SCF ITERATIONS
--------------
ITER       Energy         Delta-E        Max-DP      RMS-DP      [F,P]   Gradient Norm
               ***  Starting incremental Fock matrix formation  ***
                             ****Resetting KDIIS****
                             ****Turning on KDIIS(Cayley)****
  0   -118.2527684699   0.000000000000 0.01703891  0.00037879  0.3790961   0.304296576
  1   -118.3295885067  -0.076820036741 0.02641054  0.00051137  0.3349564   0.259078430
  2   -118.3994767199  -0.069888213262 0.04128344  0.00079833  0.2674537   0.204600813
  3   -118.4712707619  -0.071794041928 0.06336242  0.00123036  0.1622275   0.125689458
  4   -118.5158507300  -0.044579968147 0.00344903  0.00005436  0.0029045   0.003186450
  5   -118.5160147713  -0.000164041325 0.00601361  0.00006332  0.0017115   0.001347847
  6   -118.5160734780  -0.000058706640 0.00949424  0.00005575  0.0013847   0.000609486
  7   -118.5161050801  -0.000031602094 0.01659251  0.00009850  0.0009148   0.000372322
  8   -118.5161303381  -0.000025258025 0.00069952  0.00000765  0.0003427   0.000198435
  9   -118.5161313409  -0.000001002775 0.00061315  0.00000630  0.0003452   0.000114529
 10   -118.5161320147  -0.000000673798 0.00068943  0.00000568  0.0003475   0.000099179
 11   -118.5161326848  -0.000000670111 0.00474648  0.00003931  0.0003464   0.000098594
 12   -118.5161372578  -0.000004573077 0.04639059  0.00041785  0.0003390   0.000096777
 13   -118.5161766550  -0.000039397153 0.00498118  0.00004305  0.0003037   0.000283550
 14   -118.5161737900   0.000002864952 0.07509908  0.00062478  0.0002497   0.000147672
 15   -118.5161969290  -0.000023138931 0.01283156  0.00010292  0.0009783   0.000903396
 16   -118.5162008730  -0.000003944056 0.02043217  0.00016537  0.0000928   0.000093498
 17   -118.5162030653  -0.000002192253 0.00779610  0.00006231  0.0001382   0.000125231
 18   -118.5162031616  -0.000000096321 0.00349734  0.00002756  0.0001247   0.000113862
 19   -118.5162032553  -0.000000093738 0.00043017  0.00000343  0.0000347   0.000032372
               *** Restarting incremental Fock matrix formation ***
                             ****Resetting KDIIS****
                 **** Energy Check signals convergence ****
                    *** KDIIS BlockDiag (122.985 sec) ***

               *****************************************************
               *                     SUCCESS                       *
               *           SCF CONVERGED AFTER  20 CYCLES          *
               *****************************************************


----------------
TOTAL SCF ENERGY
----------------

Total Energy       :         -118.51620327 Eh           -3224.98985 eV

Components:
Nuclear Repulsion  :            0.00000000 Eh               0.00000 eV
Electronic Energy  :         -118.51620327 Eh           -3224.98985 eV
One Electron Energy:         -208.92916099 Eh           -5685.25150 eV
Two Electron Energy:           90.41295773 Eh            2460.26166 eV

Virial components:
Potential Energy   :         -159.03467575 Eh           -4327.55354 eV
Kinetic Energy     :           40.51847248 Eh            1102.56369 eV
Virial Ratio       :            3.92499189


---------------
SCF CONVERGENCE
---------------

  Last Energy change         ...   -9.8853e-09  Tolerance :   1.0000e-08
  Last MAX-Density change    ...    4.5687e-07  Tolerance :   1.0000e-07
  Last RMS-Density change    ...    3.7736e-09  Tolerance :   5.0000e-09

             **** THE GBW FILE WAS UPDATED (78_Pt.gbw) ****
             **** DENSITY FILE WAS UPDATED (78_Pt.scfp) ****
             **** ENERGY FILE WAS UPDATED (78_Pt.en.tmp) ****
----------------------
UHF SPIN CONTAMINATION
----------------------

Expectation value of <S**2>     :     2.004365
Ideal value S*(S+1) for S=1.0   :     2.000000
Deviation                       :     0.004365

             **** THE GBW FILE WAS UPDATED (78_Pt.gbw) ****
             **** DENSITY FILE WAS UPDATED (78_Pt.scfp) ****
----------------
ORBITAL ENERGIES
----------------
                 SPIN UP ORBITALS
  NO   OCC          E(Eh)            E(eV) 
   0   1.0000      -4.415472      -120.1511 
   1   1.0000      -2.606176       -70.9177 
   2   1.0000      -2.606132       -70.9164 
   3   1.0000      -2.551992       -69.4432 
   4   1.0000      -0.481107       -13.0916 
   5   1.0000      -0.439142       -11.9497 
   6   1.0000      -0.419756       -11.4221 
   7   1.0000      -0.419743       -11.4218 
   8   1.0000      -0.415767       -11.3136 
   9   1.0000      -0.290470        -7.9041 
  10   0.0000       0.017788         0.4840 
  11   0.0000       0.017789         0.4841 
  12   0.0000       0.019666         0.5351 
  13   0.0000       0.038265         1.0412 
  14   0.0000       0.053461         1.4548 
  15   0.0000       0.053465         1.4548 
  16   0.0000       0.059178         1.6103 
  17   0.0000       0.074546         2.0285 
  18   0.0000       0.074803         2.0355 
  19   0.0000       0.075691         2.0597 
  20   0.0000       0.075692         2.0597 
  21   0.0000       0.076006         2.0682 
  22   0.0000       0.167764         4.5651 
  23   0.0000       0.167770         4.5652 
  24   0.0000       0.177089         4.8188 
  25   0.0000       0.236007         6.4221 
  26   0.0000       0.238442         6.4883 
  27   0.0000       0.241707         6.5772 
  28   0.0000       0.241709         6.5772 
  29   0.0000       0.242654         6.6030 
  30   0.0000       0.338443         9.2095 
  31   0.0000       0.436001        11.8642 
  32   0.0000       0.436001        11.8642 
  33   0.0000       0.440174        11.9777 
  34   0.0000       0.441858        12.0236 
  35   0.0000       0.443771        12.0756 
  36   0.0000       0.443773        12.0757 
  37   0.0000       0.444565        12.0972 
  38   0.0000       0.562082        15.2950 
  39   0.0000       0.562094        15.2954 
  40   0.0000       0.580621        15.7995 
  41   0.0000       0.692915        18.8552 
  42   0.0000       0.703055        19.1311 
  43   0.0000       0.711454        19.3597 
  44   0.0000       0.711459        19.3598 
  45   0.0000       0.714214        19.4348 
  46   0.0000       1.127325        30.6761 
  47   0.0000       1.127329        30.6762 
  48   0.0000       1.140129        31.0245 
  49   0.0000       1.151114        31.3234 
  50   0.0000       1.154865        31.4255 
  51   0.0000       1.154869        31.4256 
  52   0.0000       1.156694        31.4752 
  53   0.0000       1.258604        34.2483 
  54   0.0000       1.258715        34.2514 
  55   0.0000       1.267015        34.4772 
  56   0.0000       1.267018        34.4773 
  57   0.0000       1.270828        34.5810 
  58   0.0000       1.275033        34.6954 
  59   0.0000       1.276345        34.7311 
  60   0.0000       1.276347        34.7312 
  61   0.0000       1.277072        34.7509 
  62   0.0000       1.570239        42.7284 
  63   0.0000       1.839239        50.0482 
  64   0.0000       1.839261        50.0488 
  65   0.0000       1.871692        50.9313 
  66   0.0000       2.093631        56.9706 
  67   0.0000       2.117249        57.6133 
  68   0.0000       2.131407        57.9985 
  69   0.0000       2.131416        57.9988 
  70   0.0000       2.136200        58.1289 
  71   0.0000       2.513734        68.4022 
  72   0.0000       2.513742        68.4024 
  73   0.0000       2.532031        68.9001 
  74   0.0000       2.552990        69.4704 
  75   0.0000       2.556441        69.5643 
  76   0.0000       2.556446        69.5644 
  77   0.0000       2.558264        69.6139 
  78   0.0000       2.922647        79.5293 
  79   0.0000       2.922647        79.5293 
  80   0.0000       2.934309        79.8466 
  81   0.0000       2.935173        79.8701 
  82   0.0000       2.942365        80.0658 
  83   0.0000       2.942371        80.0660 
  84   0.0000       2.945206        80.1431 
  85   0.0000       2.953499        80.3688 
  86   0.0000       2.953965        80.3815 
  87   0.0000       2.953966        80.3815 
  88   0.0000       2.954323        80.3912 
  89   0.0000       3.141690        85.4897 
  90   0.0000       3.142343        85.5075 
  91   0.0000       3.161275        86.0227 
  92   0.0000       3.161285        86.0229 
  93   0.0000       3.168281        86.2133 
  94   0.0000       3.183664        86.6319 
  95   0.0000       3.184590        86.6571 
  96   0.0000       3.184591        86.6571 
  97   0.0000       3.185235        86.6746 
  98   0.0000       5.587605       152.0465 
  99   0.0000       5.638550       153.4327 
 100   0.0000       5.638579       153.4335 
 101   0.0000       5.676375       154.4620 
 102   0.0000       5.993889       163.1020 
 103   0.0000       6.022886       163.8910 
 104   0.0000       6.037861       164.2985 
 105   0.0000       6.037872       164.2989 
 106   0.0000       6.043236       164.4448 
 107   0.0000       6.156810       167.5353 
 108   0.0000       6.156819       167.5356 
 109   0.0000       6.174757       168.0237 
 110   0.0000       6.196388       168.6123 
 111   0.0000       6.199230       168.6896 
 112   0.0000       6.199235       168.6898 
 113   0.0000       6.200757       168.7312 
 114   0.0000       7.023337       191.1147 
 115   0.0000       7.024553       191.1478 
 116   0.0000       7.037213       191.4923 
 117   0.0000       7.037214       191.4923 
 118   0.0000       7.046574       191.7470 
 119   0.0000       7.046591       191.7475 
 120   0.0000       7.053903       191.9465 
 121   0.0000       7.056523       192.0177 
 122   0.0000       7.059369       192.0952 
 123   0.0000       7.069520       192.3714 
 124   0.0000       7.069535       192.3718 
 125   0.0000       7.073081       192.4683 
 126   0.0000       7.075791       192.5421 
 127   0.0000       7.075839       192.5434 
 128   0.0000       7.075839       192.5434 
 129   0.0000       7.075901       192.5451 
 130   0.0000       7.092006       192.9833 
 131   0.0000       7.092250       192.9899 
 132   0.0000       7.092252       192.9900 
 133   0.0000       7.092519       192.9972 
 134   0.0000      26.748152       727.8542 

                 SPIN DOWN ORBITALS
  NO   OCC          E(Eh)            E(eV) 
   0   1.0000      -4.358273      -118.5946 
   1   1.0000      -2.539508       -69.1035 
   2   1.0000      -2.502447       -68.0950 
   3   1.0000      -2.502413       -68.0941 
   4   1.0000      -0.417481       -11.3602 
   5   1.0000      -0.383136       -10.4257 
   6   1.0000      -0.383107       -10.4249 
   7   1.0000      -0.371122       -10.0987 
   8   0.0000      -0.008051        -0.2191 
   9   0.0000       0.021891         0.5957 
  10   0.0000       0.021892         0.5957 
  11   0.0000       0.022514         0.6126 
  12   0.0000       0.059383         1.6159 
  13   0.0000       0.071890         1.9562 
  14   0.0000       0.075060         2.0425 
  15   0.0000       0.075061         2.0425 
  16   0.0000       0.075519         2.0550 
  17   0.0000       0.076322         2.0768 
  18   0.0000       0.076417         2.0794 
  19   0.0000       0.076418         2.0794 
  20   0.0000       0.076744         2.0883 
  21   0.0000       0.119079         3.2403 
  22   0.0000       0.205223         5.5844 
  23   0.0000       0.205225         5.5844 
  24   0.0000       0.205865         5.6019 
  25   0.0000       0.244703         6.6587 
  26   0.0000       0.248265         6.7556 
  27   0.0000       0.248267         6.7557 
  28   0.0000       0.249578         6.7914 
  29   0.0000       0.266158         7.2425 
  30   0.0000       0.382080        10.3969 
  31   0.0000       0.450726        12.2649 
  32   0.0000       0.450726        12.2649 
  33   0.0000       0.451717        12.2918 
  34   0.0000       0.453397        12.3376 
  35   0.0000       0.453992        12.3537 
  36   0.0000       0.453993        12.3538 
  37   0.0000       0.454442        12.3660 
  38   0.0000       0.603899        16.4329 
  39   0.0000       0.603902        16.4330 
  40   0.0000       0.606550        16.5051 
  41   0.0000       0.718619        19.5546 
  42   0.0000       0.728571        19.8254 
  43   0.0000       0.728578        19.8256 
  44   0.0000       0.732149        19.9228 
  45   0.0000       0.753573        20.5058 
  46   0.0000       1.169135        31.8138 
  47   0.0000       1.174212        31.9519 
  48   0.0000       1.174224        31.9523 
  49   0.0000       1.179058        32.0838 
  50   0.0000       1.190148        32.3856 
  51   0.0000       1.193307        32.4715 
  52   0.0000       1.193317        32.4718 
  53   0.0000       1.279356        34.8130 
  54   0.0000       1.279366        34.8133 
  55   0.0000       1.284022        34.9400 
  56   0.0000       1.284022        34.9400 
  57   0.0000       1.287335        35.0302 
  58   0.0000       1.287351        35.0306 
  59   0.0000       1.289342        35.0848 
  60   0.0000       1.289346        35.0849 
  61   0.0000       1.290015        35.1031 
  62   0.0000       1.605821        43.6966 
  63   0.0000       1.875572        51.0369 
  64   0.0000       1.875581        51.0372 
  65   0.0000       1.888197        51.3805 
  66   0.0000       2.132456        58.0271 
  67   0.0000       2.149840        58.5001 
  68   0.0000       2.149852        58.5004 
  69   0.0000       2.155897        58.6649 
  70   0.0000       2.166142        58.9437 
  71   0.0000       2.558340        69.6160 
  72   0.0000       2.566117        69.8276 
  73   0.0000       2.566136        69.8281 
  74   0.0000       2.574700        70.0611 
  75   0.0000       2.589241        70.4568 
  76   0.0000       2.592821        70.5542 
  77   0.0000       2.592837        70.5547 
  78   0.0000       2.946085        80.1671 
  79   0.0000       2.946085        80.1671 
  80   0.0000       2.953578        80.3709 
  81   0.0000       2.953683        80.3738 
  82   0.0000       2.959058        80.5201 
  83   0.0000       2.959060        80.5201 
  84   0.0000       2.961850        80.5960 
  85   0.0000       2.964286        80.6623 
  86   0.0000       2.965501        80.6954 
  87   0.0000       2.965505        80.6955 
  88   0.0000       2.966137        80.7127 
  89   0.0000       3.187754        86.7432 
  90   0.0000       3.187890        86.7469 
  91   0.0000       3.191534        86.8460 
  92   0.0000       3.191534        86.8461 
  93   0.0000       3.193532        86.9004 
  94   0.0000       3.199150        87.0533 
  95   0.0000       3.199948        87.0750 
  96   0.0000       3.199955        87.0752 
  97   0.0000       3.200563        87.0917 
  98   0.0000       5.609319       152.6373 
  99   0.0000       5.663293       154.1060 
 100   0.0000       5.663310       154.1065 
 101   0.0000       5.686030       154.7247 
 102   0.0000       6.031176       164.1166 
 103   0.0000       6.047866       164.5708 
 104   0.0000       6.050389       164.6395 
 105   0.0000       6.050403       164.6398 
 106   0.0000       6.057134       164.8230 
 107   0.0000       6.198444       168.6682 
 108   0.0000       6.198446       168.6683 
 109   0.0000       6.199418       168.6948 
 110   0.0000       6.211383       169.0203 
 111   0.0000       6.212767       169.0580 
 112   0.0000       6.212774       169.0582 
 113   0.0000       6.213429       169.0760 
 114   0.0000       7.066350       192.2852 
 115   0.0000       7.066383       192.2860 
 116   0.0000       7.072467       192.4516 
 117   0.0000       7.072467       192.4516 
 118   0.0000       7.073646       192.4837 
 119   0.0000       7.073648       192.4838 
 120   0.0000       7.077916       192.5999 
 121   0.0000       7.082583       192.7269 
 122   0.0000       7.082724       192.7307 
 123   0.0000       7.082804       192.7329 
 124   0.0000       7.084703       192.7846 
 125   0.0000       7.084714       192.7849 
 126   0.0000       7.085907       192.8173 
 127   0.0000       7.090337       192.9379 
 128   0.0000       7.090339       192.9379 
 129   0.0000       7.094551       193.0526 
 130   0.0000       7.097064       193.1209 
 131   0.0000       7.099093       193.1762 
 132   0.0000       7.099101       193.1764 
 133   0.0000       7.100055       193.2023 
 134   0.0000      26.751807       727.9537 

                    ********************************
                    * MULLIKEN POPULATION ANALYSIS *
                    ********************************

--------------------------------------------
MULLIKEN ATOMIC CHARGES AND SPIN POPULATIONS
--------------------------------------------
   0 Pt:    0.000000    2.000000
Sum of atomic charges         :    0.0000000
Sum of atomic spin populations:    2.0000000

-----------------------------------------------------
MULLIKEN REDUCED ORBITAL CHARGES AND SPIN POPULATIONS
-----------------------------------------------------
CHARGE
  0 Pts       :     3.006745  s :     3.006745
      pz      :     1.999583  p :     5.999106
      px      :     1.999583
      py      :     1.999940
      dz2     :     1.247886  d :     8.992648
      dxz     :     1.999958
      dyz     :     1.999874
      dx2y2   :     1.745056
      dxy     :     1.999874
      f0      :     0.000325  f :     0.000881
      f+1     :     0.000294
      f-1     :     0.000022
      f+2     :     0.000087
      f-2     :     0.000000
      f+3     :     0.000117
      f-3     :     0.000036
      g0      :     0.000126  g :     0.000607
      g+1     :     0.000005
      g-1     :     0.000084
      g+2     :     0.000083
      g-2     :     0.000028
      g+3     :     0.000037
      g-3     :     0.000042
      g+4     :     0.000104
      g-4     :     0.000098
      h0      :     0.000004  h :     0.000013
      h+1     :     0.000004
      h-1     :     0.000001
      h+2     :     0.000002
      h-2     :     0.000000
      h+3     :     0.000001
      h-3     :     0.000001
      h+4     :     0.000000
      h-4     :     0.000000
      h+5     :     0.000000
      h-5     :     0.000000

SPIN
  0 Pts       :     0.994430  s :     0.994430
      pz      :     0.000267  p :     0.000490
      px      :     0.000267
      py      :    -0.000045
      dz2     :     0.751624  d :     1.005258
      dxz     :    -0.000024
      dyz     :    -0.000070
      dx2y2   :     0.253798
      dxy     :    -0.000070
      f0      :    -0.000196  f :    -0.000493
      f+1     :    -0.000278
      f-1     :     0.000017
      f+2     :    -0.000073
      f-2     :    -0.000000
      f+3     :     0.000009
      f-3     :     0.000028
      g0      :     0.000072  g :     0.000312
      g+1     :     0.000003
      g-1     :     0.000082
      g+2     :    -0.000018
      g-2     :    -0.000027
      g+3     :     0.000021
      g-3     :    -0.000012
      g+4     :     0.000094
      g-4     :     0.000097
      h0      :     0.000001  h :     0.000004
      h+1     :     0.000001
      h-1     :     0.000000
      h+2     :     0.000000
      h-2     :     0.000000
      h+3     :     0.000000
      h-3     :     0.000000
      h+4     :     0.000000
      h-4     :     0.000000
      h+5     :     0.000000
      h-5     :     0.000000


                     *******************************
                     * LOEWDIN POPULATION ANALYSIS *
                     *******************************

-------------------------------------------
LOEWDIN ATOMIC CHARGES AND SPIN POPULATIONS
-------------------------------------------
   0 Pt:    0.000000    2.000000

----------------------------------------------------
LOEWDIN REDUCED ORBITAL CHARGES AND SPIN POPULATIONS
----------------------------------------------------
CHARGE
  0 Pts       :     3.006745  s :     3.006745
      pz      :     1.999583  p :     5.999106
      px      :     1.999583
      py      :     1.999940
      dz2     :     1.247886  d :     8.992648
      dxz     :     1.999958
      dyz     :     1.999874
      dx2y2   :     1.745056
      dxy     :     1.999874
      f0      :     0.000325  f :     0.000881
      f+1     :     0.000294
      f-1     :     0.000022
      f+2     :     0.000087
      f-2     :     0.000000
      f+3     :     0.000117
      f-3     :     0.000036
      g0      :     0.000126  g :     0.000607
      g+1     :     0.000005
      g-1     :     0.000084
      g+2     :     0.000083
      g-2     :     0.000028
      g+3     :     0.000037
      g-3     :     0.000042
      g+4     :     0.000104
      g-4     :     0.000098
      h0      :     0.000004  h :     0.000013
      h+1     :     0.000004
      h-1     :     0.000001
      h+2     :     0.000002
      h-2     :     0.000000
      h+3     :     0.000001
      h-3     :     0.000001
      h+4     :     0.000000
      h-4     :     0.000000
      h+5     :     0.000000
      h-5     :     0.000000

SPIN
  0 Pts       :     0.994430  s :     0.994430
      pz      :     0.000267  p :     0.000490
      px      :     0.000267
      py      :    -0.000045
      dz2     :     0.751624  d :     1.005258
      dxz     :    -0.000024
      dyz     :    -0.000070
      dx2y2   :     0.253798
      dxy     :    -0.000070
      f0      :    -0.000196  f :    -0.000493
      f+1     :    -0.000278
      f-1     :     0.000017
      f+2     :    -0.000073
      f-2     :    -0.000000
      f+3     :     0.000009
      f-3     :     0.000028
      g0      :     0.000072  g :     0.000312
      g+1     :     0.000003
      g-1     :     0.000082
      g+2     :    -0.000018
      g-2     :    -0.000027
      g+3     :     0.000021
      g-3     :    -0.000012
      g+4     :     0.000094
      g-4     :     0.000097
      h0      :     0.000001  h :     0.000004
      h+1     :     0.000001
      h-1     :     0.000000
      h+2     :     0.000000
      h-2     :     0.000000
      h+3     :     0.000000
      h-3     :     0.000000
      h+4     :     0.000000
      h-4     :     0.000000
      h+5     :     0.000000
      h-5     :     0.000000


                      *****************************
                      * MAYER POPULATION ANALYSIS *
                      *****************************

  NA   - Mulliken gross atomic population
  ZA   - Total nuclear charge
  QA   - Mulliken gross atomic charge
  VA   - Mayer's total valence
  BVA  - Mayer's bonded valence
  FA   - Mayer's free valence

  ATOM       NA         ZA         QA         VA         BVA        FA
  0 Pt    18.0000    18.0000     0.0000     2.0087     0.0000     2.0087

  Mayer bond orders larger than 0.100000


-------
TIMINGS
-------

Total SCF time: 0 days 0 hours 2 min 3 sec 

Total time                  ....     123.003 sec
Sum of individual times     ....     122.727 sec  ( 99.8%)

Fock matrix formation       ....      92.636 sec  ( 75.3%)
Diagonalization             ....       0.089 sec  (  0.1%)
Density matrix formation    ....       0.011 sec  (  0.0%)
Population analysis         ....       0.006 sec  (  0.0%)
Initial guess               ....      29.960 sec  ( 24.4%)
Orbital Transformation      ....       0.000 sec  (  0.0%)
Orbital Orthonormalization  ....       0.000 sec  (  0.0%)
DIIS solution               ....       0.000 sec  (  0.0%)


           ************************************************************
           *        Program running with 24 parallel MPI-processes    *
           *              working on a common directory               *
           ************************************************************


------------------------------------------------------------------------------- 
                              ORCA-MATRIX DRIVEN CI                            
------------------------------------------------------------------------------- 

--------------------------------
AUTOMATIC CHOICE OF INCORE LEVEL
--------------------------------

Memory available                           ...   2500.00 MB
Memory needed for S+T                      ...     19.67 MB
Memory needed for J+K                      ...     39.44 MB
Memory needed for DIIS                     ...    275.37 MB
Memory needed for 3-ext                    ...    149.01 MB
Memory needed for 4-ext                    ...    938.77 MB
Memory needed for triples                  ...     74.51 MB
 -> Final InCoreLevel    ... 5
 -> check shows that triples correction can be computed


Wavefunction type
-----------------
Correlation treatment                      ...      CCSD     
Single excitations                         ... ON
Orbital optimization                       ... OFF
Calculation of Z vector                    ... OFF
Calculation of Brueckner orbitals          ... OFF
Perturbative triple excitations            ... ON
Calculation of F12 correction              ... OFF
Frozen core treatment                      ... chemical core (0 el)
Reference Wavefunction                     ... UHF
  Alpha-MOs occ    :     0 ...    9 ( 10 MO's/ 10 electrons)
  Beta-MOs occ     :     0 ...    7 (  8 MO's/  8 electrons)
  Alpha-MOs virt   :    10 ...  134 (125 MO's              )
  Beta-MOs virt    :     8 ...  134 (127 MO's              )
Number of AO's                             ...    135
Number of electrons                        ...     18
Number of correlated electrons             ...     18

Algorithmic settings
--------------------
Integral transformation                    ... AO direct full transformation
K(C) Formation                             ... FULL-MO TRAFO
Maximum number of iterations               ...        50
Convergence tolerance (max. residuum)      ... 1.000e-05
Level shift for amplitude update           ... 2.000e-01
Maximum number of DIIS vectors             ...         7
DIIS turned on at iteration                ...         0
Damping before turning on DIIS             ...     0.500
Damping after turning on DIIS              ...     0.000
Pair specific amplitude update             ... OFF
Natural orbital iterations                 ... OFF
Perturbative natural orbital generation    ... OFF
Printlevel                                 ... 2

Memory handling:
----------------
Maximum memory for working arrays          ...   2500 MB
Data storage in matrix containers          ... UNCOMPRESSED
Data type for integral storage             ... DOUBLE
In-Core Storage of quantities:
   Amplitudes+Sigma Vector      ... YES
   J+K operators                ... YES
   DIIS vectors                 ... YES
   3-external integrals         ... YES
   4-external integrals         ... YES


Initializing the integral package          ... done
Warning: reference  - re-canonicalizations have been set to INT 1 VIRT 1

--------------------------
UNRESTRICTED FOCK OPERATOR
--------------------------

<ss|ss>:          406 b            0 skpd (  0.0%)    0.015 s ( 0.036 ms/b)
<ss|sp>:         1372 b            0 skpd (  0.0%)    0.141 s ( 0.103 ms/b)
<ss|sd>:         1176 b            0 skpd (  0.0%)    0.133 s ( 0.113 ms/b)
<ss|sf>:          784 b            0 skpd (  0.0%)    0.008 s ( 0.011 ms/b)
<ss|sg>:          588 b            0 skpd (  0.0%)    0.007 s ( 0.012 ms/b)
<ss|sh>:          392 b            0 skpd (  0.0%)    0.010 s ( 0.025 ms/b)
<ss|pp>:          784 b            0 skpd (  0.0%)    0.064 s ( 0.081 ms/b)
<ss|pd>:         1176 b            0 skpd (  0.0%)    0.101 s ( 0.086 ms/b)
<ss|pf>:          784 b            0 skpd (  0.0%)    0.010 s ( 0.013 ms/b)
<ss|pg>:          588 b            0 skpd (  0.0%)    0.008 s ( 0.014 ms/b)
<ss|ph>:          392 b            0 skpd (  0.0%)    0.012 s ( 0.030 ms/b)
<ss|dd>:          588 b            0 skpd (  0.0%)    0.062 s ( 0.106 ms/b)
<ss|df>:          672 b            0 skpd (  0.0%)    0.007 s ( 0.011 ms/b)
<ss|dg>:          504 b            0 skpd (  0.0%)    0.011 s ( 0.021 ms/b)
<ss|dh>:          336 b            0 skpd (  0.0%)    0.016 s ( 0.046 ms/b)
<ss|ff>:          280 b            0 skpd (  0.0%)    0.001 s ( 0.004 ms/b)
<ss|fg>:          336 b            0 skpd (  0.0%)    0.002 s ( 0.005 ms/b)
<ss|fh>:          224 b            0 skpd (  0.0%)    0.003 s ( 0.011 ms/b)
<ss|gg>:          168 b            0 skpd (  0.0%)    0.003 s ( 0.015 ms/b)
<ss|gh>:          168 b            0 skpd (  0.0%)    0.004 s ( 0.022 ms/b)
<ss|hh>:           84 b            0 skpd (  0.0%)    0.005 s ( 0.060 ms/b)
<sp|sp>:         1225 b            0 skpd (  0.0%)    0.106 s ( 0.087 ms/b)
<sp|sd>:         2058 b            0 skpd (  0.0%)    0.201 s ( 0.097 ms/b)
<sp|sf>:         1372 b            0 skpd (  0.0%)    0.017 s ( 0.013 ms/b)
<sp|sg>:         1029 b            0 skpd (  0.0%)    0.014 s ( 0.014 ms/b)
<sp|sh>:          686 b            0 skpd (  0.0%)    0.021 s ( 0.031 ms/b)
<sp|pp>:         1372 b            0 skpd (  0.0%)    0.092 s ( 0.067 ms/b)
<sp|pd>:         2058 b            0 skpd (  0.0%)    0.175 s ( 0.085 ms/b)
<sp|pf>:         1372 b            1 skpd (  0.1%)    0.026 s ( 0.019 ms/b)
<sp|pg>:         1029 b            0 skpd (  0.0%)    0.019 s ( 0.019 ms/b)
<sp|ph>:          686 b            4 skpd (  0.6%)    0.028 s ( 0.041 ms/b)
<sp|dd>:         1029 b            0 skpd (  0.0%)    0.135 s ( 0.131 ms/b)
<sp|df>:         1176 b            0 skpd (  0.0%)    0.020 s ( 0.017 ms/b)
<sp|dg>:          882 b            0 skpd (  0.0%)    0.027 s ( 0.031 ms/b)
<sp|dh>:          588 b            0 skpd (  0.0%)    0.039 s ( 0.066 ms/b)
<sp|ff>:          490 b            0 skpd (  0.0%)    0.004 s ( 0.007 ms/b)
<sp|fg>:          588 b            0 skpd (  0.0%)    0.005 s ( 0.008 ms/b)
<sp|fh>:          392 b            0 skpd (  0.0%)    0.007 s ( 0.018 ms/b)
<sp|gg>:          294 b            0 skpd (  0.0%)    0.007 s ( 0.024 ms/b)
<sp|gh>:          294 b            0 skpd (  0.0%)    0.010 s ( 0.034 ms/b)
<sp|hh>:          147 b            0 skpd (  0.0%)    0.013 s ( 0.090 ms/b)
<sd|sd>:          903 b            0 skpd (  0.0%)    0.097 s ( 0.107 ms/b)
<sd|sf>:         1176 b            0 skpd (  0.0%)    0.027 s ( 0.023 ms/b)
<sd|sg>:          882 b            0 skpd (  0.0%)    0.021 s ( 0.024 ms/b)
<sd|sh>:          588 b            0 skpd (  0.0%)    0.047 s ( 0.080 ms/b)
<sd|pp>:         1176 b            0 skpd (  0.0%)    0.101 s ( 0.086 ms/b)
<sd|pd>:         1764 b            0 skpd (  0.0%)    0.255 s ( 0.145 ms/b)
<sd|pf>:         1176 b            0 skpd (  0.0%)    0.041 s ( 0.035 ms/b)
<sd|pg>:          882 b            0 skpd (  0.0%)    0.037 s ( 0.041 ms/b)
<sd|ph>:          588 b            0 skpd (  0.0%)    0.057 s ( 0.098 ms/b)
<sd|dd>:          882 b            0 skpd (  0.0%)    0.200 s ( 0.227 ms/b)
<sd|df>:         1008 b            0 skpd (  0.0%)    0.038 s ( 0.037 ms/b)
<sd|dg>:          756 b            0 skpd (  0.0%)    0.061 s ( 0.081 ms/b)
<sd|dh>:          504 b            0 skpd (  0.0%)    0.088 s ( 0.174 ms/b)
<sd|ff>:          420 b            0 skpd (  0.0%)    0.007 s ( 0.018 ms/b)
<sd|fg>:          504 b            0 skpd (  0.0%)    0.011 s ( 0.022 ms/b)
<sd|fh>:          336 b            0 skpd (  0.0%)    0.015 s ( 0.046 ms/b)
<sd|gg>:          252 b            0 skpd (  0.0%)    0.016 s ( 0.063 ms/b)
<sd|gh>:          252 b            0 skpd (  0.0%)    0.022 s ( 0.086 ms/b)
<sd|hh>:          126 b            0 skpd (  0.0%)    0.029 s ( 0.233 ms/b)
<sf|sf>:          406 b            0 skpd (  0.0%)    0.003 s ( 0.008 ms/b)
<sf|sg>:          588 b            0 skpd (  0.0%)    0.005 s ( 0.008 ms/b)
<sf|sh>:          392 b            0 skpd (  0.0%)    0.010 s ( 0.027 ms/b)
<sf|pp>:          784 b            0 skpd (  0.0%)    0.018 s ( 0.023 ms/b)
<sf|pd>:         1176 b            0 skpd (  0.0%)    0.054 s ( 0.046 ms/b)
<sf|pf>:          784 b            0 skpd (  0.0%)    0.010 s ( 0.013 ms/b)
<sf|pg>:          588 b            0 skpd (  0.0%)    0.010 s ( 0.017 ms/b)
<sf|ph>:          392 b            2 skpd (  0.5%)    0.016 s ( 0.041 ms/b)
<sf|dd>:          588 b            0 skpd (  0.0%)    0.045 s ( 0.077 ms/b)
<sf|df>:          672 b            0 skpd (  0.0%)    0.010 s ( 0.015 ms/b)
<sf|dg>:          504 b            0 skpd (  0.0%)    0.016 s ( 0.031 ms/b)
<sf|dh>:          336 b            0 skpd (  0.0%)    0.024 s ( 0.071 ms/b)
<sf|ff>:          280 b            0 skpd (  0.0%)    0.002 s ( 0.009 ms/b)
<sf|fg>:          336 b            0 skpd (  0.0%)    0.004 s ( 0.011 ms/b)
<sf|fh>:          224 b            0 skpd (  0.0%)    0.005 s ( 0.022 ms/b)
<sf|gg>:          168 b            0 skpd (  0.0%)    0.005 s ( 0.030 ms/b)
<sf|gh>:          168 b            0 skpd (  0.0%)    0.007 s ( 0.041 ms/b)
<sf|hh>:           84 b            0 skpd (  0.0%)    0.009 s ( 0.113 ms/b)
<sg|sg>:          231 b            0 skpd (  0.0%)    0.007 s ( 0.031 ms/b)
<sg|sh>:          294 b            0 skpd (  0.0%)    0.016 s ( 0.055 ms/b)
<sg|pp>:          588 b            0 skpd (  0.0%)    0.026 s ( 0.045 ms/b)
<sg|pd>:          882 b            0 skpd (  0.0%)    0.080 s ( 0.090 ms/b)
<sg|pf>:          588 b            0 skpd (  0.0%)    0.015 s ( 0.026 ms/b)
<sg|pg>:          441 b            0 skpd (  0.0%)    0.015 s ( 0.033 ms/b)
<sg|ph>:          294 b            0 skpd (  0.0%)    0.025 s ( 0.085 ms/b)
<sg|dd>:          441 b            0 skpd (  0.0%)    0.067 s ( 0.151 ms/b)
<sg|df>:          504 b            0 skpd (  0.0%)    0.016 s ( 0.031 ms/b)
<sg|dg>:          378 b            0 skpd (  0.0%)    0.025 s ( 0.066 ms/b)
<sg|dh>:          252 b            0 skpd (  0.0%)    0.038 s ( 0.150 ms/b)
<sg|ff>:          210 b            0 skpd (  0.0%)    0.003 s ( 0.016 ms/b)
<sg|fg>:          252 b            0 skpd (  0.0%)    0.005 s ( 0.021 ms/b)
<sg|fh>:          168 b            0 skpd (  0.0%)    0.007 s ( 0.042 ms/b)
<sg|gg>:          126 b            0 skpd (  0.0%)    0.008 s ( 0.062 ms/b)
<sg|gh>:          126 b            0 skpd (  0.0%)    0.010 s ( 0.082 ms/b)
<sg|hh>:           63 b            0 skpd (  0.0%)    0.014 s ( 0.220 ms/b)
<sh|sh>:          105 b            0 skpd (  0.0%)    0.019 s ( 0.184 ms/b)
<sh|pp>:          392 b            0 skpd (  0.0%)    0.035 s ( 0.090 ms/b)
<sh|pd>:          588 b            0 skpd (  0.0%)    0.112 s ( 0.190 ms/b)
<sh|pf>:          392 b            0 skpd (  0.0%)    0.021 s ( 0.053 ms/b)
<sh|pg>:          294 b            0 skpd (  0.0%)    0.020 s ( 0.068 ms/b)
<sh|ph>:          196 b            1 skpd (  0.5%)    0.032 s ( 0.162 ms/b)
<sh|dd>:          294 b            0 skpd (  0.0%)    0.094 s ( 0.319 ms/b)
<sh|df>:          336 b            0 skpd (  0.0%)    0.020 s ( 0.061 ms/b)
<sh|dg>:          252 b            0 skpd (  0.0%)    0.034 s ( 0.134 ms/b)
<sh|dh>:          168 b            0 skpd (  0.0%)    0.049 s ( 0.291 ms/b)
<sh|ff>:          140 b            0 skpd (  0.0%)    0.004 s ( 0.030 ms/b)
<sh|fg>:          168 b            0 skpd (  0.0%)    0.007 s ( 0.043 ms/b)
<sh|fh>:          112 b            0 skpd (  0.0%)    0.009 s ( 0.079 ms/b)
<sh|gg>:           84 b            0 skpd (  0.0%)    0.009 s ( 0.110 ms/b)
<sh|gh>:           84 b            0 skpd (  0.0%)    0.013 s ( 0.150 ms/b)
<sh|hh>:           42 b            0 skpd (  0.0%)    0.017 s ( 0.414 ms/b)
<pp|pp>:          406 b            0 skpd (  0.0%)    0.064 s ( 0.159 ms/b)
<pp|pd>:         1176 b            0 skpd (  0.0%)    0.169 s ( 0.144 ms/b)
<pp|pf>:          784 b            0 skpd (  0.0%)    0.028 s ( 0.035 ms/b)
<pp|pg>:          588 b            0 skpd (  0.0%)    0.024 s ( 0.041 ms/b)
<pp|ph>:          392 b            0 skpd (  0.0%)    0.042 s ( 0.107 ms/b)
<pp|dd>:          588 b            0 skpd (  0.0%)    0.134 s ( 0.228 ms/b)
<pp|df>:          672 b            0 skpd (  0.0%)    0.026 s ( 0.039 ms/b)
<pp|dg>:          504 b            0 skpd (  0.0%)    0.040 s ( 0.080 ms/b)
<pp|dh>:          336 b            0 skpd (  0.0%)    0.059 s ( 0.174 ms/b)
<pp|ff>:          280 b            0 skpd (  0.0%)    0.005 s ( 0.019 ms/b)
<pp|fg>:          336 b            0 skpd (  0.0%)    0.008 s ( 0.022 ms/b)
<pp|fh>:          224 b            0 skpd (  0.0%)    0.010 s ( 0.046 ms/b)
<pp|gg>:          168 b            0 skpd (  0.0%)    0.011 s ( 0.067 ms/b)
<pp|gh>:          168 b            0 skpd (  0.0%)    0.015 s ( 0.087 ms/b)
<pp|hh>:           84 b            0 skpd (  0.0%)    0.022 s ( 0.261 ms/b)
<pd|pd>:          903 b            0 skpd (  0.0%)    0.248 s ( 0.275 ms/b)
<pd|pf>:         1176 b            0 skpd (  0.0%)    0.077 s ( 0.065 ms/b)
<pd|pg>:          882 b            0 skpd (  0.0%)    0.073 s ( 0.082 ms/b)
<pd|ph>:          588 b            3 skpd (  0.5%)    0.118 s ( 0.202 ms/b)
<pd|dd>:          882 b            0 skpd (  0.0%)    0.368 s ( 0.417 ms/b)
<pd|df>:         1008 b            0 skpd (  0.0%)    0.079 s ( 0.078 ms/b)
<pd|dg>:          756 b            1 skpd (  0.1%)    0.122 s ( 0.162 ms/b)
<pd|dh>:          504 b            0 skpd (  0.0%)    0.185 s ( 0.367 ms/b)
<pd|ff>:          420 b            0 skpd (  0.0%)    0.016 s ( 0.038 ms/b)
<pd|fg>:          504 b            0 skpd (  0.0%)    0.023 s ( 0.046 ms/b)
<pd|fh>:          336 b            0 skpd (  0.0%)    0.033 s ( 0.098 ms/b)
<pd|gg>:          252 b            0 skpd (  0.0%)    0.034 s ( 0.136 ms/b)
<pd|gh>:          252 b            0 skpd (  0.0%)    0.046 s ( 0.184 ms/b)
<pd|hh>:          126 b            0 skpd (  0.0%)    0.063 s ( 0.503 ms/b)
<pf|pf>:          406 b            0 skpd (  0.0%)    0.009 s ( 0.022 ms/b)
<pf|pg>:          588 b            3 skpd (  0.5%)    0.016 s ( 0.028 ms/b)
<pf|ph>:          392 b            0 skpd (  0.0%)    0.027 s ( 0.070 ms/b)
<pf|dd>:          588 b            0 skpd (  0.0%)    0.072 s ( 0.123 ms/b)
<pf|df>:          672 b            0 skpd (  0.0%)    0.017 s ( 0.026 ms/b)
<pf|dg>:          504 b            1 skpd (  0.2%)    0.028 s ( 0.055 ms/b)
<pf|dh>:          336 b            0 skpd (  0.0%)    0.043 s ( 0.128 ms/b)
<pf|ff>:          280 b            0 skpd (  0.0%)    0.006 s ( 0.020 ms/b)
<pf|fg>:          336 b            0 skpd (  0.0%)    0.007 s ( 0.021 ms/b)
<pf|fh>:          224 b            0 skpd (  0.0%)    0.009 s ( 0.042 ms/b)
<pf|gg>:          168 b            0 skpd (  0.0%)    0.010 s ( 0.059 ms/b)
<pf|gh>:          168 b            0 skpd (  0.0%)    0.013 s ( 0.079 ms/b)
<pf|hh>:           84 b            0 skpd (  0.0%)    0.018 s ( 0.215 ms/b)
<pg|pg>:          231 b            0 skpd (  0.0%)    0.024 s ( 0.102 ms/b)
<pg|ph>:          294 b            4 skpd (  1.4%)    0.038 s ( 0.133 ms/b)
<pg|dd>:          441 b            0 skpd (  0.0%)    0.114 s ( 0.259 ms/b)
<pg|df>:          504 b            1 skpd (  0.2%)    0.026 s ( 0.052 ms/b)
<pg|dg>:          378 b            0 skpd (  0.0%)    0.041 s ( 0.109 ms/b)
<pg|dh>:          252 b            0 skpd (  0.0%)    0.059 s ( 0.235 ms/b)
<pg|ff>:          210 b            0 skpd (  0.0%)    0.006 s ( 0.028 ms/b)
<pg|fg>:          252 b            0 skpd (  0.0%)    0.009 s ( 0.036 ms/b)
<pg|fh>:          168 b            0 skpd (  0.0%)    0.012 s ( 0.072 ms/b)
<pg|gg>:          126 b            0 skpd (  0.0%)    0.014 s ( 0.108 ms/b)
<pg|gh>:          126 b            0 skpd (  0.0%)    0.018 s ( 0.141 ms/b)
<pg|hh>:           63 b            0 skpd (  0.0%)    0.024 s ( 0.375 ms/b)
<ph|ph>:          105 b            1 skpd (  1.0%)    0.044 s ( 0.419 ms/b)
<ph|dd>:          294 b            0 skpd (  0.0%)    0.146 s ( 0.497 ms/b)
<ph|df>:          336 b            0 skpd (  0.0%)    0.030 s ( 0.091 ms/b)
<ph|dg>:          252 b            1 skpd (  0.4%)    0.049 s ( 0.194 ms/b)
<ph|dh>:          168 b            1 skpd (  0.6%)    0.069 s ( 0.414 ms/b)
<ph|ff>:          140 b            0 skpd (  0.0%)    0.006 s ( 0.046 ms/b)
<ph|fg>:          168 b            1 skpd (  0.6%)    0.010 s ( 0.058 ms/b)
<ph|fh>:          112 b            0 skpd (  0.0%)    0.013 s ( 0.120 ms/b)
<ph|gg>:           84 b            0 skpd (  0.0%)    0.014 s ( 0.167 ms/b)
<ph|gh>:           84 b            0 skpd (  0.0%)    0.019 s ( 0.228 ms/b)
<ph|hh>:           42 b            0 skpd (  0.0%)    0.027 s ( 0.636 ms/b)
<dd|dd>:          231 b            0 skpd (  0.0%)    0.314 s ( 1.359 ms/b)
<dd|df>:          504 b            0 skpd (  0.0%)    0.073 s ( 0.145 ms/b)
<dd|dg>:          378 b            0 skpd (  0.0%)    0.118 s ( 0.313 ms/b)
<dd|dh>:          252 b            0 skpd (  0.0%)    0.178 s ( 0.706 ms/b)
<dd|ff>:          210 b            0 skpd (  0.0%)    0.015 s ( 0.070 ms/b)
<dd|fg>:          252 b            0 skpd (  0.0%)    0.023 s ( 0.089 ms/b)
<dd|fh>:          168 b            0 skpd (  0.0%)    0.031 s ( 0.187 ms/b)
<dd|gg>:          126 b            0 skpd (  0.0%)    0.033 s ( 0.264 ms/b)
<dd|gh>:          126 b            0 skpd (  0.0%)    0.045 s ( 0.356 ms/b)
<dd|hh>:           63 b            0 skpd (  0.0%)    0.060 s ( 0.954 ms/b)
<df|df>:          300 b            0 skpd (  0.0%)    0.024 s ( 0.081 ms/b)
<df|dg>:          432 b            1 skpd (  0.2%)    0.040 s ( 0.093 ms/b)
<df|dh>:          288 b            0 skpd (  0.0%)    0.059 s ( 0.203 ms/b)
<df|ff>:          240 b            0 skpd (  0.0%)    0.007 s ( 0.030 ms/b)
<df|fg>:          288 b            0 skpd (  0.0%)    0.010 s ( 0.035 ms/b)
<df|fh>:          192 b            0 skpd (  0.0%)    0.014 s ( 0.073 ms/b)
<df|gg>:          144 b            0 skpd (  0.0%)    0.015 s ( 0.102 ms/b)
<df|gh>:          144 b            0 skpd (  0.0%)    0.020 s ( 0.138 ms/b)
<df|hh>:           72 b            0 skpd (  0.0%)    0.027 s ( 0.376 ms/b)
<dg|dg>:          171 b            0 skpd (  0.0%)    0.051 s ( 0.301 ms/b)
<dg|dh>:          216 b            1 skpd (  0.5%)    0.076 s ( 0.355 ms/b)
<dg|ff>:          180 b            0 skpd (  0.0%)    0.008 s ( 0.045 ms/b)
<dg|fg>:          216 b            0 skpd (  0.0%)    0.012 s ( 0.057 ms/b)
<dg|fh>:          144 b            0 skpd (  0.0%)    0.016 s ( 0.114 ms/b)
<dg|gg>:          108 b            0 skpd (  0.0%)    0.019 s ( 0.172 ms/b)
<dg|gh>:          108 b            0 skpd (  0.0%)    0.024 s ( 0.225 ms/b)
<dg|hh>:           54 b            0 skpd (  0.0%)    0.033 s ( 0.608 ms/b)
<dh|dh>:           78 b            0 skpd (  0.0%)    0.082 s ( 1.049 ms/b)
<dh|ff>:          120 b            0 skpd (  0.0%)    0.008 s ( 0.071 ms/b)
<dh|fg>:          144 b            0 skpd (  0.0%)    0.012 s ( 0.087 ms/b)
<dh|fh>:           96 b            0 skpd (  0.0%)    0.017 s ( 0.180 ms/b)
<dh|gg>:           72 b            0 skpd (  0.0%)    0.018 s ( 0.251 ms/b)
<dh|gh>:           72 b            0 skpd (  0.0%)    0.026 s ( 0.357 ms/b)
<dh|hh>:           36 b            0 skpd (  0.0%)    0.035 s ( 0.985 ms/b)
<ff|ff>:           55 b            0 skpd (  0.0%)    0.002 s ( 0.034 ms/b)
<ff|fg>:          120 b            0 skpd (  0.0%)    0.003 s ( 0.027 ms/b)
<ff|fh>:           80 b            0 skpd (  0.0%)    0.004 s ( 0.055 ms/b)
<ff|gg>:           60 b            0 skpd (  0.0%)    0.005 s ( 0.077 ms/b)
<ff|gh>:           60 b            0 skpd (  0.0%)    0.007 s ( 0.112 ms/b)
<ff|hh>:           30 b            0 skpd (  0.0%)    0.009 s ( 0.307 ms/b)
<fg|fg>:           78 b            0 skpd (  0.0%)    0.006 s ( 0.071 ms/b)
<fg|fh>:           96 b            0 skpd (  0.0%)    0.008 s ( 0.083 ms/b)
<fg|gg>:           72 b            0 skpd (  0.0%)    0.009 s ( 0.129 ms/b)
<fg|gh>:           72 b            0 skpd (  0.0%)    0.013 s ( 0.178 ms/b)
<fg|hh>:           36 b            0 skpd (  0.0%)    0.017 s ( 0.475 ms/b)
<fh|fh>:           36 b            0 skpd (  0.0%)    0.008 s ( 0.213 ms/b)
<fh|gg>:           48 b            0 skpd (  0.0%)    0.008 s ( 0.163 ms/b)
<fh|gh>:           48 b            0 skpd (  0.0%)    0.012 s ( 0.256 ms/b)
<fh|hh>:           24 b            0 skpd (  0.0%)    0.017 s ( 0.718 ms/b)
<gg|gg>:           21 b            0 skpd (  0.0%)    0.007 s ( 0.330 ms/b)
<gg|gh>:           36 b            0 skpd (  0.0%)    0.012 s ( 0.322 ms/b)
<gg|hh>:           18 b            0 skpd (  0.0%)    0.015 s ( 0.851 ms/b)
<gh|gh>:           21 b            0 skpd (  0.0%)    0.016 s ( 0.759 ms/b)
<gh|hh>:           18 b            0 skpd (  0.0%)    0.023 s ( 1.290 ms/b)
<hh|hh>:            6 b            0 skpd (  0.0%)    0.021 s ( 3.496 ms/b)
Recanonicalizing the internal orbitals
Recanonicalizing the virtual orbitals
Time needed for Fock operator              ...            8.905 sec
Reference energy                           ...   -118.516203265
Warning: for UHF the TrafoType has to be JK
Warning: for UHF the K(C)-option cannot be MO but must be AOX

-------------------------------
PARTIAL EXCHANGE TRANSFORMATION
-------------------------------

Transformation type                        ... two-operators
Generation of integrals (i,mue|j,nue)      ... ON
Generation of integrals (mue,kappa|nue,tau)... ON
Generation of integrals (i,mue|a,nue)      ... ON
Dimension of the basis                     ...  135
Number of internal alpha-MOs               ...   10 (   0-   9)
Number of internal beta-MOs                ...    8 (   0-   7)
Number of external alpha-MOs               ...  125 (  10- 134)
Number of external beta-MOs                ...  127 (   8- 134)
Pair cutoff                                ... 0.000e+00 Eh
Number of AO pairs in the trafo            ... 9180
Total Number of distinct AO pairs          ... 9180
Memory devoted for trafo                   ... 2500.0 MB 
Max. Number of MO pairs treated together   ... 17979      
Number Format for Storage                  ... Double (8 Byte)
Integral package used                      ... LIBINT

Starting integral evaluation:
    ... done with AO integral generation
Closing buffer AOK[aa] ( 0.00 GB; CompressionRatio= 0.99)
Closing buffer AOK[bb] ( 0.00 GB; CompressionRatio= 0.98)
Closing buffer AOK[ab] ( 0.00 GB; CompressionRatio= 0.98)
Closing buffer AOK[ba] ( 0.00 GB; CompressionRatio= 0.98)
Collecting buffer AOK 
Closing buffer IAAO1[aa] ( 0.00 GB; CompressionRatio= 1.00)
Closing buffer IAAO1[bb] ( 0.00 GB; CompressionRatio= 1.00)
Closing buffer IAAO1[ab] ( 0.00 GB; CompressionRatio= 1.00)
Closing buffer IAAO1[ba] ( 0.00 GB; CompressionRatio= 1.00)
Closing buffer IAAO2[aa] ( 0.00 GB; CompressionRatio= 1.00)
Closing buffer IAAO2[bb] ( 0.00 GB; CompressionRatio= 1.00)
Closing buffer IAAO2[ab] ( 0.00 GB; CompressionRatio= 1.00)
Closing buffer IAAO2[ba] ( 0.00 GB; CompressionRatio= 1.00)
Collecting buffer IAAO 
Closing buffer PRQS    ( 0.01 GB; CompressionRatio= 1.00)
Collecting buffer PRQS 
Number of alpha/alpha MO pairs in trafo    ...   55
Number of beta /beta  MO pairs in trafo    ...   36
Number of alpha/ beta MO pairs in trafo    ...   80
------------------------
SORTING OF (i,mue|j,nue)
------------------------

SORTING OF ALPHA/ALPHA PAIRS
IBATCH = 1 of  1
Closing buffer KAO[aa] ( 0.00 GB; CompressionRatio= 1.00)
Collecting buffer KAO 
SORTING OF BETA /BETA  PAIRS
IBATCH = 1 of  1
Closing buffer KAO[bb] ( 0.00 GB; CompressionRatio= 1.00)
Collecting buffer KAO 
SORTING OF ALPHA/BETA  PAIRS
IBATCH = 1 of  1
Closing buffer KAO[ab] ( 0.00 GB; CompressionRatio= 0.999917702247)
Collecting buffer KAO[ab] 
------------------------
SORTING OF (i,mue|a,nue)
------------------------

Number of alpha/alpha (i,a) pairs in trafo  ... 1250
Number of beta /beta  (i,a) pairs in trafo  ... 1016
Number of alpha/ beta (i,a) pairs in trafo  ... 1270
Number of beta /alpha (i,a) pairs in trafo  ... 1000
Setting up the alpha/alpha list             ... done
Setting up the beta /beta  list             ... done
Setting up the alpha/beta  list             ... done
Setting up the beta /alpha list             ... done
    ... Now sorting (i,mue|a,nue)integrals
    ... Integrals (i,b|a,c) will be made on the fly
SORTING OF ALPHA/ALPHA PAIRS
IBATCH = 1 of  1
Closing buffer IPAQ[aa]  0.01 GB; CompressionRatio= 1.00)
SORTING OF BETA /BETA  PAIRS
IBATCH = 1 of  1
Closing buffer IPAQ[bb]( 0.01 GB; CompressionRatio= 1.00)
SORTING OF ALPHA/BETA  PAIRS (NMatSort_ab=53)
IBATCH = 1 of  1
Closing buffer IPAQ[ab]( 0.01 GB; CompressionRatio= 1.00)
SORTING OF BETA/ALPHA  PAIRS
IBATCH = 1 of  1
Closing buffer IPAQ[ba]( 0.00 GB; CompressionRatio= 1.00)
N(AO-Batches) Done                         ...      5046 
N(AO-Batches) Skipped                      ...         0 
N(IJ)-pairs Skipped                        ...         0 
TOTAL TIME for half transformation         ...    38.806 sec
AO-integral generation                     ...     2.411 sec
Half transformation                        ...     0.015 sec
K-integral sorting                         ...     2.043 sec
<ss|**>: 
------------------------------
PARTIAL COULOMB TRANSFORMATION
------------------------------

Transformation type                        ... two-operators
Dimension of the basis                     ...  135
Number of internal alpha-MOs               ...   10 (0-9)
Number of internal beta-MOs                ...    8 (0-7)
Pair cutoff                                ... 0.000e+00 Eh
Number of AO pairs included in the trafo   ... 9180
Total Number of distinct AO pairs          ... 9180
Memory devoted for trafo                   ... 2500.0 MB 
Max. Number of MO pairs treated together   ... 35694      
Max. Number of MOs treated per batch       ...  264      
Number Format for Storage                  ... Double (8 Byte)
AO-integral source                         ... DIRECT
Integral package used                      ... LIBINT

Starting integral evaluation:
       12180 b        0 skpd     0.591 s (  0.049 ms/b)
<sp|**>:        21315 b        0 skpd     1.076 s (  0.050 ms/b)
<sd|**>:        18270 b        0 skpd     1.587 s (  0.087 ms/b)
<sf|**>:        12180 b        0 skpd     0.317 s (  0.026 ms/b)
<sg|**>:         9135 b        0 skpd     0.309 s (  0.034 ms/b)
<sh|**>:         6090 b        0 skpd     0.612 s (  0.101 ms/b)
<pp|**>:        12180 b        0 skpd     0.838 s (  0.069 ms/b)
<pd|**>:        18270 b        0 skpd     2.505 s (  0.137 ms/b)
<pf|**>:        12180 b        0 skpd     0.495 s (  0.041 ms/b)
<pg|**>:         9135 b        0 skpd     0.463 s (  0.051 ms/b)
<ph|**>:         6090 b        0 skpd     0.786 s (  0.129 ms/b)
<dd|**>:         9135 b        0 skpd     2.252 s (  0.247 ms/b)
<df|**>:        10440 b        0 skpd     0.482 s (  0.046 ms/b)
<dg|**>:         7830 b        0 skpd     0.776 s (  0.099 ms/b)
<dh|**>:         5220 b        0 skpd     1.124 s (  0.215 ms/b)
<ff|**>:         4350 b        0 skpd     0.107 s (  0.025 ms/b)
<fg|**>:         5220 b        0 skpd     0.163 s (  0.031 ms/b)
<fh|**>:         3480 b        0 skpd     0.225 s (  0.065 ms/b)
<gg|**>:         2610 b        0 skpd     0.247 s (  0.095 ms/b)
<gh|**>:         2610 b        0 skpd     0.336 s (  0.129 ms/b)
<hh|**>:         1305 b        0 skpd     0.471 s (  0.361 ms/b)
Closing buffer AOJ[aa] ( 0.00 GB; CompressionRatio= 0.97)
Closing buffer AOJ[bb] ( 0.00 GB; CompressionRatio= 0.00)
Collecting buffer AOJ 
    ... done with AO integral generation
Number of Alpha-MO pairs included          ...   55
Number of Beta-MO pairs included           ...   36
    ... Now sorting integrals
SORTING ALPHA/ALPHA PAIRS
IBATCH = 1 of  1
Closing buffer JAO[aa] ( 0.00 GB; CompressionRatio= 1.00)
SORTING BETA/BETA PAIRS
IBATCH = 1 of  1
Closing buffer JAO[bb] ( 0.00 GB; CompressionRatio= 1.00)
Collecting buffer JAO 
TOTAL TIME for half transformation         ...    15.840 sec
AO-integral generation                     ...    15.785 sec
Half transformation                        ...     0.020 sec
J-integral sorting                         ...     0.029 sec

-------------------------- SECOND HALF TRANSFORMATION -------------------------
Formation of (ij|kl),(ij|ka), (ij|ab)      ... ok (     0.074 sec)
Formation of (ik|jl),(ik|ja), (ia|jb)      ... ok (     0.120 sec)


-----------------------
SPIN UNRESTRICTED GUESS
-----------------------

Entering MDCI_UHF_Guess, Tailored=0
Spin-components of the MP2 energy:
EMP2(aa)=     -0.129642724
EMP2(bb)=     -0.081894212
EMP2(ab)=     -0.465736610

Initial guess performed in     0.054 sec
E(0)                                       ...   -118.516203265
E(MP2)                                     ...     -0.677273546
Initial E(tot)                             ...   -119.193476811
<T|T>                                      ...      0.139529261
Number of pairs included                   ... 153

------------------------------------------------
                  UHF COUPLED CLUSTER ITERATIONS
------------------------------------------------

Number of amplitudes to be optimized       ...      1848465

Iter       E(tot)           E(Corr)          Delta-E          Residual     Time      <S|S>**1/2
  0   -119.193476811     -0.677273546     -0.000000000      0.021425960    8.64      0.000004712
                           *** Turning on DIIS ***
  1   -119.149728475     -0.633525210      0.043748336      0.007822972   10.77      0.035091997
  2   -119.162628570     -0.646425304     -0.012900095      0.005046916   10.81      0.039920515
  3   -119.163654594     -0.647451328     -0.001026024      0.002495160   10.81      0.047944875
  4   -119.164154383     -0.647951117     -0.000499789      0.000920273   10.87      0.052226194
  5   -119.164345286     -0.648142021     -0.000190904      0.000428770   10.84      0.054844039
  6   -119.164360619     -0.648157354     -0.000015333      0.000421153   10.86      0.055542054
  7   -119.164365839     -0.648162574     -0.000005220      0.000413593   10.89      0.055825725
  8   -119.164370479     -0.648167214     -0.000004640      0.000387804   10.83      0.056242344
  9   -119.164377840     -0.648174575     -0.000007360      0.000310710   10.80      0.057833540
 10   -119.164405619     -0.648202354     -0.000027779      0.000111436   10.81      0.063893844
 11   -119.164413248     -0.648209983     -0.000007629      0.000027820   10.81      0.066876797
 12   -119.164416692     -0.648213427     -0.000003444      0.000008799   10.83      0.067629797
               --- The Coupled-Cluster iterations have converged ---

----------------------
COUPLED CLUSTER ENERGY
----------------------

E(0)                                       ...   -118.516203265
E(CORR)                                    ...     -0.648213427
E(TOT)                                     ...   -119.164416692
Singles norm <S|S>**1/2                    ...      0.067629797 ( 0.037424244, 0.030205553)  
T1 diagnostic                              ...      0.015940496                              

------------------
LARGEST AMPLITUDES
------------------
   9a-> 30a  -1a-> -1a       0.048963
   7b->  8b  -1b-> -1b       0.043789
   9a-> 13a  -1a-> -1a       0.037965
   7b-> 12b  -1b-> -1b       0.028664
   9a-> 24a   7b-> 24b       0.016768
   5a-> 47a   4a-> 46a       0.016437
   5a-> 46a   4a-> 47a       0.016437
   7b-> 30b  -1b-> -1b       0.016016
   4b-> 41b  -1b-> -1b       0.015821
   9a-> 16a   7b-> 24b       0.015252
   4b-> 25b  -1b-> -1b       0.014250
   7a-> 44a   6b-> 43b       0.014190
   6a-> 43a   5b-> 42b       0.014190
   8a-> 52a   7b-> 49b       0.014045
   8a-> 45a   7b-> 44b       0.014038
   5a-> 42a   4b-> 41b       0.013860

----------------------
UHF TRIPLES CORRECTION (Algorithm 1)
----------------------

Multiplier for the singles contribution    ...      1.000000000

SPIN-CASE Alpha-Alpha-Alpha:
10% done
20% done
30% done
40% done
50% done
60% done
70% done
80% done
90% done


SPIN-CASE Beta-Beta-Beta:
10% done
20% done
30% done
40% done
50% done
60% done
70% done
80% done
90% done


SPIN-CASE Alpha-Alpha-Beta:
10% done
20% done
30% done
40% done
50% done
60% done
70% done
80% done
90% done


SPIN-CASE Beta-Beta-Alpha:
10% done
20% done
30% done
40% done
50% done
60% done
70% done
80% done
90% done


Triples Correction (T)                     ...     -0.026309507
    alpha-alpha-alpha ... -0.001765180 (  6.7%)
    alpha-alpha-beta  ... -0.014268349 ( 54.2%)
    alpha-beta -beta  ... -0.009687585 ( 36.8%)
    beta -beta -beta  ... -0.000588393 (  2.2%)
Scaling of triples based on CCSD energies (Peterson et al. Molecular Physics 113, 1551 (2015))
E(T*) = f*E(T) where f = E(F12-CCSD)/E(CCSD) 
f = CCSD (with F12)/ CCSD (without F12)    ...      1.000000000
Scaled triples correction (T)              ...     -0.026309507

Final correlation energy                   ...     -0.674522934
E(CCSD)                                    ...   -119.164416692
E(CCSD(T))                                 ...   -119.190726200



        !!!!!!!!!!!!!!!!!!!!!!!!!!!!!!!!!!!!!!!!!!!!!!!!!!!!!!!!!!!!!!!!!!!!!!!!!! 
        !  Warning: Densities are linearized densities                           !
        !!!!!!!!!!!!!!!!!!!!!!!!!!!!!!!!!!!!!!!!!!!!!!!!!!!!!!!!!!!!!!!!!!!!!!!!!! 

NORM  =      1.134892144 sqrt=     1.065313167
W(HF) =      0.881141001
------------------------------------------------------------------------------
                           ORCA POPULATION ANALYSIS
------------------------------------------------------------------------------
Input electron density              ... 78_Pt.mdcip
Input spin density                  ... 78_Pt.mdcir
BaseName (.gbw .S,...)              ... 78_Pt

                    ********************************
                    * MULLIKEN POPULATION ANALYSIS *
                    ********************************

------------------------------------------
MULLIKEN ATOMIC CHARGES AND SPIN DENSITIES
------------------------------------------
   0 Pt:    0.000000    2.000000
Sum of atomic charges       :    0.0000000
Sum of atomic spin densities:    2.0000000

---------------------------------------------------
MULLIKEN REDUCED ORBITAL CHARGES AND SPIN DENSITIES
---------------------------------------------------
CHARGE
  0 Pts       :     2.979494  s :     2.979494
      pz      :     2.005145  p :     6.021192
      px      :     2.005149
      py      :     2.010898
      dz2     :     1.240571  d :     8.882016
      dxz     :     1.972318
      dyz     :     1.970969
      dx2y2   :     1.727190
      dxy     :     1.970968
      f0      :     0.012147  f :     0.097174
      f+1     :     0.012574
      f-1     :     0.013730
      f+2     :     0.014744
      f-2     :     0.015357
      f+3     :     0.014318
      f-3     :     0.014304
      g0      :     0.001691  g :     0.016392
      g+1     :     0.001642
      g-1     :     0.001810
      g+2     :     0.001812
      g-2     :     0.001840
      g+3     :     0.001913
      g-3     :     0.001914
      g+4     :     0.001886
      g-4     :     0.001884
      h0      :     0.000305  h :     0.003731
      h+1     :     0.000306
      h-1     :     0.000321
      h+2     :     0.000329
      h-2     :     0.000342
      h+3     :     0.000360
      h-3     :     0.000360
      h+4     :     0.000368
      h-4     :     0.000368
      h+5     :     0.000336
      h-5     :     0.000336

SPIN
  0 Pts       :     0.976744  s :     0.976744
      pz      :     0.007748  p :     0.019510
      px      :     0.007746
      py      :     0.004015
      dz2     :     0.736477  d :     0.994892
      dxz     :     0.002805
      dyz     :     0.003801
      dx2y2   :     0.248007
      dxy     :     0.003802
      f0      :     0.002675  f :     0.006399
      f+1     :     0.002143
      f-1     :     0.001117
      f+2     :     0.000009
      f-2     :    -0.000636
      f+3     :     0.000541
      f-3     :     0.000550
      g0      :     0.000442  g :     0.002336
      g+1     :     0.000387
      g-1     :     0.000350
      g+2     :     0.000241
      g-2     :     0.000167
      g+3     :     0.000098
      g-3     :     0.000095
      g+4     :     0.000278
      g-4     :     0.000278
      h0      :     0.000034  h :     0.000118
      h+1     :     0.000049
      h-1     :     0.000011
      h+2     :     0.000021
      h-2     :     0.000016
      h+3     :     0.000004
      h-3     :     0.000004
      h+4     :    -0.000007
      h-4     :    -0.000007
      h+5     :    -0.000004
      h-5     :    -0.000004


                     *******************************
                     * LOEWDIN POPULATION ANALYSIS *
                     *******************************

-----------------------------------------
LOEWDIN ATOMIC CHARGES AND SPIN DENSITIES
-----------------------------------------
   0 Pt:    0.000000    2.000000

--------------------------------------------------
LOEWDIN REDUCED ORBITAL CHARGES AND SPIN DENSITIES
--------------------------------------------------
CHARGE
  0 Pts       :     2.979494  s :     2.979494
      pz      :     2.005145  p :     6.021192
      px      :     2.005149
      py      :     2.010898
      dz2     :     1.240571  d :     8.882016
      dxz     :     1.972318
      dyz     :     1.970969
      dx2y2   :     1.727190
      dxy     :     1.970968
      f0      :     0.012147  f :     0.097174
      f+1     :     0.012574
      f-1     :     0.013730
      f+2     :     0.014744
      f-2     :     0.015357
      f+3     :     0.014318
      f-3     :     0.014304
      g0      :     0.001691  g :     0.016392
      g+1     :     0.001642
      g-1     :     0.001810
      g+2     :     0.001812
      g-2     :     0.001840
      g+3     :     0.001913
      g-3     :     0.001914
      g+4     :     0.001886
      g-4     :     0.001884
      h0      :     0.000305  h :     0.003731
      h+1     :     0.000306
      h-1     :     0.000321
      h+2     :     0.000329
      h-2     :     0.000342
      h+3     :     0.000360
      h-3     :     0.000360
      h+4     :     0.000368
      h-4     :     0.000368
      h+5     :     0.000336
      h-5     :     0.000336

SPIN
  0 Pts       :     0.976744  s :     0.976744
      pz      :     0.007748  p :     0.019510
      px      :     0.007746
      py      :     0.004015
      dz2     :     0.736477  d :     0.994892
      dxz     :     0.002805
      dyz     :     0.003801
      dx2y2   :     0.248007
      dxy     :     0.003802
      f0      :     0.002675  f :     0.006399
      f+1     :     0.002143
      f-1     :     0.001117
      f+2     :     0.000009
      f-2     :    -0.000636
      f+3     :     0.000541
      f-3     :     0.000550
      g0      :     0.000442  g :     0.002336
      g+1     :     0.000387
      g-1     :     0.000350
      g+2     :     0.000241
      g-2     :     0.000167
      g+3     :     0.000098
      g-3     :     0.000095
      g+4     :     0.000278
      g-4     :     0.000278
      h0      :     0.000034  h :     0.000118
      h+1     :     0.000049
      h-1     :     0.000011
      h+2     :     0.000021
      h-2     :     0.000016
      h+3     :     0.000004
      h-3     :     0.000004
      h+4     :    -0.000007
      h-4     :    -0.000007
      h+5     :    -0.000004
      h-5     :    -0.000004


                      *****************************
                      * MAYER POPULATION ANALYSIS *
                      *****************************

  NA   - Mulliken gross atomic population
  ZA   - Total nuclear charge
  QA   - Mulliken gross atomic charge
  VA   - Mayer's total valence
  BVA  - Mayer's bonded valence
  FA   - Mayer's free valence

  ATOM       NA         ZA         QA         VA         BVA        FA
  0 Pt    18.0000    18.0000     0.0000     2.8957     0.0000     2.8957





------------------------------------------------------------------------------- 
                                     TIMINGS                                   
------------------------------------------------------------------------------- 


Total execution time                   ...      213.254 sec

Fock Matrix Formation                  ...        8.905 sec (  4.2%)
Initial Guess                          ...        0.054 sec (  0.0%)
DIIS Solver                            ...        2.059 sec (  1.0%)
State Vector Update                    ...        0.099 sec (  0.0%)
Sigma-vector construction              ...      136.404 sec ( 64.0%)
  <0|H|D>                              ...        0.006 sec (  0.0% of sigma)
  <D|H|D>(0-ext Fock)                  ...        0.039 sec (  0.0% of sigma)
  <D|H|D>(0-ext)                       ...        0.154 sec (  0.1% of sigma)
  <D|H|D>(2-ext Fock)                  ...        0.015 sec (  0.0% of sigma)
  <D|H|D>(2-ext)                       ...        0.635 sec (  0.5% of sigma)
  <D|H|D>(4-ext)                       ...       17.634 sec ( 12.9% of sigma)
  <S|H|0>                              ...        1.603 sec (  1.2% of sigma)
  <S|H|S>                              ...        0.003 sec (  0.0% of sigma)
  <S|H|D>(1-ext)                       ...        0.010 sec (  0.0% of sigma)
  <D|H|S>(1-ext)                       ...        0.165 sec (  0.1% of sigma)
  Fock-dressing                        ...      109.709 sec ( 80.4% of sigma)
  (ik|jl)-dressing                     ...        0.180 sec (  0.1% of sigma)
  (ij|ab),(ia|jb)-dressing             ...        5.079 sec (  3.7% of sigma)
  Pair energies                        ...        0.007 sec (  0.0% of sigma)
Total Time for computing (T)           ...        8.066 sec (  3.8% of ALL)
  I/O of integral and amplitudes       ...        1.723 sec ( 21.4% of (T))
  External N**7 contributions          ...        2.555 sec ( 31.7% of (T))
  Internal N**7 contributions          ...        0.899 sec ( 11.1% of (T))
  N**6 triples energy contributions    ...        2.688 sec ( 33.3% of (T))


-------------------------   --------------------
FINAL SINGLE POINT ENERGY      -119.190726199614
-------------------------   --------------------


                            ***************************************
                            *     ORCA property calculations      *
                            ***************************************

                                    ---------------------
                                    Active property flags
                                    ---------------------
   (+) Dipole Moment


------------------------------------------------------------------------------
                       ORCA ELECTRIC PROPERTIES CALCULATION
------------------------------------------------------------------------------

Dipole Moment Calculation                       ... on
Quadrupole Moment Calculation                   ... off
Polarizability Calculation                      ... off
GBWName                                         ... 78_Pt.gbw
Electron density file                           ... 78_Pt.scfp
The origin for moment calculation is the CENTER OF MASS  = ( 0.000000,  0.000000  0.000000)

-------------
DIPOLE MOMENT
-------------
                                X             Y             Z
Electronic contribution:     -0.00000      -0.00000      -0.00000
Nuclear contribution   :      0.00000       0.00000       0.00000
                        -----------------------------------------
Total Dipole Moment    :     -0.00000      -0.00000      -0.00000
                        -----------------------------------------
Magnitude (a.u.)       :      0.00000
Magnitude (Debye)      :      0.00000



--------------------
Rotational spectrum 
--------------------
 
Rotational constants in cm-1:     0.000000     0.000000     0.000000 
Rotational constants in MHz :     0.000000     0.000000     0.000000 

 Dipole components along the rotational axes: 
x,y,z [a.u.] :    -0.000000    -0.000000    -0.000000 
x,y,z [Debye]:    -0.000000    -0.000000    -0.000000 

 

                           *** MDCI DENSITY ***

------------------------------------------------------------------------------
                       ORCA ELECTRIC PROPERTIES CALCULATION
------------------------------------------------------------------------------

Dipole Moment Calculation                       ... on
Quadrupole Moment Calculation                   ... off
Polarizability Calculation                      ... off
GBWName                                         ... 78_Pt.gbw
Electron density file                           ... 78_Pt.mdcip
The origin for moment calculation is the CENTER OF MASS  = ( 0.000000,  0.000000  0.000000)

-------------
DIPOLE MOMENT
-------------
                                X             Y             Z
Electronic contribution:      0.00000       0.00000       0.00000
Nuclear contribution   :      0.00000       0.00000       0.00000
                        -----------------------------------------
Total Dipole Moment    :      0.00000       0.00000       0.00000
                        -----------------------------------------
Magnitude (a.u.)       :      0.00000
Magnitude (Debye)      :      0.00000



--------------------
Rotational spectrum 
--------------------
 
Rotational constants in cm-1:     0.000000     0.000000     0.000000 
Rotational constants in MHz :     0.000000     0.000000     0.000000 

 Dipole components along the rotational axes: 
x,y,z [a.u.] :     0.000000     0.000000     0.000000 
x,y,z [Debye]:     0.000000     0.000000     0.000000 

 

Timings for individual modules:

Sum of individual times         ...      339.959 sec (=   5.666 min)
GTO integral calculation        ...        2.303 sec (=   0.038 min)   0.7 %
SCF iterations                  ...      123.387 sec (=   2.056 min)  36.3 %
MDCI module                     ...      214.270 sec (=   3.571 min)  63.0 %
                             ****ORCA TERMINATED NORMALLY****
TOTAL RUN TIME: 0 days 0 hours 5 minutes 40 seconds 567 msec
