
                                 *****************
                                 * O   R   C   A *
                                 *****************

           --- An Ab Initio, DFT and Semiempirical electronic structure package ---

                  #######################################################
                  #                        -***-                        #
                  #          Department of theory and spectroscopy      #
                  #               Directorship: Frank Neese             #
                  #        Max Planck Institute fuer Kohlenforschung    #
                  #                Kaiser Wilhelm Platz 1               #
                  #                 D-45470 Muelheim/Ruhr               #
                  #                      Germany                        #
                  #                                                     #
                  #                  All rights reserved                #
                  #                        -***-                        #
                  #######################################################


                         Program Version 4.2.0 -  RELEASE  -


 With contributions from (in alphabetic order):
   Daniel Aravena         : Magnetic Suceptibility
   Michael Atanasov       : Ab Initio Ligand Field Theory (pilot matlab implementation)
   Alexander A. Auer      : GIAO ZORA, VPT2
   Ute Becker             : Parallelization
   Giovanni Bistoni       : ED, misc. LED, open-shell LED, HFLED
   Martin Brehm           : Molecular dynamics
   Dmytro Bykov           : SCF Hessian
   Vijay G. Chilkuri      : MRCI spin determinant printing, contributions to CSF-ICE
   Dipayan Datta          : RHF DLPNO-CCSD density
   Achintya Kumar Dutta   : EOM-CC, STEOM-CC
   Dmitry Ganyushin       : Spin-Orbit,Spin-Spin,Magnetic field MRCI
   Miquel Garcia          : C-PCM Hessian, Gaussian charge scheme
   Yang Guo               : DLPNO-NEVPT2, CIM, IAO-localization
   Andreas Hansen         : Spin unrestricted coupled pair/coupled cluster methods
   Benjamin Helmich-Paris : CASSCF linear response (MC-RPA)
   Lee Huntington         : MR-EOM, pCC
   Robert Izsak           : Overlap fitted RIJCOSX, COSX-SCS-MP3, EOM
   Christian Kollmar      : KDIIS, OOCD, Brueckner-CCSD(T), CCSD density
   Simone Kossmann        : Meta GGA functionals, TD-DFT gradient, OOMP2, MP2 Hessian
   Martin Krupicka        : AUTO-CI
   Lucas Lang             : DCDCAS
   Dagmar Lenk            : GEPOL surface, SMD
   Dimitrios Liakos       : Extrapolation schemes; Compound Job, initial MDCI parallelization
   Dimitrios Manganas     : Further ROCIS development; embedding schemes
   Dimitrios Pantazis     : SARC Basis sets
   Taras Petrenko         : DFT Hessian,TD-DFT gradient, ASA, ECA, R-Raman, ABS, FL, XAS/XES, NRVS
   Peter Pinski           : DLPNO-MP2, DLPNO-MP2 Gradient
   Christoph Reimann      : Effective Core Potentials
   Marius Retegan         : Local ZFS, SOC
   Christoph Riplinger    : Optimizer, TS searches, QM/MM, DLPNO-CCSD(T), (RO)-DLPNO pert. Triples
   Tobias Risthaus        : Range-separated hybrids, TD-DFT gradient, RPA, STAB
   Michael Roemelt        : Original ROCIS implementation
   Masaaki Saitow         : Open-shell DLPNO-CCSD energy and density
   Barbara Sandhoefer     : DKH picture change effects
   Avijit Sen             : IP-ROCIS
   Kantharuban Sivalingam : CASSCF convergence, NEVPT2, FIC-MRCI
   Bernardo de Souza      : ESD, SOC TD-DFT
   Georgi Stoychev        : AutoAux, RI-MP2 NMR
   Willem Van den Heuvel  : Paramagnetic NMR
   Boris Wezisla          : Elementary symmetry handling
   Frank Wennmohs         : Technical directorship


 We gratefully acknowledge several colleagues who have allowed us to
 interface, adapt or use parts of their codes:
   Stefan Grimme, W. Hujo, H. Kruse,             : VdW corrections, initial TS optimization,
                  C. Bannwarth                     DFT functionals, gCP, sTDA/sTD-DF
   Ed Valeev, F. Pavosevic, A. Kumar             : LibInt (2-el integral package), F12 methods
   Garnet Chan, S. Sharma, J. Yang, R. Olivares  : DMRG
   Ulf Ekstrom                                   : XCFun DFT Library
   Mihaly Kallay                                 : mrcc  (arbitrary order and MRCC methods)
   Andreas Klamt, Michael Diedenhofen            : otool_cosmo (COSMO solvation model)
   Jiri Pittner, Ondrej Demel                    : Mk-CCSD
   Frank Weinhold                                : gennbo (NPA and NBO analysis)
   Christopher J. Cramer and Donald G. Truhlar   : smd solvation model
   Lars Goerigk                                  : TD-DFT with DH, B97 family of functionals
   V. Asgeirsson, H. Jonsson                     : NEB implementation
   FAccTs GmbH                                   : IRC, NEB, NEB-TS, Multilevel, MM, QM/MM, CI optimization
   S Lehtola, MJT Oliveira, MAL Marques          : LibXC Library


 Your calculation uses the libint2 library for the computation of 2-el integrals
 For citations please refer to: http://libint.valeyev.net

 Your ORCA version has been built with support for libXC version: 4.2.3
 For citations please refer to: https://tddft.org/programs/libxc/

 This ORCA versions uses:
   CBLAS   interface :  Fast vector & matrix operations
   LAPACKE interface :  Fast linear algebra routines
   SCALAPACK package :  Parallel linear algebra routines


Setting NCore(Au) from 46 to 60
----- Orbital basis set information -----
Your calculation utilizes the basis: aug-cc-pVQZ-PP 
       Ca, Sr, Ba, Ra : Obtained from the Peterson Research Group Website (tyr0.chem.wsu.edu/~kipeters) Feb. 2017
                        H. Li, H. Feng, W. Sun, Y. Zhang, Q. Fan, K. A. Peterson, Y. Xie, H. F. Schaefer III, Mol. Phys. 111, 2292 (2013)
  Cu-Zn, Ag-Cd, Au-Hg : Obtained from the ccRepo (grant-hill.group.shef.ac.uk/ccrepo) Feb. 2017
                        K. A. Peterson, C. Puzzarini, Theor. Chem. Acc. 114, 283 (2005)
  Ga-Kr, In-Xe, Tl-Rn : Obtained from the ccRepo (grant-hill.group.shef.ac.uk/ccrepo) Feb. 2017
                        K. A. Peterson, J. Chem. Phys. 119, 11099 (2003)
                        K. A. Peterson, D. Figgen, E. Goll, H. Stoll, M. Dolg, J. Chem. Phys. 119, 11113 (2003)
                 Y-Pd : Obtained from the ccRepo (grant-hill.group.shef.ac.uk/ccrepo) Feb. 2017
                        K. A. Peterson, D. Figgen, M. Dolg, H. Stoll, J. Chem. Phys. 126, 124101 (2007)
                Hf-Pt : Obtained from the ccRepo (grant-hill.group.shef.ac.uk/ccrepo) Feb. 2017
                        D. Figgen, K. A. Peterson, M. Dolg, H. Stoll, J. Chem. Phys. 130, 164108 (2009)

cite the ECPs for Au [SK MCDHF RSC] as follows:
O: B. Metz and H. Stoll, private communication (KAP)
Tl: B. Metz, M. Schweizer, H. Stoll, M. Dolg, W. Liu, Theor. Chem. Acc. 104, 22 (2000)
Ga-As, In-Sb, Pb-Bi: B. Metz, H. Stoll, M. Dolg, J. Chem. Phys. 113, 2563 (2000)
Se-Kr, Te-Xe, Po-Rn: K.A. Peterson, D. Figgen, E. Goll, H. Stoll, and M. Dolg, J. Chem. Phys., in press (2003)
Cu-Zn, Ag-Cd, Au-Hg: D. Figgen, G. Rauhut, M. Dolg, and H. Stoll, Chem. Phys. 311, 227 (2005)
Y-Pd: K.A. Peterson, D. Figgen, M. Dolg, H. Stoll, J. Chem. Phys. 126, 124101 (2007)
I: K. A. Peterson, B. C. Shepler, D. Figgen, H. Stoll, J. Phys. Chem. A 110, 13877 (2006)
Hf-Pt: D. Figgen, K.A. Peterson, M. Dolg, H. Stoll, J. Chem. Phys. 130, 164108 (2009)
Ca, Sr, Ba, Ra: I.S. Lim, H. Stoll, P. Schwerdtfeger, J. Chem. Phys. 124, 034107 (2006)

ECP parameters for Au [SK MCDHF RSC] have been obtained from:
cc-pVDZ-PP  EMSL  Basis Set Exchange Library   4/7/16 5:27 AM
Ca, Sr, Ba, Ra: http://www.tc.uni-koeln.de/PP/index.en.html 3/16/17 1:54 PM

================================================================================
                                        WARNINGS
                       Please study these warnings very carefully!
================================================================================


WARNING: your system is open-shell and RHF/RKS was chosen
  ===> : WILL SWITCH to UHF/UKS


WARNING: MDCI localization with Augmented Hessian Foster-Boys
  ===> : Switching off randomization!

WARNING: Post HF methods need fully converged wavefunctions
  ===> : Setting SCFConvForced true
         You can overwrite this default with %scf ConvForced false 


INFO   : the flag for use of LIBINT has been found!

================================================================================
                                       INPUT FILE
================================================================================
NAME = 79_Au.in
|  1> #
|  2> # 79_Au CCSD(T)/aug-cc-pVQZ-PP
|  3> #
|  4> ! CCSD(T) aug-cc-pVQZ-PP tightscf slowconv
|  5> 
|  6> *xyz 0 2
|  7>  Au 0.0 0.0 0.0
|  8> *
|  9> 
| 10> %maxcore 5000 
| 11> 
| 12> %pal
| 13> nprocs 24
| 14> end
| 15> 
| 16> %method
| 17> NewNCore Au 60 end
| 18> end
| 19> 
| 20> 
| 21>                          ****END OF INPUT****
================================================================================

                       ****************************
                       * Single Point Calculation *
                       ****************************

---------------------------------
CARTESIAN COORDINATES (ANGSTROEM)
---------------------------------
  Au     0.000000    0.000000    0.000000

----------------------------
CARTESIAN COORDINATES (A.U.)
----------------------------
  NO LB      ZA    FRAG     MASS         X           Y           Z
   0 Au   19.0000*   0   196.966    0.000000    0.000000    0.000000
* core charge reduced due to ECP

--------------------------------
INTERNAL COORDINATES (ANGSTROEM)
--------------------------------
 Au     0   0   0     0.000000000000     0.00000000     0.00000000

---------------------------
INTERNAL COORDINATES (A.U.)
---------------------------
 Au     0   0   0     0.000000000000     0.00000000     0.00000000

---------------------
BASIS SET INFORMATION
---------------------
There are 1 groups of distinct atoms

 Group   1 Type Au  : 67s52p38d4f3g2h contracted to 7s7p6d4f3g2h pattern {131313131311/101010101011/999911/1111/111/11}

Atom   0Au   basis set group =>   1
-------------------------
ECP PARAMETER INFORMATION
-------------------------

 Group 1, Type Au ECP SK MCDHF RSC (replacing 60 core electrons, lmax=5)

Atom   0Au   ECP group =>   1



           ************************************************************
           *        Program running with 24 parallel MPI-processes    *
           *              working on a common directory               *
           ************************************************************
------------------------------------------------------------------------------
                           ORCA GTO INTEGRAL CALCULATION
------------------------------------------------------------------------------

                         BASIS SET STATISTICS AND STARTUP INFO

 # of primitive gaussian shells          ...  166
 # of primitive gaussian functions       ...  490
 # of contracted shells                  ...   29
 # of contracted basis functions         ...  135
 Highest angular momentum                ...    5
 Maximum contraction depth               ...   13
 Integral package used                   ... LIBINT
 Integral threshhold            Thresh   ...  2.500e-11
 Primitive cut-off              TCut     ...  2.500e-12


------------------------------ INTEGRAL EVALUATION ----------------------------


 * One electron integrals 

   ECP integrals                         ... done
 Pre-screening matrix                    ... done
 Shell pair data                         ... done (   0.000 sec)



           ************************************************************
           *        Program running with 24 parallel MPI-processes    *
           *              working on a common directory               *
           ************************************************************
-------------------------------------------------------------------------------
                                 ORCA SCF
-------------------------------------------------------------------------------

------------
SCF SETTINGS
------------
Hamiltonian:
 Ab initio Hamiltonian  Method          .... Hartree-Fock(GTOs)


General Settings:
 Integral files         IntName         .... 79_Au
 Hartree-Fock type      HFTyp           .... UHF
 Total Charge           Charge          ....    0
 Multiplicity           Mult            ....    2
 Number of Electrons    NEL             ....   19
 Basis Dimension        Dim             ....  135
 Nuclear Repulsion      ENuc            ....      0.0000000000 Eh

Convergence Acceleration:
 DIIS                   CNVDIIS         .... on
   Start iteration      DIISMaxIt       ....     0
   Startup error        DIISStart       ....  0.200000
   # of expansion vecs  DIISMaxEq       ....     5
   Bias factor          DIISBfac        ....   1.050
   Max. coefficient     DIISMaxC        ....  10.000
 Newton-Raphson         CNVNR           .... off
 SOSCF                  CNVSOSCF        .... off
 Level Shifting         CNVShift        .... on
   Level shift para.    LevelShift      ....    0.2500
   Turn off err/grad.   ShiftErr        ....    0.0000
 Zerner damping         CNVZerner       .... off
 Static damping         CNVDamp         .... on
   Fraction old density DampFac         ....    0.8500
   Max. Damping (<1)    DampMax         ....    0.9800
   Min. Damping (>=0)   DampMin         ....    0.0000
   Turn off err/grad.   DampErr         ....    0.0300
 Fernandez-Rico         CNVRico         .... off

SCF Procedure:
 Maximum # iterations   MaxIter         ....   125
 SCF integral mode      SCFMode         .... Direct
   Integral package                     .... LIBINT
 Reset frequency        DirectResetFreq ....    20
 Integral Threshold     Thresh          ....  2.500e-11 Eh
 Primitive CutOff       TCut            ....  2.500e-12 Eh

Convergence Tolerance:
 Convergence Check Mode ConvCheckMode   .... Total+1el-Energy
 Convergence forced     ConvForced      .... 1
 Energy Change          TolE            ....  1.000e-08 Eh
 1-El. energy change                    ....  1.000e-05 Eh
 DIIS Error             TolErr          ....  5.000e-07


Diagonalization of the overlap matrix:
Smallest eigenvalue                        ... 2.760e-03
Time for diagonalization                   ...    0.005 sec
Threshold for overlap eigenvalues          ... 1.000e-08
Number of eigenvalues below threshold      ... 0
Time for construction of square roots      ...    0.002 sec
Total time needed                          ...    0.007 sec

-------------------
DFT GRID GENERATION
-------------------

General Integration Accuracy     IntAcc      ...  4.340
Radial Grid Type                 RadialGrid  ... Gauss-Chebyshev
Angular Grid (max. acc.)         AngularGrid ... Lebedev-110
Angular grid pruning method      GridPruning ... 3 (G Style)
Weight generation scheme         WeightScheme... Becke
Basis function cutoff            BFCut       ...    1.0000e-11
Integration weight cutoff        WCut        ...    1.0000e-14
Grids for H and He will be reduced by one unit

# of grid points (after initial pruning)     ...   3530 (   0.0 sec)
# of grid points (after weights+screening)   ...   3530 (   0.0 sec)
Grid point division into batches done        ...    0.0 sec
Reduced shell lists constructed in    0.0 sec

Total number of grid points                  ...     3530
Total number of batches                      ...       56
Average number of points per batch           ...       63
Average number of grid points per atom       ...     3530
Average number of shells per batch           ...    16.50 (56.90%)
Average number of basis functions per batch  ...    55.50 (41.11%)
Average number of large shells per batch     ...    13.50 (81.82%)
Average number of large basis fcns per batch ...    42.00 (75.68%)
Maximum spatial batch extension              ...  25.56, 38.92, 38.92 au
Average spatial batch extension              ...   1.31,  1.85,  2.08 au

Time for grid setup =    0.026 sec

------------------------------
INITIAL GUESS: MODEL POTENTIAL
------------------------------
Loading Hartree-Fock densities                     ... done
  calling /sw/apps/orca/orca_4_2_0_linux_x86-64_openmpi314/orca 79_Au_atom79.inp > 79_Au_atom79.out in order to generate an atomic fitting density for atom 0 (Au with ECP) on-the-fly... 
    atom 0 (Au), assumed electronic state with S=2: 1s2 2s2 2p6 3s2 3p6 4s2 3d10 4p6 5s2 4d10 5p6 6s1 4f14 5d10           ... done
Calculating cut-offs                               ... done
Setting up the integral package                    ... done
Initializing the effective Hamiltonian             ... done
Starting the Coulomb interaction                   ... done (   0.0 sec)
Reading the grid                                   ... done
Mapping shells                                     ... done
Starting the XC term evaluation                    ... done (   0.0 sec)
Transforming the Hamiltonian                       ... done (   0.0 sec)
Diagonalizing the Hamiltonian                      ... done (   0.0 sec)
Back transforming the eigenvectors                 ... done (   0.0 sec)
Now organizing SCF variables                       ... done
                      ------------------
                      INITIAL GUESS DONE (  30.7 sec)
                      ------------------
--------------
SCF ITERATIONS
--------------
ITER       Energy         Delta-E        Max-DP      RMS-DP      [F,P]     Damp
               ***  Starting incremental Fock matrix formation  ***
  0   -134.5656741311   0.000000000000 0.02101855  0.00042504  0.5048049 0.8500
  1   -134.6049125182  -0.039238387099 0.01853975  0.00038078  0.4236368 0.8500
                               ***Turning on DIIS***
  2   -134.6350701021  -0.030157583903 0.01635615  0.00031872  0.3525799 0.8500
  3   -135.0864165432  -0.451346441030 0.01432612  0.00025822  0.2943519 0.8500
  4   -135.2301313873  -0.143714844106 0.01285794  0.00021783  0.2502004 0.8500
  5   -135.1902515242   0.039879863060 0.01179442  0.00018834  0.2147329 0.8500
  6   -135.1225015616   0.067749962603 0.01082669  0.00016375  0.1844797 0.8500
  7   -135.0205537581   0.101947803503 0.00997517  0.00014324  0.1582153 0.8500
  8   -134.9685478442   0.052005913918 0.00900098  0.00012439  0.1349694 0.8500
  9   -134.9435674904   0.024980353809 0.00794950  0.00010722  0.1148511 0.8500
 10   -134.9247223493   0.018845141096 0.00693710  0.00009211  0.0977235 0.8500
 11   -134.9062390962   0.018483253119 0.00602403  0.00007907  0.0831981 0.8500
 12   -134.8878627020   0.018376394138 0.00522260  0.00006790  0.0708582 0.8500
 13   -134.8715288112   0.016333890872 0.00452012  0.00005830  0.0603449 0.8500
 14   -134.8578645083   0.013664302865 0.00390392  0.00005002  0.0513809 0.8500
 15   -134.8465041445   0.011360363827 0.00336556  0.00004290  0.0437427 0.8500
 16   -134.8369129066   0.009591237834 0.00289794  0.00003677  0.0372389 0.8500
 17   -134.8287120841   0.008200822553 0.00249365  0.00003152  0.0317028 0.8500
 18   -134.8216899508   0.007022133297 0.01429991  0.00018012  0.0269902 0.0000
 19   -134.7817450175   0.039944933260 0.00053482  0.00000632  0.0006036 0.0000
               *** Restarting incremental Fock matrix formation ***
                                   *** Resetting DIIS ***
 20   -134.7818001861  -0.000055168525 0.00036991  0.00000398  0.0004236 0.0000
 21   -134.7818886377  -0.000088451690 0.00026482  0.00000252  0.0002489 0.0000
 22   -134.7823932877  -0.000504649993 0.00026625  0.00000254  0.0001573 0.0000
 23   -134.7819486280   0.000444659711 0.00016878  0.00000115  0.0000704 0.0000
 24   -134.7818893172   0.000059310875 0.00011343  0.00000073  0.0000348 0.0000
 25   -134.7818608454   0.000028471717 0.00007131  0.00000048  0.0000171 0.0000
 26   -134.7818276398   0.000033205653 0.00003996  0.00000028  0.0000082 0.0000
 27   -134.7818157932   0.000011846626 0.00002162  0.00000016  0.0000038 0.0000
 28   -134.7818082567   0.000007536502 0.00001067  0.00000008  0.0000017 0.0000
                            ***DIIS convergence achieved***

               *****************************************************
               *                     SUCCESS                       *
               *           SCF CONVERGED AFTER  29 CYCLES          *
               *****************************************************


----------------
TOTAL SCF ENERGY
----------------

Total Energy       :         -134.78180439 Eh           -3667.59935 eV

Components:
Nuclear Repulsion  :            0.00000000 Eh               0.00000 eV
Electronic Energy  :         -134.78180439 Eh           -3667.59935 eV
One Electron Energy:         -239.06016832 Eh           -6505.15790 eV
Two Electron Energy:          104.27836393 Eh            2837.55854 eV

Virial components:
Potential Energy   :         -180.80367992 Eh           -4919.91825 eV
Kinetic Energy     :           46.02187553 Eh            1252.31890 eV
Virial Ratio       :            3.92864649


---------------
SCF CONVERGENCE
---------------

  Last Energy change         ...    3.8698e-06  Tolerance :   1.0000e-08
  Last MAX-Density change    ...    5.0229e-06  Tolerance :   1.0000e-07
  Last RMS-Density change    ...    3.9218e-08  Tolerance :   5.0000e-09
  Last DIIS Error            ...    7.6425e-07  Tolerance :   5.0000e-07

             **** THE GBW FILE WAS UPDATED (79_Au.gbw) ****
             **** DENSITY FILE WAS UPDATED (79_Au.scfp) ****
             **** ENERGY FILE WAS UPDATED (79_Au.en.tmp) ****
----------------------
UHF SPIN CONTAMINATION
----------------------

Expectation value of <S**2>     :     0.752833
Ideal value S*(S+1) for S=0.5   :     0.750000
Deviation                       :     0.002833

             **** THE GBW FILE WAS UPDATED (79_Au.gbw) ****
             **** DENSITY FILE WAS UPDATED (79_Au.scfp) ****
----------------
ORBITAL ENERGIES
----------------
                 SPIN UP ORBITALS
  NO   OCC          E(Eh)            E(eV) 
   0   1.0000      -4.662211      -126.8652 
   1   1.0000      -2.725656       -74.1689 
   2   1.0000      -2.725656       -74.1689 
   3   1.0000      -2.725656       -74.1689 
   4   1.0000      -0.456457       -12.4208 
   5   1.0000      -0.456457       -12.4208 
   6   1.0000      -0.456457       -12.4208 
   7   1.0000      -0.456457       -12.4208 
   8   1.0000      -0.456457       -12.4208 
   9   1.0000      -0.292239        -7.9522 
  10   0.0000       0.019762         0.5377 
  11   0.0000       0.019762         0.5377 
  12   0.0000       0.019762         0.5377 
  13   0.0000       0.040597         1.1047 
  14   0.0000       0.059979         1.6321 
  15   0.0000       0.059979         1.6321 
  16   0.0000       0.059979         1.6321 
  17   0.0000       0.098431         2.6784 
  18   0.0000       0.098431         2.6784 
  19   0.0000       0.098431         2.6784 
  20   0.0000       0.098431         2.6784 
  21   0.0000       0.098431         2.6784 
  22   0.0000       0.184108         5.0098 
  23   0.0000       0.184108         5.0098 
  24   0.0000       0.184108         5.0098 
  25   0.0000       0.312195         8.4953 
  26   0.0000       0.312195         8.4953 
  27   0.0000       0.312195         8.4953 
  28   0.0000       0.312195         8.4953 
  29   0.0000       0.312195         8.4953 
  30   0.0000       0.324506         8.8303 
  31   0.0000       0.505068        13.7436 
  32   0.0000       0.505068        13.7436 
  33   0.0000       0.505068        13.7436 
  34   0.0000       0.505068        13.7436 
  35   0.0000       0.505068        13.7436 
  36   0.0000       0.505068        13.7436 
  37   0.0000       0.505068        13.7436 
  38   0.0000       0.606051        16.4915 
  39   0.0000       0.606051        16.4915 
  40   0.0000       0.606051        16.4915 
  41   0.0000       0.933438        25.4001 
  42   0.0000       0.933438        25.4001 
  43   0.0000       0.933438        25.4001 
  44   0.0000       0.933438        25.4001 
  45   0.0000       0.933438        25.4001 
  46   0.0000       1.300015        35.3752 
  47   0.0000       1.300015        35.3752 
  48   0.0000       1.300015        35.3752 
  49   0.0000       1.300015        35.3752 
  50   0.0000       1.300015        35.3752 
  51   0.0000       1.300015        35.3752 
  52   0.0000       1.300015        35.3752 
  53   0.0000       1.470556        40.0159 
  54   0.0000       1.470556        40.0159 
  55   0.0000       1.470556        40.0159 
  56   0.0000       1.470556        40.0159 
  57   0.0000       1.470556        40.0159 
  58   0.0000       1.470556        40.0159 
  59   0.0000       1.470556        40.0159 
  60   0.0000       1.470556        40.0159 
  61   0.0000       1.470556        40.0159 
  62   0.0000       1.520162        41.3657 
  63   0.0000       1.960223        53.3404 
  64   0.0000       1.960223        53.3404 
  65   0.0000       1.960223        53.3404 
  66   0.0000       2.755843        74.9903 
  67   0.0000       2.755843        74.9903 
  68   0.0000       2.755843        74.9903 
  69   0.0000       2.755843        74.9903 
  70   0.0000       2.755843        74.9903 
  71   0.0000       2.891586        78.6841 
  72   0.0000       2.891586        78.6841 
  73   0.0000       2.891586        78.6841 
  74   0.0000       2.891586        78.6841 
  75   0.0000       2.891586        78.6841 
  76   0.0000       2.891586        78.6841 
  77   0.0000       2.891586        78.6841 
  78   0.0000       3.305359        89.9434 
  79   0.0000       3.305359        89.9434 
  80   0.0000       3.305359        89.9434 
  81   0.0000       3.305359        89.9434 
  82   0.0000       3.305359        89.9434 
  83   0.0000       3.305359        89.9434 
  84   0.0000       3.305359        89.9434 
  85   0.0000       3.305359        89.9434 
  86   0.0000       3.305359        89.9434 
  87   0.0000       3.305359        89.9434 
  88   0.0000       3.305359        89.9434 
  89   0.0000       3.587489        97.6205 
  90   0.0000       3.587489        97.6205 
  91   0.0000       3.587489        97.6205 
  92   0.0000       3.587489        97.6205 
  93   0.0000       3.587489        97.6205 
  94   0.0000       3.587489        97.6205 
  95   0.0000       3.587489        97.6205 
  96   0.0000       3.587489        97.6205 
  97   0.0000       3.587489        97.6205 
  98   0.0000       5.566870       151.4822 
  99   0.0000       5.962030       162.2351 
 100   0.0000       5.962030       162.2351 
 101   0.0000       5.962030       162.2351 
 102   0.0000       6.963912       189.4977 
 103   0.0000       6.963912       189.4977 
 104   0.0000       6.963912       189.4977 
 105   0.0000       6.963912       189.4977 
 106   0.0000       6.963912       189.4977 
 107   0.0000       6.963912       189.4977 
 108   0.0000       6.963912       189.4977 
 109   0.0000       7.468717       203.2341 
 110   0.0000       7.468717       203.2341 
 111   0.0000       7.468717       203.2341 
 112   0.0000       7.468717       203.2341 
 113   0.0000       7.468717       203.2341 
 114   0.0000       7.723183       210.1585 
 115   0.0000       7.723183       210.1585 
 116   0.0000       7.723183       210.1585 
 117   0.0000       7.723183       210.1585 
 118   0.0000       7.723183       210.1585 
 119   0.0000       7.723183       210.1585 
 120   0.0000       7.723183       210.1585 
 121   0.0000       7.723183       210.1585 
 122   0.0000       7.723183       210.1585 
 123   0.0000       7.796558       212.1551 
 124   0.0000       7.796558       212.1551 
 125   0.0000       7.796558       212.1551 
 126   0.0000       7.796558       212.1551 
 127   0.0000       7.796558       212.1551 
 128   0.0000       7.796558       212.1551 
 129   0.0000       7.796558       212.1551 
 130   0.0000       7.796558       212.1551 
 131   0.0000       7.796558       212.1551 
 132   0.0000       7.796558       212.1551 
 133   0.0000       7.796558       212.1551 
 134   0.0000      49.176070      1338.1489 

                 SPIN DOWN ORBITALS
  NO   OCC          E(Eh)            E(eV) 
   0   1.0000      -4.660422      -126.8165 
   1   1.0000      -2.729619       -74.2767 
   2   1.0000      -2.729619       -74.2767 
   3   1.0000      -2.729619       -74.2767 
   4   1.0000      -0.448091       -12.1932 
   5   1.0000      -0.448091       -12.1932 
   6   1.0000      -0.448091       -12.1932 
   7   1.0000      -0.448091       -12.1932 
   8   1.0000      -0.448091       -12.1932 
   9   0.0000      -0.012732        -0.3464 
  10   0.0000       0.023347         0.6353 
  11   0.0000       0.023347         0.6353 
  12   0.0000       0.023347         0.6353 
  13   0.0000       0.058223         1.5843 
  14   0.0000       0.079690         2.1685 
  15   0.0000       0.079690         2.1685 
  16   0.0000       0.079690         2.1685 
  17   0.0000       0.099767         2.7148 
  18   0.0000       0.099767         2.7148 
  19   0.0000       0.099767         2.7148 
  20   0.0000       0.099767         2.7148 
  21   0.0000       0.099767         2.7148 
  22   0.0000       0.216009         5.8779 
  23   0.0000       0.216009         5.8779 
  24   0.0000       0.216009         5.8779 
  25   0.0000       0.320562         8.7229 
  26   0.0000       0.320562         8.7229 
  27   0.0000       0.320562         8.7229 
  28   0.0000       0.320562         8.7229 
  29   0.0000       0.320562         8.7229 
  30   0.0000       0.358908         9.7664 
  31   0.0000       0.517279        14.0759 
  32   0.0000       0.517279        14.0759 
  33   0.0000       0.517279        14.0759 
  34   0.0000       0.517279        14.0759 
  35   0.0000       0.517279        14.0759 
  36   0.0000       0.517279        14.0759 
  37   0.0000       0.517279        14.0759 
  38   0.0000       0.634253        17.2589 
  39   0.0000       0.634253        17.2589 
  40   0.0000       0.634253        17.2589 
  41   0.0000       0.948016        25.7968 
  42   0.0000       0.948016        25.7968 
  43   0.0000       0.948016        25.7968 
  44   0.0000       0.948016        25.7968 
  45   0.0000       0.948016        25.7968 
  46   0.0000       1.316317        35.8188 
  47   0.0000       1.316317        35.8188 
  48   0.0000       1.316317        35.8188 
  49   0.0000       1.316317        35.8188 
  50   0.0000       1.316317        35.8188 
  51   0.0000       1.316317        35.8188 
  52   0.0000       1.316317        35.8188 
  53   0.0000       1.484540        40.3964 
  54   0.0000       1.484540        40.3964 
  55   0.0000       1.484540        40.3964 
  56   0.0000       1.484540        40.3964 
  57   0.0000       1.484540        40.3964 
  58   0.0000       1.484540        40.3964 
  59   0.0000       1.484540        40.3964 
  60   0.0000       1.484540        40.3964 
  61   0.0000       1.484540        40.3964 
  62   0.0000       1.541783        41.9540 
  63   0.0000       1.975503        53.7562 
  64   0.0000       1.975503        53.7562 
  65   0.0000       1.975503        53.7562 
  66   0.0000       2.764800        75.2340 
  67   0.0000       2.764800        75.2340 
  68   0.0000       2.764800        75.2340 
  69   0.0000       2.764800        75.2340 
  70   0.0000       2.764800        75.2340 
  71   0.0000       2.892165        78.6998 
  72   0.0000       2.892165        78.6998 
  73   0.0000       2.892165        78.6998 
  74   0.0000       2.892165        78.6998 
  75   0.0000       2.892165        78.6998 
  76   0.0000       2.892165        78.6998 
  77   0.0000       2.892165        78.6998 
  78   0.0000       3.316234        90.2393 
  79   0.0000       3.316234        90.2393 
  80   0.0000       3.316234        90.2393 
  81   0.0000       3.316234        90.2393 
  82   0.0000       3.316234        90.2393 
  83   0.0000       3.316234        90.2393 
  84   0.0000       3.316234        90.2393 
  85   0.0000       3.316234        90.2393 
  86   0.0000       3.316234        90.2393 
  87   0.0000       3.316234        90.2393 
  88   0.0000       3.316234        90.2393 
  89   0.0000       3.593908        97.7952 
  90   0.0000       3.593908        97.7952 
  91   0.0000       3.593908        97.7952 
  92   0.0000       3.593908        97.7952 
  93   0.0000       3.593908        97.7952 
  94   0.0000       3.593908        97.7952 
  95   0.0000       3.593908        97.7952 
  96   0.0000       3.593908        97.7952 
  97   0.0000       3.593908        97.7952 
  98   0.0000       5.575109       151.7064 
  99   0.0000       5.967618       162.3871 
 100   0.0000       5.967618       162.3871 
 101   0.0000       5.967618       162.3871 
 102   0.0000       6.964522       189.5143 
 103   0.0000       6.964522       189.5143 
 104   0.0000       6.964522       189.5143 
 105   0.0000       6.964522       189.5143 
 106   0.0000       6.964522       189.5143 
 107   0.0000       6.964522       189.5143 
 108   0.0000       6.964522       189.5143 
 109   0.0000       7.472104       203.3263 
 110   0.0000       7.472104       203.3263 
 111   0.0000       7.472104       203.3263 
 112   0.0000       7.472104       203.3263 
 113   0.0000       7.472104       203.3263 
 114   0.0000       7.721515       210.1131 
 115   0.0000       7.721515       210.1131 
 116   0.0000       7.721515       210.1131 
 117   0.0000       7.721515       210.1131 
 118   0.0000       7.721515       210.1131 
 119   0.0000       7.721515       210.1131 
 120   0.0000       7.721515       210.1131 
 121   0.0000       7.721515       210.1131 
 122   0.0000       7.721515       210.1131 
 123   0.0000       7.797598       212.1834 
 124   0.0000       7.797598       212.1834 
 125   0.0000       7.797598       212.1834 
 126   0.0000       7.797598       212.1834 
 127   0.0000       7.797598       212.1834 
 128   0.0000       7.797598       212.1834 
 129   0.0000       7.797598       212.1834 
 130   0.0000       7.797598       212.1834 
 131   0.0000       7.797598       212.1834 
 132   0.0000       7.797598       212.1834 
 133   0.0000       7.797598       212.1834 
 134   0.0000      49.177774      1338.1953 

                    ********************************
                    * MULLIKEN POPULATION ANALYSIS *
                    ********************************

--------------------------------------------
MULLIKEN ATOMIC CHARGES AND SPIN POPULATIONS
--------------------------------------------
   0 Au:   -0.000000    1.000000
Sum of atomic charges         :   -0.0000000
Sum of atomic spin populations:    1.0000000

-----------------------------------------------------
MULLIKEN REDUCED ORBITAL CHARGES AND SPIN POPULATIONS
-----------------------------------------------------
CHARGE
  0 Aus       :     3.000000  s :     3.000000
      pz      :     2.000000  p :     6.000000
      px      :     2.000000
      py      :     2.000000
      dz2     :     2.000000  d :    10.000000
      dxz     :     2.000000
      dyz     :     2.000000
      dx2y2   :     2.000000
      dxy     :     2.000000
      f0      :     0.000000  f :     0.000000
      f+1     :     0.000000
      f-1     :     0.000000
      f+2     :     0.000000
      f-2     :     0.000000
      f+3     :     0.000000
      f-3     :     0.000000
      g0      :     0.000000  g :     0.000000
      g+1     :     0.000000
      g-1     :     0.000000
      g+2     :     0.000000
      g-2     :     0.000000
      g+3     :     0.000000
      g-3     :     0.000000
      g+4     :     0.000000
      g-4     :     0.000000
      h0      :     0.000000  h :     0.000000
      h+1     :     0.000000
      h-1     :     0.000000
      h+2     :     0.000000
      h-2     :     0.000000
      h+3     :     0.000000
      h-3     :     0.000000
      h+4     :     0.000000
      h-4     :     0.000000
      h+5     :     0.000000
      h-5     :     0.000000

SPIN
  0 Aus       :     1.000000  s :     1.000000
      pz      :     0.000000  p :     0.000000
      px      :    -0.000000
      py      :     0.000000
      dz2     :     0.000000  d :     0.000000
      dxz     :     0.000000
      dyz     :     0.000000
      dx2y2   :    -0.000000
      dxy     :    -0.000000
      f0      :    -0.000000  f :    -0.000000
      f+1     :    -0.000000
      f-1     :     0.000000
      f+2     :    -0.000000
      f-2     :    -0.000000
      f+3     :    -0.000000
      f-3     :    -0.000000
      g0      :     0.000000  g :     0.000000
      g+1     :     0.000000
      g-1     :    -0.000000
      g+2     :     0.000000
      g-2     :     0.000000
      g+3     :    -0.000000
      g-3     :    -0.000000
      g+4     :     0.000000
      g-4     :    -0.000000
      h0      :     0.000000  h :    -0.000000
      h+1     :     0.000000
      h-1     :     0.000000
      h+2     :     0.000000
      h-2     :    -0.000000
      h+3     :    -0.000000
      h-3     :     0.000000
      h+4     :    -0.000000
      h-4     :     0.000000
      h+5     :     0.000000
      h-5     :    -0.000000


                     *******************************
                     * LOEWDIN POPULATION ANALYSIS *
                     *******************************

-------------------------------------------
LOEWDIN ATOMIC CHARGES AND SPIN POPULATIONS
-------------------------------------------
   0 Au:   -0.000000    1.000000

----------------------------------------------------
LOEWDIN REDUCED ORBITAL CHARGES AND SPIN POPULATIONS
----------------------------------------------------
CHARGE
  0 Aus       :     3.000000  s :     3.000000
      pz      :     2.000000  p :     6.000000
      px      :     2.000000
      py      :     2.000000
      dz2     :     2.000000  d :    10.000000
      dxz     :     2.000000
      dyz     :     2.000000
      dx2y2   :     2.000000
      dxy     :     2.000000
      f0      :     0.000000  f :     0.000000
      f+1     :     0.000000
      f-1     :     0.000000
      f+2     :     0.000000
      f-2     :     0.000000
      f+3     :     0.000000
      f-3     :     0.000000
      g0      :     0.000000  g :     0.000000
      g+1     :     0.000000
      g-1     :     0.000000
      g+2     :     0.000000
      g-2     :     0.000000
      g+3     :     0.000000
      g-3     :     0.000000
      g+4     :     0.000000
      g-4     :     0.000000
      h0      :     0.000000  h :     0.000000
      h+1     :     0.000000
      h-1     :     0.000000
      h+2     :     0.000000
      h-2     :     0.000000
      h+3     :     0.000000
      h-3     :     0.000000
      h+4     :     0.000000
      h-4     :     0.000000
      h+5     :     0.000000
      h-5     :     0.000000

SPIN
  0 Aus       :     1.000000  s :     1.000000
      pz      :     0.000000  p :     0.000000
      px      :    -0.000000
      py      :     0.000000
      dz2     :     0.000000  d :     0.000000
      dxz     :     0.000000
      dyz     :     0.000000
      dx2y2   :    -0.000000
      dxy     :    -0.000000
      f0      :    -0.000000  f :    -0.000000
      f+1     :    -0.000000
      f-1     :     0.000000
      f+2     :    -0.000000
      f-2     :    -0.000000
      f+3     :    -0.000000
      f-3     :    -0.000000
      g0      :     0.000000  g :     0.000000
      g+1     :     0.000000
      g-1     :    -0.000000
      g+2     :     0.000000
      g-2     :     0.000000
      g+3     :     0.000000
      g-3     :    -0.000000
      g+4     :     0.000000
      g-4     :    -0.000000
      h0      :     0.000000  h :    -0.000000
      h+1     :     0.000000
      h-1     :     0.000000
      h+2     :     0.000000
      h-2     :    -0.000000
      h+3     :    -0.000000
      h-3     :     0.000000
      h+4     :    -0.000000
      h-4     :     0.000000
      h+5     :     0.000000
      h-5     :    -0.000000


                      *****************************
                      * MAYER POPULATION ANALYSIS *
                      *****************************

  NA   - Mulliken gross atomic population
  ZA   - Total nuclear charge
  QA   - Mulliken gross atomic charge
  VA   - Mayer's total valence
  BVA  - Mayer's bonded valence
  FA   - Mayer's free valence

  ATOM       NA         ZA         QA         VA         BVA        FA
  0 Au    19.0000    19.0000    -0.0000     1.0057     0.0000     1.0057

  Mayer bond orders larger than 0.100000


-------
TIMINGS
-------

Total SCF time: 0 days 0 hours 2 min 11 sec 

Total time                  ....     131.251 sec
Sum of individual times     ....     130.947 sec  ( 99.8%)

Fock matrix formation       ....     100.057 sec  ( 76.2%)
Diagonalization             ....       0.124 sec  (  0.1%)
Density matrix formation    ....       0.017 sec  (  0.0%)
Population analysis         ....       0.006 sec  (  0.0%)
Initial guess               ....      30.642 sec  ( 23.3%)
Orbital Transformation      ....       0.000 sec  (  0.0%)
Orbital Orthonormalization  ....       0.000 sec  (  0.0%)
DIIS solution               ....       0.075 sec  (  0.1%)


           ************************************************************
           *        Program running with 24 parallel MPI-processes    *
           *              working on a common directory               *
           ************************************************************


------------------------------------------------------------------------------- 
                              ORCA-MATRIX DRIVEN CI                            
------------------------------------------------------------------------------- 

--------------------------------
AUTOMATIC CHOICE OF INCORE LEVEL
--------------------------------

Memory available                           ...   2500.00 MB
Memory needed for S+T                      ...     19.67 MB
Memory needed for J+K                      ...     39.44 MB
Memory needed for DIIS                     ...    275.37 MB
Memory needed for 3-ext                    ...    149.01 MB
Memory needed for 4-ext                    ...    938.77 MB
Memory needed for triples                  ...     74.51 MB
 -> Final InCoreLevel    ... 5
 -> check shows that triples correction can be computed


Wavefunction type
-----------------
Correlation treatment                      ...      CCSD     
Single excitations                         ... ON
Orbital optimization                       ... OFF
Calculation of Z vector                    ... OFF
Calculation of Brueckner orbitals          ... OFF
Perturbative triple excitations            ... ON
Calculation of F12 correction              ... OFF
Frozen core treatment                      ... chemical core (0 el)
Reference Wavefunction                     ... UHF
  Alpha-MOs occ    :     0 ...    9 ( 10 MO's/ 10 electrons)
  Beta-MOs occ     :     0 ...    8 (  9 MO's/  9 electrons)
  Alpha-MOs virt   :    10 ...  134 (125 MO's              )
  Beta-MOs virt    :     9 ...  134 (126 MO's              )
Number of AO's                             ...    135
Number of electrons                        ...     19
Number of correlated electrons             ...     19

Algorithmic settings
--------------------
Integral transformation                    ... AO direct full transformation
K(C) Formation                             ... FULL-MO TRAFO
Maximum number of iterations               ...        50
Convergence tolerance (max. residuum)      ... 1.000e-05
Level shift for amplitude update           ... 2.000e-01
Maximum number of DIIS vectors             ...         7
DIIS turned on at iteration                ...         0
Damping before turning on DIIS             ...     0.500
Damping after turning on DIIS              ...     0.000
Pair specific amplitude update             ... OFF
Natural orbital iterations                 ... OFF
Perturbative natural orbital generation    ... OFF
Printlevel                                 ... 2

Memory handling:
----------------
Maximum memory for working arrays          ...   2500 MB
Data storage in matrix containers          ... UNCOMPRESSED
Data type for integral storage             ... DOUBLE
In-Core Storage of quantities:
   Amplitudes+Sigma Vector      ... YES
   J+K operators                ... YES
   DIIS vectors                 ... YES
   3-external integrals         ... YES
   4-external integrals         ... YES


Initializing the integral package          ... done
Warning: reference  - re-canonicalizations have been set to INT 1 VIRT 1

--------------------------
UNRESTRICTED FOCK OPERATOR
--------------------------

<ss|ss>:          406 b            0 skpd (  0.0%)    0.013 s ( 0.031 ms/b)
<ss|sp>:         1372 b            0 skpd (  0.0%)    0.138 s ( 0.100 ms/b)
<ss|sd>:         1176 b            0 skpd (  0.0%)    0.133 s ( 0.113 ms/b)
<ss|sf>:          784 b            0 skpd (  0.0%)    0.009 s ( 0.011 ms/b)
<ss|sg>:          588 b            0 skpd (  0.0%)    0.008 s ( 0.013 ms/b)
<ss|sh>:          392 b            0 skpd (  0.0%)    0.010 s ( 0.026 ms/b)
<ss|pp>:          784 b            0 skpd (  0.0%)    0.064 s ( 0.082 ms/b)
<ss|pd>:         1176 b            0 skpd (  0.0%)    0.105 s ( 0.089 ms/b)
<ss|pf>:          784 b            0 skpd (  0.0%)    0.010 s ( 0.013 ms/b)
<ss|pg>:          588 b            0 skpd (  0.0%)    0.008 s ( 0.013 ms/b)
<ss|ph>:          392 b            0 skpd (  0.0%)    0.012 s ( 0.030 ms/b)
<ss|dd>:          588 b            0 skpd (  0.0%)    0.062 s ( 0.105 ms/b)
<ss|df>:          672 b            0 skpd (  0.0%)    0.007 s ( 0.011 ms/b)
<ss|dg>:          504 b            0 skpd (  0.0%)    0.011 s ( 0.021 ms/b)
<ss|dh>:          336 b            0 skpd (  0.0%)    0.016 s ( 0.046 ms/b)
<ss|ff>:          280 b            0 skpd (  0.0%)    0.001 s ( 0.004 ms/b)
<ss|fg>:          336 b            0 skpd (  0.0%)    0.002 s ( 0.005 ms/b)
<ss|fh>:          224 b            0 skpd (  0.0%)    0.002 s ( 0.011 ms/b)
<ss|gg>:          168 b            0 skpd (  0.0%)    0.003 s ( 0.015 ms/b)
<ss|gh>:          168 b            0 skpd (  0.0%)    0.004 s ( 0.022 ms/b)
<ss|hh>:           84 b            0 skpd (  0.0%)    0.005 s ( 0.060 ms/b)
<sp|sp>:         1225 b            0 skpd (  0.0%)    0.105 s ( 0.086 ms/b)
<sp|sd>:         2058 b            0 skpd (  0.0%)    0.205 s ( 0.100 ms/b)
<sp|sf>:         1372 b            0 skpd (  0.0%)    0.017 s ( 0.013 ms/b)
<sp|sg>:         1029 b            0 skpd (  0.0%)    0.015 s ( 0.014 ms/b)
<sp|sh>:          686 b            0 skpd (  0.0%)    0.021 s ( 0.031 ms/b)
<sp|pp>:         1372 b            2 skpd (  0.1%)    0.092 s ( 0.067 ms/b)
<sp|pd>:         2058 b           47 skpd (  2.3%)    0.179 s ( 0.089 ms/b)
<sp|pf>:         1372 b           63 skpd (  4.6%)    0.025 s ( 0.019 ms/b)
<sp|pg>:         1029 b           56 skpd (  5.4%)    0.019 s ( 0.020 ms/b)
<sp|ph>:          686 b           37 skpd (  5.4%)    0.028 s ( 0.043 ms/b)
<sp|dd>:         1029 b            0 skpd (  0.0%)    0.135 s ( 0.131 ms/b)
<sp|df>:         1176 b         1136 skpd ( 96.6%)    0.007 s ( 0.181 ms/b)
<sp|dg>:          882 b          852 skpd ( 96.6%)    0.009 s ( 0.317 ms/b)
<sp|dh>:          588 b          572 skpd ( 97.3%)    0.012 s ( 0.739 ms/b)
<sp|ff>:          490 b          486 skpd ( 99.2%)    0.000 s ( 0.033 ms/b)
<sp|fg>: done
<sp|fh>: done
<sp|gg>:          294 b          291 skpd ( 99.0%)    0.000 s ( 0.099 ms/b)
<sp|gh>: done
<sp|hh>:          147 b          145 skpd ( 98.6%)    0.001 s ( 0.263 ms/b)
<sd|sd>:          903 b            0 skpd (  0.0%)    0.105 s ( 0.117 ms/b)
<sd|sf>:         1176 b            0 skpd (  0.0%)    0.027 s ( 0.023 ms/b)
<sd|sg>:          882 b            0 skpd (  0.0%)    0.021 s ( 0.024 ms/b)
<sd|sh>:          588 b            0 skpd (  0.0%)    0.039 s ( 0.066 ms/b)
<sd|pp>:         1176 b            4 skpd (  0.3%)    0.101 s ( 0.086 ms/b)
<sd|pd>:         1764 b            4 skpd (  0.2%)    0.255 s ( 0.145 ms/b)
<sd|pf>:         1176 b         1168 skpd ( 99.3%)    0.002 s ( 0.239 ms/b)
<sd|pg>:          882 b          878 skpd ( 99.5%)    0.003 s ( 0.833 ms/b)
<sd|ph>:          588 b          586 skpd ( 99.7%)    0.003 s ( 1.312 ms/b)
<sd|dd>:          882 b            0 skpd (  0.0%)    0.201 s ( 0.228 ms/b)
<sd|df>:         1008 b            6 skpd (  0.6%)    0.037 s ( 0.037 ms/b)
<sd|dg>:          756 b            6 skpd (  0.8%)    0.058 s ( 0.077 ms/b)
<sd|dh>:          504 b            3 skpd (  0.6%)    0.087 s ( 0.173 ms/b)
<sd|ff>: done
<sd|fg>: done
<sd|fh>: done
<sd|gg>: done
<sd|gh>: done
<sd|hh>: done
<sf|sf>:          406 b            0 skpd (  0.0%)    0.003 s ( 0.008 ms/b)
<sf|sg>:          588 b            0 skpd (  0.0%)    0.005 s ( 0.008 ms/b)
<sf|sh>:          392 b            0 skpd (  0.0%)    0.010 s ( 0.025 ms/b)
<sf|pp>:          784 b            1 skpd (  0.1%)    0.018 s ( 0.023 ms/b)
<sf|pd>:         1176 b         1173 skpd ( 99.7%)    0.003 s ( 0.847 ms/b)
<sf|pf>: done
<sf|pg>: done
<sf|ph>: done
<sf|dd>:          588 b            0 skpd (  0.0%)    0.045 s ( 0.077 ms/b)
<sf|df>: done
<sf|dg>: done
<sf|dh>: done
<sf|ff>: done
<sf|fg>: done
<sf|fh>: done
<sf|gg>: done
<sf|gh>: done
<sf|hh>: done
<sg|sg>:          231 b            0 skpd (  0.0%)    0.007 s ( 0.031 ms/b)
<sg|sh>:          294 b            0 skpd (  0.0%)    0.015 s ( 0.051 ms/b)
<sg|pp>:          588 b            0 skpd (  0.0%)    0.026 s ( 0.045 ms/b)
<sg|pd>:          882 b          881 skpd ( 99.9%)    0.003 s ( 2.563 ms/b)
<sg|pf>: done
<sg|pg>: done
<sg|ph>: done
<sg|dd>:          441 b            0 skpd (  0.0%)    0.066 s ( 0.151 ms/b)
<sg|df>: done
<sg|dg>: done
<sg|dh>: done
<sg|ff>: done
<sg|fg>: done
<sg|fh>: done
<sg|gg>: done
<sg|gh>: done
<sg|hh>: done
<sh|sh>:          105 b            0 skpd (  0.0%)    0.019 s ( 0.182 ms/b)
<sh|pp>:          392 b            0 skpd (  0.0%)    0.035 s ( 0.090 ms/b)
<sh|pd>: done
<sh|pf>: done
<sh|pg>: done
<sh|ph>: done
<sh|dd>:          294 b            0 skpd (  0.0%)    0.094 s ( 0.318 ms/b)
<sh|df>: done
<sh|dg>: done
<sh|dh>: done
<sh|ff>: done
<sh|fg>: done
<sh|fh>: done
<sh|gg>: done
<sh|gh>: done
<sh|hh>: done
<pp|pp>:          406 b            0 skpd (  0.0%)    0.066 s ( 0.162 ms/b)
<pp|pd>:         1176 b            0 skpd (  0.0%)    0.170 s ( 0.144 ms/b)
<pp|pf>:          784 b            3 skpd (  0.4%)    0.028 s ( 0.035 ms/b)
<pp|pg>:          588 b            3 skpd (  0.5%)    0.024 s ( 0.041 ms/b)
<pp|ph>:          392 b            2 skpd (  0.5%)    0.038 s ( 0.097 ms/b)
<pp|dd>:          588 b            0 skpd (  0.0%)    0.134 s ( 0.229 ms/b)
<pp|df>:          672 b            2 skpd (  0.3%)    0.025 s ( 0.038 ms/b)
<pp|dg>:          504 b            2 skpd (  0.4%)    0.039 s ( 0.078 ms/b)
<pp|dh>:          336 b            2 skpd (  0.6%)    0.062 s ( 0.184 ms/b)
<pp|ff>:          280 b            0 skpd (  0.0%)    0.005 s ( 0.019 ms/b)
<pp|fg>:          336 b            0 skpd (  0.0%)    0.008 s ( 0.022 ms/b)
<pp|fh>:          224 b            0 skpd (  0.0%)    0.010 s ( 0.046 ms/b)
<pp|gg>:          168 b            0 skpd (  0.0%)    0.011 s ( 0.066 ms/b)
<pp|gh>:          168 b            0 skpd (  0.0%)    0.015 s ( 0.087 ms/b)
<pp|hh>:           84 b            0 skpd (  0.0%)    0.022 s ( 0.260 ms/b)
<pd|pd>:          903 b            0 skpd (  0.0%)    0.254 s ( 0.281 ms/b)
<pd|pf>:         1176 b           47 skpd (  4.0%)    0.076 s ( 0.067 ms/b)
<pd|pg>:          882 b           45 skpd (  5.1%)    0.072 s ( 0.085 ms/b)
<pd|ph>:          588 b           34 skpd (  5.8%)    0.115 s ( 0.208 ms/b)
<pd|dd>:          882 b            0 skpd (  0.0%)    0.358 s ( 0.406 ms/b)
<pd|df>:         1008 b            3 skpd (  0.3%)    0.078 s ( 0.077 ms/b)
<pd|dg>:          756 b            3 skpd (  0.4%)    0.121 s ( 0.160 ms/b)
<pd|dh>:          504 b            2 skpd (  0.4%)    0.180 s ( 0.359 ms/b)
<pd|ff>:          420 b          400 skpd ( 95.2%)    0.002 s ( 0.102 ms/b)
<pd|fg>:          504 b          491 skpd ( 97.4%)    0.002 s ( 0.156 ms/b)
<pd|fh>:          336 b          329 skpd ( 97.9%)    0.003 s ( 0.413 ms/b)
<pd|gg>:          252 b          239 skpd ( 94.8%)    0.005 s ( 0.346 ms/b)
<pd|gh>:          252 b          244 skpd ( 96.8%)    0.004 s ( 0.508 ms/b)
<pd|hh>:          126 b          118 skpd ( 93.7%)    0.008 s ( 1.041 ms/b)
<pf|pf>:          406 b           27 skpd (  6.7%)    0.009 s ( 0.024 ms/b)
<pf|pg>:          588 b           42 skpd (  7.1%)    0.016 s ( 0.029 ms/b)
<pf|ph>:          392 b           31 skpd (  7.9%)    0.027 s ( 0.075 ms/b)
<pf|dd>:          588 b            0 skpd (  0.0%)    0.072 s ( 0.122 ms/b)
<pf|df>:          672 b          654 skpd ( 97.3%)    0.005 s ( 0.302 ms/b)
<pf|dg>:          504 b          495 skpd ( 98.2%)    0.006 s ( 0.708 ms/b)
<pf|dh>:          336 b          333 skpd ( 99.1%)    0.006 s ( 1.981 ms/b)
<pf|ff>: done
<pf|fg>: done
<pf|fh>: done
<pf|gg>: done
<pf|gh>: done
<pf|hh>: done
<pg|pg>:          231 b           21 skpd (  9.1%)    0.023 s ( 0.111 ms/b)
<pg|ph>:          294 b           27 skpd (  9.2%)    0.038 s ( 0.142 ms/b)
<pg|dd>:          441 b            0 skpd (  0.0%)    0.112 s ( 0.254 ms/b)
<pg|df>:          504 b          493 skpd ( 97.8%)    0.006 s ( 0.567 ms/b)
<pg|dg>:          378 b          371 skpd ( 98.1%)    0.010 s ( 1.403 ms/b)
<pg|dh>:          252 b          251 skpd ( 99.6%)    0.004 s ( 3.656 ms/b)
<pg|ff>: done
<pg|fg>: done
<pg|fh>: done
<pg|gg>: done
<pg|gh>: done
<pg|hh>: done
<ph|ph>:          105 b           11 skpd ( 10.5%)    0.044 s ( 0.463 ms/b)
<ph|dd>:          294 b            0 skpd (  0.0%)    0.144 s ( 0.491 ms/b)
<ph|df>:          336 b          329 skpd ( 97.9%)    0.008 s ( 1.195 ms/b)
<ph|dg>:          252 b          250 skpd ( 99.2%)    0.009 s ( 4.376 ms/b)
<ph|dh>: done
<ph|ff>: done
<ph|fg>: done
<ph|fh>: done
<ph|gg>: done
<ph|gh>: done
<ph|hh>: done
<dd|dd>:          231 b            0 skpd (  0.0%)    0.313 s ( 1.355 ms/b)
<dd|df>:          504 b            0 skpd (  0.0%)    0.071 s ( 0.141 ms/b)
<dd|dg>:          378 b            0 skpd (  0.0%)    0.115 s ( 0.304 ms/b)
<dd|dh>:          252 b            0 skpd (  0.0%)    0.175 s ( 0.695 ms/b)
<dd|ff>:          210 b            0 skpd (  0.0%)    0.015 s ( 0.070 ms/b)
<dd|fg>:          252 b            0 skpd (  0.0%)    0.022 s ( 0.089 ms/b)
<dd|fh>:          168 b            0 skpd (  0.0%)    0.032 s ( 0.189 ms/b)
<dd|gg>:          126 b            0 skpd (  0.0%)    0.034 s ( 0.266 ms/b)
<dd|gh>:          126 b            0 skpd (  0.0%)    0.045 s ( 0.355 ms/b)
<dd|hh>:           63 b            0 skpd (  0.0%)    0.061 s ( 0.964 ms/b)
<df|df>:          300 b            3 skpd (  1.0%)    0.024 s ( 0.082 ms/b)
<df|dg>:          432 b            5 skpd (  1.2%)    0.039 s ( 0.092 ms/b)
<df|dh>:          288 b            3 skpd (  1.0%)    0.059 s ( 0.208 ms/b)
<df|ff>: done
<df|fg>: done
<df|fh>: done
<df|gg>: done
<df|gh>: done
<df|hh>: done
<dg|dg>:          171 b            3 skpd (  1.8%)    0.051 s ( 0.306 ms/b)
<dg|dh>:          216 b            3 skpd (  1.4%)    0.076 s ( 0.358 ms/b)
<dg|ff>: done
<dg|fg>: done
<dg|fh>: done
<dg|gg>: done
<dg|gh>: done
<dg|hh>: done
<dh|dh>:           78 b            2 skpd (  2.6%)    0.081 s ( 1.068 ms/b)
<dh|ff>: done
<dh|fg>: done
<dh|fh>: done
<dh|gg>: done
<dh|gh>: done
<dh|hh>: done
<ff|ff>: done
<ff|fg>: done
<ff|fh>: done
<ff|gg>: done
<ff|gh>: done
<ff|hh>: done
<fg|fg>: done
<fg|fh>: done
<fg|gg>: done
<fg|gh>: done
<fg|hh>: done
<fh|fh>: done
<fh|gg>: done
<fh|gh>: done
<fh|hh>: done
<gg|gg>: done
<gg|gh>: done
<gg|hh>: done
<gh|gh>: done
<gh|hh>: done
<hh|hh>: done
Recanonicalizing the internal orbitals
Recanonicalizing the virtual orbitals
Time needed for Fock operator              ...            6.479 sec
Reference energy                           ...   -134.781801336
Warning: for UHF the TrafoType has to be JK
Warning: for UHF the K(C)-option cannot be MO but must be AOX

-------------------------------
PARTIAL EXCHANGE TRANSFORMATION
-------------------------------

Transformation type                        ... two-operators
Generation of integrals (i,mue|j,nue)      ... ON
Generation of integrals (mue,kappa|nue,tau)... ON
Generation of integrals (i,mue|a,nue)      ... ON
Dimension of the basis                     ...  135
Number of internal alpha-MOs               ...   10 (   0-   9)
Number of internal beta-MOs                ...    9 (   0-   8)
Number of external alpha-MOs               ...  125 (  10- 134)
Number of external beta-MOs                ...  126 (   9- 134)
Pair cutoff                                ... 0.000e+00 Eh
Number of AO pairs in the trafo            ... 9180
Total Number of distinct AO pairs          ... 9180
Memory devoted for trafo                   ... 2500.0 MB 
Max. Number of MO pairs treated together   ... 17979      
Number Format for Storage                  ... Double (8 Byte)
Integral package used                      ... LIBINT

Starting integral evaluation:
    ... done with AO integral generation
Closing buffer AOK[aa] ( 0.00 GB; CompressionRatio= 0.99)
Closing buffer AOK[bb] ( 0.00 GB; CompressionRatio= 0.98)
Closing buffer AOK[ab] ( 0.00 GB; CompressionRatio= 0.98)
Closing buffer AOK[ba] ( 0.00 GB; CompressionRatio= 0.98)
Collecting buffer AOK 
Closing buffer IAAO1[aa] ( 0.00 GB; CompressionRatio= 1.00)
Closing buffer IAAO1[bb] ( 0.00 GB; CompressionRatio= 1.00)
Closing buffer IAAO1[ab] ( 0.00 GB; CompressionRatio= 1.00)
Closing buffer IAAO1[ba] ( 0.00 GB; CompressionRatio= 1.00)
Closing buffer IAAO2[aa] ( 0.00 GB; CompressionRatio= 1.00)
Closing buffer IAAO2[bb] ( 0.00 GB; CompressionRatio= 1.00)
Closing buffer IAAO2[ab] ( 0.00 GB; CompressionRatio= 1.00)
Closing buffer IAAO2[ba] ( 0.00 GB; CompressionRatio= 1.00)
Collecting buffer IAAO 
Closing buffer PRQS    ( 0.01 GB; CompressionRatio= 1.00)
Collecting buffer PRQS 
Number of alpha/alpha MO pairs in trafo    ...   55
Number of beta /beta  MO pairs in trafo    ...   45
Number of alpha/ beta MO pairs in trafo    ...   90
------------------------
SORTING OF (i,mue|j,nue)
------------------------

SORTING OF ALPHA/ALPHA PAIRS
IBATCH = 1 of  1
Closing buffer KAO[aa] ( 0.00 GB; CompressionRatio= 1.00)
Collecting buffer KAO 
SORTING OF BETA /BETA  PAIRS
IBATCH = 1 of  1
Closing buffer KAO[bb] ( 0.00 GB; CompressionRatio= 1.00)
Collecting buffer KAO 
SORTING OF ALPHA/BETA  PAIRS
IBATCH = 1 of  1
Closing buffer KAO[ab] ( 0.00 GB; CompressionRatio= 0.999917702247)
Collecting buffer KAO[ab] 
------------------------
SORTING OF (i,mue|a,nue)
------------------------

Number of alpha/alpha (i,a) pairs in trafo  ... 1250
Number of beta /beta  (i,a) pairs in trafo  ... 1134
Number of alpha/ beta (i,a) pairs in trafo  ... 1260
Number of beta /alpha (i,a) pairs in trafo  ... 1125
Setting up the alpha/alpha list             ... done
Setting up the beta /beta  list             ... done
Setting up the alpha/beta  list             ... done
Setting up the beta /alpha list             ... done
    ... Now sorting (i,mue|a,nue)integrals
    ... Integrals (i,b|a,c) will be made on the fly
SORTING OF ALPHA/ALPHA PAIRS
IBATCH = 1 of  1
Closing buffer IPAQ[aa]  0.01 GB; CompressionRatio= 1.00)
SORTING OF BETA /BETA  PAIRS
IBATCH = 1 of  1
Closing buffer IPAQ[bb]( 0.01 GB; CompressionRatio= 1.00)
SORTING OF ALPHA/BETA  PAIRS (NMatSort_ab=53)
IBATCH = 1 of  1
Closing buffer IPAQ[ab]( 0.01 GB; CompressionRatio= 1.00)
SORTING OF BETA/ALPHA  PAIRS
IBATCH = 1 of  1
Closing buffer IPAQ[ba]( 0.01 GB; CompressionRatio= 1.00)
N(AO-Batches) Done                         ...      5046 
N(AO-Batches) Skipped                      ...         0 
N(IJ)-pairs Skipped                        ...         0 
TOTAL TIME for half transformation         ...    38.519 sec
AO-integral generation                     ...     2.334 sec
Half transformation                        ...     0.016 sec
K-integral sorting                         ...     2.145 sec
<ss|**>: 
------------------------------
PARTIAL COULOMB TRANSFORMATION
------------------------------

Transformation type                        ... two-operators
Dimension of the basis                     ...  135
Number of internal alpha-MOs               ...   10 (0-9)
Number of internal beta-MOs                ...    9 (0-8)
Pair cutoff                                ... 0.000e+00 Eh
Number of AO pairs included in the trafo   ... 9180
Total Number of distinct AO pairs          ... 9180
Memory devoted for trafo                   ... 2500.0 MB 
Max. Number of MO pairs treated together   ... 35694      
Max. Number of MOs treated per batch       ...  264      
Number Format for Storage                  ... Double (8 Byte)
AO-integral source                         ... DIRECT
Integral package used                      ... LIBINT

Starting integral evaluation:
<sp|**>:        12180 b        0 skpd     0.676 s (  0.056 ms/b)
<sd|**>:        21315 b        0 skpd     1.060 s (  0.050 ms/b)
       18270 b        0 skpd     1.591 s (  0.087 ms/b)
<sf|**>:        12180 b        0 skpd     0.316 s (  0.026 ms/b)
<sg|**>:         9135 b        0 skpd     0.314 s (  0.034 ms/b)
<sh|**>:         6090 b        0 skpd     0.611 s (  0.100 ms/b)
<pp|**>:        12180 b        0 skpd     0.840 s (  0.069 ms/b)
<pd|**>:        18270 b        0 skpd     2.516 s (  0.138 ms/b)
<pf|**>:        12180 b        0 skpd     0.494 s (  0.041 ms/b)
<pg|**>:         9135 b        0 skpd     0.461 s (  0.050 ms/b)
<ph|**>:         6090 b        0 skpd     0.784 s (  0.129 ms/b)
<dd|**>:         9135 b        0 skpd     2.226 s (  0.244 ms/b)
<df|**>:        10440 b        0 skpd     0.457 s (  0.044 ms/b)
<dg|**>:         7830 b        0 skpd     0.735 s (  0.094 ms/b)
<dh|**>:         5220 b        0 skpd     1.111 s (  0.213 ms/b)
<ff|**>:         4350 b        0 skpd     0.106 s (  0.024 ms/b)
<fg|**>:         5220 b        0 skpd     0.160 s (  0.031 ms/b)
<fh|**>:         3480 b        0 skpd     0.231 s (  0.066 ms/b)
<gg|**>:         2610 b        0 skpd     0.246 s (  0.094 ms/b)
<gh|**>:         2610 b        0 skpd     0.338 s (  0.130 ms/b)
<hh|**>:         1305 b        0 skpd     0.473 s (  0.362 ms/b)
Closing buffer AOJ[aa] ( 0.00 GB; CompressionRatio= 0.97)
Closing buffer AOJ[bb] ( 0.00 GB; CompressionRatio= 0.00)
Collecting buffer AOJ 
    ... done with AO integral generation
Number of Alpha-MO pairs included          ...   55
Number of Beta-MO pairs included           ...   45
    ... Now sorting integrals
SORTING ALPHA/ALPHA PAIRS
IBATCH = 1 of  1
Closing buffer JAO[aa] ( 0.00 GB; CompressionRatio= 1.00)
SORTING BETA/BETA PAIRS
IBATCH = 1 of  1
Closing buffer JAO[bb] ( 0.00 GB; CompressionRatio= 1.00)
Collecting buffer JAO 
TOTAL TIME for half transformation         ...    15.822 sec
AO-integral generation                     ...    15.764 sec
Half transformation                        ...     0.021 sec
J-integral sorting                         ...     0.030 sec

-------------------------- SECOND HALF TRANSFORMATION -------------------------
Formation of (ij|kl),(ij|ka), (ij|ab)      ... ok (     0.078 sec)
Formation of (ik|jl),(ik|ja), (ia|jb)      ... ok (     0.130 sec)


-----------------------
SPIN UNRESTRICTED GUESS
-----------------------

Entering MDCI_UHF_Guess, Tailored=0
Spin-components of the MP2 energy:
EMP2(aa)=     -0.129194413
EMP2(bb)=     -0.104688545
EMP2(ab)=     -0.512790482

Initial guess performed in     0.063 sec
E(0)                                       ...   -134.781801336
E(MP2)                                     ...     -0.746673441
Initial E(tot)                             ...   -135.528474777
<T|T>                                      ...      0.143291491
Number of pairs included                   ... 171

------------------------------------------------
                  UHF COUPLED CLUSTER ITERATIONS
------------------------------------------------

Number of amplitudes to be optimized       ...      2056000

Iter       E(tot)           E(Corr)          Delta-E          Residual     Time      <S|S>**1/2
  0   -135.528474777     -0.746673441     -0.000000000      0.023019336    5.64      0.000000890
                           *** Turning on DIIS ***
  1   -135.471785039     -0.689983703      0.056689738      0.008277946    8.44      0.037323396
  2   -135.487040098     -0.705238762     -0.015255059      0.005543360    8.59      0.041426036
  3   -135.487956756     -0.706155420     -0.000916658      0.002843515    8.60      0.049781219
  4   -135.488472529     -0.706671193     -0.000515773      0.001105868    8.61      0.054217162
  5   -135.488691454     -0.706890118     -0.000218924      0.000249279    8.68      0.057073575
  6   -135.488705093     -0.706903757     -0.000013640      0.000064950    8.67      0.057638451
  7   -135.488708932     -0.706907596     -0.000003839      0.000015405    8.72      0.057769517
  8   -135.488709468     -0.706908132     -0.000000535      0.000003381    8.59      0.057790678
               --- The Coupled-Cluster iterations have converged ---

----------------------
COUPLED CLUSTER ENERGY
----------------------

E(0)                                       ...   -134.781801336
E(CORR)                                    ...     -0.706908132
E(TOT)                                     ...   -135.488709468
Singles norm <S|S>**1/2                    ...      0.057790678 ( 0.038075531, 0.019715147)  
T1 diagnostic                              ...      0.013258091                              

------------------
LARGEST AMPLITUDES
------------------
   9a-> 30a  -1a-> -1a       0.053579
   9a-> 13a  -1a-> -1a       0.041432
   9a-> 62a  -1a-> -1a       0.013908
   8b-> 44b  -1b-> -1b       0.011178
   9a-> 22a   5b-> 24b       0.010887
   9a-> 24a   5b-> 22b       0.010857
   6b-> 45b  -1b-> -1b       0.010836
   9a-> 22a   7b-> 23b       0.010731
   9a-> 24a   4b-> 24b       0.010713
   9a-> 23a   7b-> 22b       0.010708
   8b-> 27b  -1b-> -1b       0.010607
   9a-> 22a   6b-> 22b       0.010351
   9a-> 16a   4b-> 24b       0.010300
   9a-> 16a   5b-> 22b       0.010204
   9a-> 15a   7b-> 22b       0.010117
   9a-> 14a   5b-> 24b       0.010114

----------------------
UHF TRIPLES CORRECTION (Algorithm 1)
----------------------

Multiplier for the singles contribution    ...      1.000000000

SPIN-CASE Alpha-Alpha-Alpha:
10% done
20% done
30% done
40% done
50% done
60% done
70% done
80% done
90% done


SPIN-CASE Beta-Beta-Beta:
10% done
20% done
30% done
40% done
50% done
60% done
70% done
80% done
90% done


SPIN-CASE Alpha-Alpha-Beta:
10% done
20% done
30% done
40% done
50% done
60% done
70% done
80% done
90% done


SPIN-CASE Beta-Beta-Alpha:
10% done
20% done
30% done
40% done
50% done
60% done
70% done
80% done
90% done


Triples Correction (T)                     ...     -0.027997779
    alpha-alpha-alpha ... -0.001586064 (  5.7%)
    alpha-alpha-beta  ... -0.014276995 ( 51.0%)
    alpha-beta -beta  ... -0.011292681 ( 40.3%)
    beta -beta -beta  ... -0.000842039 (  3.0%)
Scaling of triples based on CCSD energies (Peterson et al. Molecular Physics 113, 1551 (2015))
E(T*) = f*E(T) where f = E(F12-CCSD)/E(CCSD) 
f = CCSD (with F12)/ CCSD (without F12)    ...      1.000000000
Scaled triples correction (T)              ...     -0.027997779

Final correlation energy                   ...     -0.734905910
E(CCSD)                                    ...   -135.488709468
E(CCSD(T))                                 ...   -135.516707246



        !!!!!!!!!!!!!!!!!!!!!!!!!!!!!!!!!!!!!!!!!!!!!!!!!!!!!!!!!!!!!!!!!!!!!!!!!! 
        !  Warning: Densities are linearized densities                           !
        !!!!!!!!!!!!!!!!!!!!!!!!!!!!!!!!!!!!!!!!!!!!!!!!!!!!!!!!!!!!!!!!!!!!!!!!!! 

NORM  =      1.131814648 sqrt=     1.063867777
W(HF) =      0.883536895
------------------------------------------------------------------------------
                           ORCA POPULATION ANALYSIS
------------------------------------------------------------------------------
Input electron density              ... 79_Au.mdcip
Input spin density                  ... 79_Au.mdcir
BaseName (.gbw .S,...)              ... 79_Au

                    ********************************
                    * MULLIKEN POPULATION ANALYSIS *
                    ********************************

------------------------------------------
MULLIKEN ATOMIC CHARGES AND SPIN DENSITIES
------------------------------------------
   0 Au:    0.000000    1.000000
Sum of atomic charges       :    0.0000000
Sum of atomic spin densities:    1.0000000

---------------------------------------------------
MULLIKEN REDUCED ORBITAL CHARGES AND SPIN DENSITIES
---------------------------------------------------
CHARGE
  0 Aus       :     2.979733  s :     2.979733
      pz      :     2.008871  p :     6.026613
      px      :     2.008871
      py      :     2.008871
      dz2     :     1.974179  d :     9.870895
      dxz     :     1.974179
      dyz     :     1.974179
      dx2y2   :     1.974179
      dxy     :     1.974179
      f0      :     0.014536  f :     0.101749
      f+1     :     0.014536
      f-1     :     0.014536
      f+2     :     0.014536
      f-2     :     0.014536
      f+3     :     0.014536
      f-3     :     0.014536
      g0      :     0.001875  g :     0.016875
      g+1     :     0.001875
      g-1     :     0.001875
      g+2     :     0.001875
      g-2     :     0.001875
      g+3     :     0.001875
      g-3     :     0.001875
      g+4     :     0.001875
      g-4     :     0.001875
      h0      :     0.000376  h :     0.004135
      h+1     :     0.000376
      h-1     :     0.000376
      h+2     :     0.000376
      h-2     :     0.000376
      h+3     :     0.000376
      h-3     :     0.000376
      h+4     :     0.000376
      h-4     :     0.000376
      h+5     :     0.000376
      h-5     :     0.000376

SPIN
  0 Aus       :     0.976261  s :     0.976261
      pz      :     0.004434  p :     0.013301
      px      :     0.004434
      py      :     0.004434
      dz2     :     0.002434  d :     0.012171
      dxz     :     0.002434
      dyz     :     0.002434
      dx2y2   :     0.002434
      dxy     :     0.002434
      f0      :    -0.000306  f :    -0.002142
      f+1     :    -0.000306
      f-1     :    -0.000306
      f+2     :    -0.000306
      f-2     :    -0.000306
      f+3     :    -0.000306
      f-3     :    -0.000306
      g0      :     0.000059  g :     0.000534
      g+1     :     0.000059
      g-1     :     0.000059
      g+2     :     0.000059
      g-2     :     0.000059
      g+3     :     0.000059
      g-3     :     0.000059
      g+4     :     0.000059
      g-4     :     0.000059
      h0      :    -0.000011  h :    -0.000125
      h+1     :    -0.000011
      h-1     :    -0.000011
      h+2     :    -0.000011
      h-2     :    -0.000011
      h+3     :    -0.000011
      h-3     :    -0.000011
      h+4     :    -0.000011
      h-4     :    -0.000011
      h+5     :    -0.000011
      h-5     :    -0.000011


                     *******************************
                     * LOEWDIN POPULATION ANALYSIS *
                     *******************************

-----------------------------------------
LOEWDIN ATOMIC CHARGES AND SPIN DENSITIES
-----------------------------------------
   0 Au:   -0.000000    1.000000

--------------------------------------------------
LOEWDIN REDUCED ORBITAL CHARGES AND SPIN DENSITIES
--------------------------------------------------
CHARGE
  0 Aus       :     2.979733  s :     2.979733
      pz      :     2.008871  p :     6.026613
      px      :     2.008871
      py      :     2.008871
      dz2     :     1.974179  d :     9.870895
      dxz     :     1.974179
      dyz     :     1.974179
      dx2y2   :     1.974179
      dxy     :     1.974179
      f0      :     0.014536  f :     0.101749
      f+1     :     0.014536
      f-1     :     0.014536
      f+2     :     0.014536
      f-2     :     0.014536
      f+3     :     0.014536
      f-3     :     0.014536
      g0      :     0.001875  g :     0.016875
      g+1     :     0.001875
      g-1     :     0.001875
      g+2     :     0.001875
      g-2     :     0.001875
      g+3     :     0.001875
      g-3     :     0.001875
      g+4     :     0.001875
      g-4     :     0.001875
      h0      :     0.000376  h :     0.004135
      h+1     :     0.000376
      h-1     :     0.000376
      h+2     :     0.000376
      h-2     :     0.000376
      h+3     :     0.000376
      h-3     :     0.000376
      h+4     :     0.000376
      h-4     :     0.000376
      h+5     :     0.000376
      h-5     :     0.000376

SPIN
  0 Aus       :     0.976261  s :     0.976261
      pz      :     0.004434  p :     0.013301
      px      :     0.004434
      py      :     0.004434
      dz2     :     0.002434  d :     0.012171
      dxz     :     0.002434
      dyz     :     0.002434
      dx2y2   :     0.002434
      dxy     :     0.002434
      f0      :    -0.000306  f :    -0.002142
      f+1     :    -0.000306
      f-1     :    -0.000306
      f+2     :    -0.000306
      f-2     :    -0.000306
      f+3     :    -0.000306
      f-3     :    -0.000306
      g0      :     0.000059  g :     0.000534
      g+1     :     0.000059
      g-1     :     0.000059
      g+2     :     0.000059
      g-2     :     0.000059
      g+3     :     0.000059
      g-3     :     0.000059
      g+4     :     0.000059
      g-4     :     0.000059
      h0      :    -0.000011  h :    -0.000125
      h+1     :    -0.000011
      h-1     :    -0.000011
      h+2     :    -0.000011
      h-2     :    -0.000011
      h+3     :    -0.000011
      h-3     :    -0.000011
      h+4     :    -0.000011
      h-4     :    -0.000011
      h+5     :    -0.000011
      h-5     :    -0.000011


                      *****************************
                      * MAYER POPULATION ANALYSIS *
                      *****************************

  NA   - Mulliken gross atomic population
  ZA   - Total nuclear charge
  QA   - Mulliken gross atomic charge
  VA   - Mayer's total valence
  BVA  - Mayer's bonded valence
  FA   - Mayer's free valence

  ATOM       NA         ZA         QA         VA         BVA        FA
  0 Au    19.0000    19.0000     0.0000     1.9359     0.0000     1.9359





------------------------------------------------------------------------------- 
                                     TIMINGS                                   
------------------------------------------------------------------------------- 


Total execution time                   ...      144.619 sec

Fock Matrix Formation                  ...        6.479 sec (  4.5%)
Initial Guess                          ...        0.063 sec (  0.0%)
DIIS Solver                            ...        1.350 sec (  0.9%)
State Vector Update                    ...        0.070 sec (  0.0%)
Sigma-vector construction              ...       73.115 sec ( 50.6%)
  <0|H|D>                              ...        0.004 sec (  0.0% of sigma)
  <D|H|D>(0-ext Fock)                  ...        0.031 sec (  0.0% of sigma)
  <D|H|D>(0-ext)                       ...        0.123 sec (  0.2% of sigma)
  <D|H|D>(2-ext Fock)                  ...        0.012 sec (  0.0% of sigma)
  <D|H|D>(2-ext)                       ...        0.518 sec (  0.7% of sigma)
  <D|H|D>(4-ext)                       ...       12.534 sec ( 17.1% of sigma)
  <S|H|0>                              ...        1.438 sec (  2.0% of sigma)
  <S|H|S>                              ...        0.002 sec (  0.0% of sigma)
  <S|H|D>(1-ext)                       ...        0.008 sec (  0.0% of sigma)
  <D|H|S>(1-ext)                       ...        0.125 sec (  0.2% of sigma)
  Fock-dressing                        ...       53.490 sec ( 73.2% of sigma)
  (ik|jl)-dressing                     ...        0.144 sec (  0.2% of sigma)
  (ij|ab),(ia|jb)-dressing             ...        3.809 sec (  5.2% of sigma)
  Pair energies                        ...        0.005 sec (  0.0% of sigma)
Total Time for computing (T)           ...        8.216 sec (  5.7% of ALL)
  I/O of integral and amplitudes       ...        1.611 sec ( 19.6% of (T))
  External N**7 contributions          ...        2.657 sec ( 32.3% of (T))
  Internal N**7 contributions          ...        0.941 sec ( 11.5% of (T))
  N**6 triples energy contributions    ...        2.883 sec ( 35.1% of (T))


-------------------------   --------------------
FINAL SINGLE POINT ENERGY      -135.516707246234
-------------------------   --------------------


                            ***************************************
                            *     ORCA property calculations      *
                            ***************************************

                                    ---------------------
                                    Active property flags
                                    ---------------------
   (+) Dipole Moment


------------------------------------------------------------------------------
                       ORCA ELECTRIC PROPERTIES CALCULATION
------------------------------------------------------------------------------

Dipole Moment Calculation                       ... on
Quadrupole Moment Calculation                   ... off
Polarizability Calculation                      ... off
GBWName                                         ... 79_Au.gbw
Electron density file                           ... 79_Au.scfp
The origin for moment calculation is the CENTER OF MASS  = ( 0.000000,  0.000000  0.000000)

-------------
DIPOLE MOMENT
-------------
                                X             Y             Z
Electronic contribution:     -0.00000      -0.00000       0.00000
Nuclear contribution   :      0.00000       0.00000       0.00000
                        -----------------------------------------
Total Dipole Moment    :     -0.00000      -0.00000       0.00000
                        -----------------------------------------
Magnitude (a.u.)       :      0.00000
Magnitude (Debye)      :      0.00000



--------------------
Rotational spectrum 
--------------------
 
Rotational constants in cm-1:     0.000000     0.000000     0.000000 
Rotational constants in MHz :     0.000000     0.000000     0.000000 

 Dipole components along the rotational axes: 
x,y,z [a.u.] :    -0.000000    -0.000000     0.000000 
x,y,z [Debye]:    -0.000000    -0.000000     0.000000 

 

                           *** MDCI DENSITY ***

------------------------------------------------------------------------------
                       ORCA ELECTRIC PROPERTIES CALCULATION
------------------------------------------------------------------------------

Dipole Moment Calculation                       ... on
Quadrupole Moment Calculation                   ... off
Polarizability Calculation                      ... off
GBWName                                         ... 79_Au.gbw
Electron density file                           ... 79_Au.mdcip
The origin for moment calculation is the CENTER OF MASS  = ( 0.000000,  0.000000  0.000000)

-------------
DIPOLE MOMENT
-------------
                                X             Y             Z
Electronic contribution:     -0.00000      -0.00000       0.00000
Nuclear contribution   :      0.00000       0.00000       0.00000
                        -----------------------------------------
Total Dipole Moment    :     -0.00000      -0.00000       0.00000
                        -----------------------------------------
Magnitude (a.u.)       :      0.00000
Magnitude (Debye)      :      0.00000



--------------------
Rotational spectrum 
--------------------
 
Rotational constants in cm-1:     0.000000     0.000000     0.000000 
Rotational constants in MHz :     0.000000     0.000000     0.000000 

 Dipole components along the rotational axes: 
x,y,z [a.u.] :    -0.000000    -0.000000     0.000000 
x,y,z [Debye]:    -0.000000    -0.000000     0.000000 

 

Timings for individual modules:

Sum of individual times         ...      279.450 sec (=   4.658 min)
GTO integral calculation        ...        2.242 sec (=   0.037 min)   0.8 %
SCF iterations                  ...      131.632 sec (=   2.194 min)  47.1 %
MDCI module                     ...      145.577 sec (=   2.426 min)  52.1 %
                             ****ORCA TERMINATED NORMALLY****
TOTAL RUN TIME: 0 days 0 hours 4 minutes 40 seconds 45 msec
