
                                 *****************
                                 * O   R   C   A *
                                 *****************

           --- An Ab Initio, DFT and Semiempirical electronic structure package ---

                  #######################################################
                  #                        -***-                        #
                  #          Department of theory and spectroscopy      #
                  #               Directorship: Frank Neese             #
                  #        Max Planck Institute fuer Kohlenforschung    #
                  #                Kaiser Wilhelm Platz 1               #
                  #                 D-45470 Muelheim/Ruhr               #
                  #                      Germany                        #
                  #                                                     #
                  #                  All rights reserved                #
                  #                        -***-                        #
                  #######################################################


                         Program Version 4.2.0 -  RELEASE  -


 With contributions from (in alphabetic order):
   Daniel Aravena         : Magnetic Suceptibility
   Michael Atanasov       : Ab Initio Ligand Field Theory (pilot matlab implementation)
   Alexander A. Auer      : GIAO ZORA, VPT2
   Ute Becker             : Parallelization
   Giovanni Bistoni       : ED, misc. LED, open-shell LED, HFLED
   Martin Brehm           : Molecular dynamics
   Dmytro Bykov           : SCF Hessian
   Vijay G. Chilkuri      : MRCI spin determinant printing, contributions to CSF-ICE
   Dipayan Datta          : RHF DLPNO-CCSD density
   Achintya Kumar Dutta   : EOM-CC, STEOM-CC
   Dmitry Ganyushin       : Spin-Orbit,Spin-Spin,Magnetic field MRCI
   Miquel Garcia          : C-PCM Hessian, Gaussian charge scheme
   Yang Guo               : DLPNO-NEVPT2, CIM, IAO-localization
   Andreas Hansen         : Spin unrestricted coupled pair/coupled cluster methods
   Benjamin Helmich-Paris : CASSCF linear response (MC-RPA)
   Lee Huntington         : MR-EOM, pCC
   Robert Izsak           : Overlap fitted RIJCOSX, COSX-SCS-MP3, EOM
   Christian Kollmar      : KDIIS, OOCD, Brueckner-CCSD(T), CCSD density
   Simone Kossmann        : Meta GGA functionals, TD-DFT gradient, OOMP2, MP2 Hessian
   Martin Krupicka        : AUTO-CI
   Lucas Lang             : DCDCAS
   Dagmar Lenk            : GEPOL surface, SMD
   Dimitrios Liakos       : Extrapolation schemes; Compound Job, initial MDCI parallelization
   Dimitrios Manganas     : Further ROCIS development; embedding schemes
   Dimitrios Pantazis     : SARC Basis sets
   Taras Petrenko         : DFT Hessian,TD-DFT gradient, ASA, ECA, R-Raman, ABS, FL, XAS/XES, NRVS
   Peter Pinski           : DLPNO-MP2, DLPNO-MP2 Gradient
   Christoph Reimann      : Effective Core Potentials
   Marius Retegan         : Local ZFS, SOC
   Christoph Riplinger    : Optimizer, TS searches, QM/MM, DLPNO-CCSD(T), (RO)-DLPNO pert. Triples
   Tobias Risthaus        : Range-separated hybrids, TD-DFT gradient, RPA, STAB
   Michael Roemelt        : Original ROCIS implementation
   Masaaki Saitow         : Open-shell DLPNO-CCSD energy and density
   Barbara Sandhoefer     : DKH picture change effects
   Avijit Sen             : IP-ROCIS
   Kantharuban Sivalingam : CASSCF convergence, NEVPT2, FIC-MRCI
   Bernardo de Souza      : ESD, SOC TD-DFT
   Georgi Stoychev        : AutoAux, RI-MP2 NMR
   Willem Van den Heuvel  : Paramagnetic NMR
   Boris Wezisla          : Elementary symmetry handling
   Frank Wennmohs         : Technical directorship


 We gratefully acknowledge several colleagues who have allowed us to
 interface, adapt or use parts of their codes:
   Stefan Grimme, W. Hujo, H. Kruse,             : VdW corrections, initial TS optimization,
                  C. Bannwarth                     DFT functionals, gCP, sTDA/sTD-DF
   Ed Valeev, F. Pavosevic, A. Kumar             : LibInt (2-el integral package), F12 methods
   Garnet Chan, S. Sharma, J. Yang, R. Olivares  : DMRG
   Ulf Ekstrom                                   : XCFun DFT Library
   Mihaly Kallay                                 : mrcc  (arbitrary order and MRCC methods)
   Andreas Klamt, Michael Diedenhofen            : otool_cosmo (COSMO solvation model)
   Jiri Pittner, Ondrej Demel                    : Mk-CCSD
   Frank Weinhold                                : gennbo (NPA and NBO analysis)
   Christopher J. Cramer and Donald G. Truhlar   : smd solvation model
   Lars Goerigk                                  : TD-DFT with DH, B97 family of functionals
   V. Asgeirsson, H. Jonsson                     : NEB implementation
   FAccTs GmbH                                   : IRC, NEB, NEB-TS, Multilevel, MM, QM/MM, CI optimization
   S Lehtola, MJT Oliveira, MAL Marques          : LibXC Library


 Your calculation uses the libint2 library for the computation of 2-el integrals
 For citations please refer to: http://libint.valeyev.net

 Your ORCA version has been built with support for libXC version: 4.2.3
 For citations please refer to: https://tddft.org/programs/libxc/

 This ORCA versions uses:
   CBLAS   interface :  Fast vector & matrix operations
   LAPACKE interface :  Fast linear algebra routines
   SCALAPACK package :  Parallel linear algebra routines


Setting NCore(Hg) from 46 to 60
----- Orbital basis set information -----
Your calculation utilizes the basis: aug-cc-pVQZ-PP 
       Ca, Sr, Ba, Ra : Obtained from the Peterson Research Group Website (tyr0.chem.wsu.edu/~kipeters) Feb. 2017
                        H. Li, H. Feng, W. Sun, Y. Zhang, Q. Fan, K. A. Peterson, Y. Xie, H. F. Schaefer III, Mol. Phys. 111, 2292 (2013)
  Cu-Zn, Ag-Cd, Au-Hg : Obtained from the ccRepo (grant-hill.group.shef.ac.uk/ccrepo) Feb. 2017
                        K. A. Peterson, C. Puzzarini, Theor. Chem. Acc. 114, 283 (2005)
  Ga-Kr, In-Xe, Tl-Rn : Obtained from the ccRepo (grant-hill.group.shef.ac.uk/ccrepo) Feb. 2017
                        K. A. Peterson, J. Chem. Phys. 119, 11099 (2003)
                        K. A. Peterson, D. Figgen, E. Goll, H. Stoll, M. Dolg, J. Chem. Phys. 119, 11113 (2003)
                 Y-Pd : Obtained from the ccRepo (grant-hill.group.shef.ac.uk/ccrepo) Feb. 2017
                        K. A. Peterson, D. Figgen, M. Dolg, H. Stoll, J. Chem. Phys. 126, 124101 (2007)
                Hf-Pt : Obtained from the ccRepo (grant-hill.group.shef.ac.uk/ccrepo) Feb. 2017
                        D. Figgen, K. A. Peterson, M. Dolg, H. Stoll, J. Chem. Phys. 130, 164108 (2009)

cite the ECPs for Hg [SK MCDHF RSC] as follows:
O: B. Metz and H. Stoll, private communication (KAP)
Tl: B. Metz, M. Schweizer, H. Stoll, M. Dolg, W. Liu, Theor. Chem. Acc. 104, 22 (2000)
Ga-As, In-Sb, Pb-Bi: B. Metz, H. Stoll, M. Dolg, J. Chem. Phys. 113, 2563 (2000)
Se-Kr, Te-Xe, Po-Rn: K.A. Peterson, D. Figgen, E. Goll, H. Stoll, and M. Dolg, J. Chem. Phys., in press (2003)
Cu-Zn, Ag-Cd, Au-Hg: D. Figgen, G. Rauhut, M. Dolg, and H. Stoll, Chem. Phys. 311, 227 (2005)
Y-Pd: K.A. Peterson, D. Figgen, M. Dolg, H. Stoll, J. Chem. Phys. 126, 124101 (2007)
I: K. A. Peterson, B. C. Shepler, D. Figgen, H. Stoll, J. Phys. Chem. A 110, 13877 (2006)
Hf-Pt: D. Figgen, K.A. Peterson, M. Dolg, H. Stoll, J. Chem. Phys. 130, 164108 (2009)
Ca, Sr, Ba, Ra: I.S. Lim, H. Stoll, P. Schwerdtfeger, J. Chem. Phys. 124, 034107 (2006)

ECP parameters for Hg [SK MCDHF RSC] have been obtained from:
cc-pVDZ-PP  EMSL  Basis Set Exchange Library   4/7/16 5:27 AM
Ca, Sr, Ba, Ra: http://www.tc.uni-koeln.de/PP/index.en.html 3/16/17 1:54 PM

================================================================================
                                        WARNINGS
                       Please study these warnings very carefully!
================================================================================


WARNING: MDCI localization with Augmented Hessian Foster-Boys
  ===> : Switching off randomization!

WARNING: Post HF methods need fully converged wavefunctions
  ===> : Setting SCFConvForced true
         You can overwrite this default with %scf ConvForced false 


INFO   : the flag for use of LIBINT has been found!

================================================================================
                                       INPUT FILE
================================================================================
NAME = 80_Hg.in
|  1> #
|  2> # 80_Hg CCSD(T)/aug-cc-pVQZ-PP
|  3> #
|  4> ! CCSD(T) aug-cc-pVQZ-PP tightscf slowconv
|  5> 
|  6> *xyz 0 1
|  7>  Hg 0.0 0.0 0.0
|  8> *
|  9> 
| 10> %maxcore 5000 
| 11> 
| 12> %pal
| 13> nprocs 24
| 14> end
| 15> 
| 16> %method
| 17> NewNCore Hg 60 end
| 18> end
| 19> 
| 20> 
| 21>                          ****END OF INPUT****
================================================================================

                       ****************************
                       * Single Point Calculation *
                       ****************************

---------------------------------
CARTESIAN COORDINATES (ANGSTROEM)
---------------------------------
  Hg     0.000000    0.000000    0.000000

----------------------------
CARTESIAN COORDINATES (A.U.)
----------------------------
  NO LB      ZA    FRAG     MASS         X           Y           Z
   0 Hg   20.0000*   0   200.590    0.000000    0.000000    0.000000
* core charge reduced due to ECP

--------------------------------
INTERNAL COORDINATES (ANGSTROEM)
--------------------------------
 Hg     0   0   0     0.000000000000     0.00000000     0.00000000

---------------------------
INTERNAL COORDINATES (A.U.)
---------------------------
 Hg     0   0   0     0.000000000000     0.00000000     0.00000000

---------------------
BASIS SET INFORMATION
---------------------
There are 1 groups of distinct atoms

 Group   1 Type Hg  : 67s52p38d4f3g2h contracted to 7s7p6d4f3g2h pattern {131313131311/101010101011/999911/1111/111/11}

Atom   0Hg   basis set group =>   1
-------------------------
ECP PARAMETER INFORMATION
-------------------------

 Group 1, Type Hg ECP SK MCDHF RSC (replacing 60 core electrons, lmax=5)

Atom   0Hg   ECP group =>   1



           ************************************************************
           *        Program running with 24 parallel MPI-processes    *
           *              working on a common directory               *
           ************************************************************
------------------------------------------------------------------------------
                           ORCA GTO INTEGRAL CALCULATION
------------------------------------------------------------------------------

                         BASIS SET STATISTICS AND STARTUP INFO

 # of primitive gaussian shells          ...  166
 # of primitive gaussian functions       ...  490
 # of contracted shells                  ...   29
 # of contracted basis functions         ...  135
 Highest angular momentum                ...    5
 Maximum contraction depth               ...   13
 Integral package used                   ... LIBINT
 Integral threshhold            Thresh   ...  2.500e-11
 Primitive cut-off              TCut     ...  2.500e-12


------------------------------ INTEGRAL EVALUATION ----------------------------


 * One electron integrals 

   ECP integrals                         ... done
 Pre-screening matrix                    ... done
 Shell pair data                         ... done (   0.000 sec)



           ************************************************************
           *        Program running with 24 parallel MPI-processes    *
           *              working on a common directory               *
           ************************************************************
-------------------------------------------------------------------------------
                                 ORCA SCF
-------------------------------------------------------------------------------

------------
SCF SETTINGS
------------
Hamiltonian:
 Ab initio Hamiltonian  Method          .... Hartree-Fock(GTOs)


General Settings:
 Integral files         IntName         .... 80_Hg
 Hartree-Fock type      HFTyp           .... RHF
 Total Charge           Charge          ....    0
 Multiplicity           Mult            ....    1
 Number of Electrons    NEL             ....   20
 Basis Dimension        Dim             ....  135
 Nuclear Repulsion      ENuc            ....      0.0000000000 Eh

Convergence Acceleration:
 DIIS                   CNVDIIS         .... on
   Start iteration      DIISMaxIt       ....     0
   Startup error        DIISStart       ....  0.200000
   # of expansion vecs  DIISMaxEq       ....     5
   Bias factor          DIISBfac        ....   1.050
   Max. coefficient     DIISMaxC        ....  10.000
 Newton-Raphson         CNVNR           .... off
 SOSCF                  CNVSOSCF        .... off
 Level Shifting         CNVShift        .... on
   Level shift para.    LevelShift      ....    0.2500
   Turn off err/grad.   ShiftErr        ....    0.0000
 Zerner damping         CNVZerner       .... off
 Static damping         CNVDamp         .... on
   Fraction old density DampFac         ....    0.8500
   Max. Damping (<1)    DampMax         ....    0.9800
   Min. Damping (>=0)   DampMin         ....    0.0000
   Turn off err/grad.   DampErr         ....    0.0300
 Fernandez-Rico         CNVRico         .... off

SCF Procedure:
 Maximum # iterations   MaxIter         ....   125
 SCF integral mode      SCFMode         .... Direct
   Integral package                     .... LIBINT
 Reset frequency        DirectResetFreq ....    20
 Integral Threshold     Thresh          ....  2.500e-11 Eh
 Primitive CutOff       TCut            ....  2.500e-12 Eh

Convergence Tolerance:
 Convergence Check Mode ConvCheckMode   .... Total+1el-Energy
 Convergence forced     ConvForced      .... 1
 Energy Change          TolE            ....  1.000e-08 Eh
 1-El. energy change                    ....  1.000e-05 Eh
 DIIS Error             TolErr          ....  5.000e-07


Diagonalization of the overlap matrix:
Smallest eigenvalue                        ... 3.643e-03
Time for diagonalization                   ...    0.003 sec
Threshold for overlap eigenvalues          ... 1.000e-08
Number of eigenvalues below threshold      ... 0
Time for construction of square roots      ...    0.002 sec
Total time needed                          ...    0.005 sec

-------------------
DFT GRID GENERATION
-------------------

General Integration Accuracy     IntAcc      ...  4.340
Radial Grid Type                 RadialGrid  ... Gauss-Chebyshev
Angular Grid (max. acc.)         AngularGrid ... Lebedev-110
Angular grid pruning method      GridPruning ... 3 (G Style)
Weight generation scheme         WeightScheme... Becke
Basis function cutoff            BFCut       ...    1.0000e-11
Integration weight cutoff        WCut        ...    1.0000e-14
Grids for H and He will be reduced by one unit

# of grid points (after initial pruning)     ...   3590 (   0.0 sec)
# of grid points (after weights+screening)   ...   3590 (   0.0 sec)
Grid point division into batches done        ...    0.0 sec
Reduced shell lists constructed in    0.0 sec

Total number of grid points                  ...     3590
Total number of batches                      ...       57
Average number of points per batch           ...       62
Average number of grid points per atom       ...     3590
Average number of shells per batch           ...    15.75 (54.31%)
Average number of basis functions per batch  ...    48.75 (36.11%)
Average number of large shells per batch     ...    11.25 (71.43%)
Average number of large basis fcns per batch ...    30.75 (63.08%)
Maximum spatial batch extension              ...  25.56, 38.92, 38.92 au
Average spatial batch extension              ...   1.27,  1.82,  2.05 au

Time for grid setup =    0.028 sec

------------------------------
INITIAL GUESS: MODEL POTENTIAL
------------------------------
Loading Hartree-Fock densities                     ... done
  calling /sw/apps/orca/orca_4_2_0_linux_x86-64_openmpi314/orca 80_Hg_atom80.inp > 80_Hg_atom80.out in order to generate an atomic fitting density for atom 0 (Hg with ECP) on-the-fly... 
    atom 0 (Hg), assumed electronic state with S=1: 1s2 2s2 2p6 3s2 3p6 4s2 3d10 4p6 5s2 4d10 5p6 6s2 4f14 5d10           ... done
Calculating cut-offs                               ... done
Setting up the integral package                    ... done
Initializing the effective Hamiltonian             ... done
Starting the Coulomb interaction                   ... done (   0.0 sec)
Reading the grid                                   ... done
Mapping shells                                     ... done
Starting the XC term evaluation                    ... done (   0.0 sec)
Transforming the Hamiltonian                       ... done (   0.0 sec)
Diagonalizing the Hamiltonian                      ... done (   0.0 sec)
Back transforming the eigenvectors                 ... done (   0.0 sec)
Now organizing SCF variables                       ... done
                      ------------------
                      INITIAL GUESS DONE (  28.4 sec)
                      ------------------
--------------
SCF ITERATIONS
--------------
ITER       Energy         Delta-E        Max-DP      RMS-DP      [F,P]     Damp
               ***  Starting incremental Fock matrix formation  ***
  0   -152.3256266453   0.000000000000 0.03762785  0.00075293  0.6427928 0.8500
  1   -152.3642263672  -0.038599721937 0.03305346  0.00066655  0.5413876 0.8500
                               ***Turning on DIIS***
  2   -152.3941566305  -0.029930263237 0.02769753  0.00055608  0.4541510 0.8500
  3   -152.8433753003  -0.449218669830 0.02259429  0.00045040  0.3819137 0.8500
  4   -153.0070468792  -0.163671578923 0.01881441  0.00037826  0.3245783 0.8500
  5   -152.9706117189   0.036435160307 0.01598604  0.00032478  0.2774201 0.8500
  6   -152.9024052270   0.068206491899 0.01365307  0.00027983  0.2372188 0.8500
  7   -152.7988429387   0.103562288290 0.01172768  0.00024210  0.2026317 0.8500
  8   -152.7454433171   0.053399621586 0.00999936  0.00020801  0.1725508 0.8500
  9   -152.7179862481   0.027457069043 0.00848479  0.00017773  0.1467421 0.8500
 10   -152.6966283522   0.021357895941 0.00719406  0.00015159  0.1247965 0.8500
 11   -152.6760311231   0.020597229016 0.00610465  0.00012930  0.1061687 0.8500
 12   -152.6559478462   0.020083276973 0.00518569  0.00011035  0.0903399 0.8500
 13   -152.6381990628   0.017748783341 0.00440650  0.00009418  0.0768685 0.8500
 14   -152.6232941312   0.014904931649 0.00374401  0.00008035  0.0653992 0.8500
 15   -152.6108422817   0.012451849508 0.00318070  0.00006854  0.0556380 0.8500
 16   -152.6003183210   0.010523960630 0.00270208  0.00005845  0.0473334 0.8500
 17   -152.5913413186   0.008977002469 0.00229561  0.00004985  0.0402690 0.8500
 18   -152.5836799858   0.007661332759 0.00195040  0.00004252  0.0342594 0.8500
 19   -152.5771632326   0.006516753192 0.01104767  0.00024174  0.0291469 0.0000
               *** Restarting incremental Fock matrix formation ***
                                   *** Resetting DIIS ***
 20   -152.5408318000   0.036331432592 0.00032299  0.00000558  0.0004926 0.0000
 21   -152.5410622273  -0.000230427259 0.00024832  0.00000295  0.0003762 0.0000
 22   -152.5408556885   0.000206538834 0.00022976  0.00000249  0.0001446 0.0000
 23   -152.5409121878  -0.000056499369 0.00014647  0.00000137  0.0000622 0.0000
 24   -152.5408952708   0.000016916983 0.00009153  0.00000084  0.0000297 0.0000
 25   -152.5408665814   0.000028689470 0.00005192  0.00000049  0.0000139 0.0000
 26   -152.5408508082   0.000015773132 0.00002770  0.00000026  0.0000063 0.0000
 27   -152.5408409683   0.000009839903 0.00001340  0.00000013  0.0000028 0.0000
 28   -152.5408365665   0.000004401855 0.00000600  0.00000006  0.0000012 0.0000
                            ***DIIS convergence achieved***

               *****************************************************
               *                     SUCCESS                       *
               *           SCF CONVERGED AFTER  29 CYCLES          *
               *****************************************************


----------------
TOTAL SCF ENERGY
----------------

Total Energy       :         -152.54083431 Eh           -4150.84713 eV

Components:
Nuclear Repulsion  :            0.00000000 Eh               0.00000 eV
Electronic Energy  :         -152.54083431 Eh           -4150.84713 eV
One Electron Energy:         -270.06633013 Eh           -7348.87845 eV
Two Electron Energy:          117.52549582 Eh            3198.03133 eV

Virial components:
Potential Energy   :         -203.66958343 Eh           -5542.13112 eV
Kinetic Energy     :           51.12874912 Eh            1391.28400 eV
Virial Ratio       :            3.98346502


---------------
SCF CONVERGENCE
---------------

  Last Energy change         ...    2.2601e-06  Tolerance :   1.0000e-08
  Last MAX-Density change    ...    2.5727e-06  Tolerance :   1.0000e-07
  Last RMS-Density change    ...    2.4973e-08  Tolerance :   5.0000e-09
  Last DIIS Error            ...    5.1695e-07  Tolerance :   5.0000e-07

             **** THE GBW FILE WAS UPDATED (80_Hg.gbw) ****
             **** DENSITY FILE WAS UPDATED (80_Hg.scfp) ****
             **** ENERGY FILE WAS UPDATED (80_Hg.en.tmp) ****
             **** THE GBW FILE WAS UPDATED (80_Hg.gbw) ****
             **** DENSITY FILE WAS UPDATED (80_Hg.scfp) ****
----------------
ORBITAL ENERGIES
----------------

  NO   OCC          E(Eh)            E(eV) 
   0   2.0000      -5.067284      -137.8878 
   1   2.0000      -3.033911       -82.5569 
   2   2.0000      -3.033911       -82.5569 
   3   2.0000      -3.033911       -82.5569 
   4   2.0000      -0.602406       -16.3923 
   5   2.0000      -0.602406       -16.3923 
   6   2.0000      -0.602406       -16.3923 
   7   2.0000      -0.602406       -16.3923 
   8   2.0000      -0.602406       -16.3923 
   9   2.0000      -0.326622        -8.8878 
  10   0.0000       0.020469         0.5570 
  11   0.0000       0.020469         0.5570 
  12   0.0000       0.020469         0.5570 
  13   0.0000       0.041004         1.1158 
  14   0.0000       0.061049         1.6612 
  15   0.0000       0.061049         1.6612 
  16   0.0000       0.061049         1.6612 
  17   0.0000       0.118800         3.2327 
  18   0.0000       0.118800         3.2327 
  19   0.0000       0.118800         3.2327 
  20   0.0000       0.118800         3.2327 
  21   0.0000       0.118800         3.2327 
  22   0.0000       0.180759         4.9187 
  23   0.0000       0.180759         4.9187 
  24   0.0000       0.180759         4.9187 
  25   0.0000       0.369254        10.0479 
  26   0.0000       0.369254        10.0479 
  27   0.0000       0.369254        10.0479 
  28   0.0000       0.369254        10.0479 
  29   0.0000       0.369254        10.0479 
  30   0.0000       0.416218        11.3259 
  31   0.0000       0.561217        15.2715 
  32   0.0000       0.561217        15.2715 
  33   0.0000       0.561217        15.2715 
  34   0.0000       0.561217        15.2715 
  35   0.0000       0.561217        15.2715 
  36   0.0000       0.561217        15.2715 
  37   0.0000       0.561217        15.2715 
  38   0.0000       0.592627        16.1262 
  39   0.0000       0.592627        16.1262 
  40   0.0000       0.592627        16.1262 
  41   0.0000       1.096658        29.8416 
  42   0.0000       1.096658        29.8416 
  43   0.0000       1.096658        29.8416 
  44   0.0000       1.096658        29.8416 
  45   0.0000       1.096658        29.8416 
  46   0.0000       1.393520        37.9196 
  47   0.0000       1.393520        37.9196 
  48   0.0000       1.393520        37.9196 
  49   0.0000       1.393520        37.9196 
  50   0.0000       1.393520        37.9196 
  51   0.0000       1.393520        37.9196 
  52   0.0000       1.393520        37.9196 
  53   0.0000       1.659085        45.1460 
  54   0.0000       1.659085        45.1460 
  55   0.0000       1.659085        45.1460 
  56   0.0000       1.659085        45.1460 
  57   0.0000       1.659085        45.1460 
  58   0.0000       1.659085        45.1460 
  59   0.0000       1.659085        45.1460 
  60   0.0000       1.659085        45.1460 
  61   0.0000       1.659085        45.1460 
  62   0.0000       1.948280        53.0154 
  63   0.0000       1.948280        53.0154 
  64   0.0000       1.948280        53.0154 
  65   0.0000       1.952111        53.1196 
  66   0.0000       3.094760        84.2127 
  67   0.0000       3.094760        84.2127 
  68   0.0000       3.094760        84.2127 
  69   0.0000       3.094760        84.2127 
  70   0.0000       3.094760        84.2127 
  71   0.0000       3.094760        84.2127 
  72   0.0000       3.094760        84.2127 
  73   0.0000       3.209752        87.3418 
  74   0.0000       3.209752        87.3418 
  75   0.0000       3.209752        87.3418 
  76   0.0000       3.209752        87.3418 
  77   0.0000       3.209752        87.3418 
  78   0.0000       3.631111        98.8076 
  79   0.0000       3.631111        98.8076 
  80   0.0000       3.631111        98.8076 
  81   0.0000       3.631111        98.8076 
  82   0.0000       3.631111        98.8076 
  83   0.0000       3.631111        98.8076 
  84   0.0000       3.631111        98.8076 
  85   0.0000       3.631111        98.8076 
  86   0.0000       3.631111        98.8076 
  87   0.0000       3.631111        98.8076 
  88   0.0000       3.631111        98.8076 
  89   0.0000       3.931270       106.9753 
  90   0.0000       3.931270       106.9753 
  91   0.0000       3.931270       106.9753 
  92   0.0000       3.931270       106.9753 
  93   0.0000       3.931270       106.9753 
  94   0.0000       3.931270       106.9753 
  95   0.0000       3.931270       106.9753 
  96   0.0000       3.931270       106.9753 
  97   0.0000       3.931270       106.9753 
  98   0.0000       6.056974       164.8186 
  99   0.0000       6.056974       164.8186 
 100   0.0000       6.056974       164.8186 
 101   0.0000       6.177649       168.1024 
 102   0.0000       7.514460       204.4789 
 103   0.0000       7.514460       204.4789 
 104   0.0000       7.514460       204.4789 
 105   0.0000       7.514460       204.4789 
 106   0.0000       7.514460       204.4789 
 107   0.0000       7.514460       204.4789 
 108   0.0000       7.514460       204.4789 
 109   0.0000       8.334085       226.7820 
 110   0.0000       8.334085       226.7820 
 111   0.0000       8.334085       226.7820 
 112   0.0000       8.334085       226.7820 
 113   0.0000       8.334085       226.7820 
 114   0.0000       8.334085       226.7820 
 115   0.0000       8.334085       226.7820 
 116   0.0000       8.334085       226.7820 
 117   0.0000       8.334085       226.7820 
 118   0.0000       8.421670       229.1653 
 119   0.0000       8.421670       229.1653 
 120   0.0000       8.421670       229.1653 
 121   0.0000       8.421670       229.1653 
 122   0.0000       8.421670       229.1653 
 123   0.0000       8.421670       229.1653 
 124   0.0000       8.421670       229.1653 
 125   0.0000       8.421670       229.1653 
 126   0.0000       8.421670       229.1653 
 127   0.0000       8.421670       229.1653 
 128   0.0000       8.421670       229.1653 
 129   0.0000       8.497294       231.2231 
 130   0.0000       8.497294       231.2231 
 131   0.0000       8.497294       231.2231 
 132   0.0000       8.497294       231.2231 
 133   0.0000       8.497294       231.2231 
 134   0.0000       9.922549       270.0063 

                    ********************************
                    * MULLIKEN POPULATION ANALYSIS *
                    ********************************

-----------------------
MULLIKEN ATOMIC CHARGES
-----------------------
   0 Hg:    0.000000
Sum of atomic charges:    0.0000000

--------------------------------
MULLIKEN REDUCED ORBITAL CHARGES
--------------------------------
  0 Hgs       :     4.000000  s :     4.000000
      pz      :     2.000000  p :     6.000000
      px      :     2.000000
      py      :     2.000000
      dz2     :     2.000000  d :    10.000000
      dxz     :     2.000000
      dyz     :     2.000000
      dx2y2   :     2.000000
      dxy     :     2.000000
      f0      :     0.000000  f :     0.000000
      f+1     :     0.000000
      f-1     :     0.000000
      f+2     :     0.000000
      f-2     :     0.000000
      f+3     :     0.000000
      f-3     :     0.000000
      g0      :     0.000000  g :     0.000000
      g+1     :     0.000000
      g-1     :     0.000000
      g+2     :     0.000000
      g-2     :     0.000000
      g+3     :     0.000000
      g-3     :     0.000000
      g+4     :     0.000000
      g-4     :     0.000000
      h0      :     0.000000  h :     0.000000
      h+1     :     0.000000
      h-1     :     0.000000
      h+2     :     0.000000
      h-2     :     0.000000
      h+3     :     0.000000
      h-3     :     0.000000
      h+4     :     0.000000
      h-4     :     0.000000
      h+5     :     0.000000
      h-5     :     0.000000


                     *******************************
                     * LOEWDIN POPULATION ANALYSIS *
                     *******************************

----------------------
LOEWDIN ATOMIC CHARGES
----------------------
   0 Hg:   -0.000000

-------------------------------
LOEWDIN REDUCED ORBITAL CHARGES
-------------------------------
  0 Hgs       :     4.000000  s :     4.000000
      pz      :     2.000000  p :     6.000000
      px      :     2.000000
      py      :     2.000000
      dz2     :     2.000000  d :    10.000000
      dxz     :     2.000000
      dyz     :     2.000000
      dx2y2   :     2.000000
      dxy     :     2.000000
      f0      :     0.000000  f :     0.000000
      f+1     :     0.000000
      f-1     :     0.000000
      f+2     :     0.000000
      f-2     :     0.000000
      f+3     :     0.000000
      f-3     :     0.000000
      g0      :     0.000000  g :     0.000000
      g+1     :     0.000000
      g-1     :     0.000000
      g+2     :     0.000000
      g-2     :     0.000000
      g+3     :     0.000000
      g-3     :     0.000000
      g+4     :     0.000000
      g-4     :     0.000000
      h0      :     0.000000  h :     0.000000
      h+1     :     0.000000
      h-1     :     0.000000
      h+2     :     0.000000
      h-2     :     0.000000
      h+3     :     0.000000
      h-3     :     0.000000
      h+4     :     0.000000
      h-4     :     0.000000
      h+5     :     0.000000
      h-5     :     0.000000


                      *****************************
                      * MAYER POPULATION ANALYSIS *
                      *****************************

  NA   - Mulliken gross atomic population
  ZA   - Total nuclear charge
  QA   - Mulliken gross atomic charge
  VA   - Mayer's total valence
  BVA  - Mayer's bonded valence
  FA   - Mayer's free valence

  ATOM       NA         ZA         QA         VA         BVA        FA
  0 Hg    20.0000    20.0000    -0.0000    -0.0000     0.0000    -0.0000

  Mayer bond orders larger than 0.100000


--------------------------
ATOM BASIS FOR ELEMENT Hg
--------------------------
 NewGTO Hg
 S 60
    1       8630.809999999999         0.000009000087
    2       1283.260000000000         0.000066000637
    3        283.307000000000         0.000251002424
    4         34.663500000000         0.014919144063
    5         21.563800000000        -0.136212315297
    6         13.409100000000         0.461370455096
    7          7.820270000000        -0.369649569419
    8          4.885340000000        -0.629388077512
    9          1.767140000000         0.676416531629
   10          0.964921000000         0.627841062574
   11          0.491862000000         0.140346355216
   12          0.211477000000         0.004301041532
   13          0.091381000000         0.000237002289
   14       1283.260000000000        -0.000000000734
   15        283.307000000000        -0.000000002849
   16         34.663500000000        -0.000000151326
   17         21.563800000000         0.000001422412
   18         13.409100000000        -0.000005069892
   19          7.820270000000         0.000004835149
   20          4.885340000000         0.000006370233
   21          1.767140000000        -0.000009790224
   22          0.964921000000        -0.000011147547
   23          0.491862000000        -0.000002848642
   24          0.211477000000         0.000011708029
   25          0.091381000000         0.000018115682
   26        283.307000000000         0.000000002211
   27         34.663500000000         0.000000094263
   28         21.563800000000        -0.000000943734
   29         13.409100000000         0.000003491786
   30          7.820270000000        -0.000003259801
   31          4.885340000000        -0.000005364288
   32          1.767140000000         0.000011365727
   33          0.964921000000         0.000010185613
   34          0.491862000000        -0.000017123950
   35          0.211477000000        -0.000007625267
   36          0.091381000000         0.000008812467
   37        283.307000000000        -0.000000002063
   38         34.663500000000        -0.000000035013
   39         21.563800000000         0.000000523478
   40         13.409100000000        -0.000002185885
   41          7.820270000000         0.000001439010
   42          4.885340000000         0.000006384649
   43          1.767140000000        -0.000022414040
   44          0.964921000000         0.000015545511
   45          0.491862000000         0.000010815651
   46          0.211477000000        -0.000017328627
   47          0.091381000000         0.000004841002
   48       1283.260000000000         0.000000001214
   49        283.307000000000        -0.000000003692
   50         34.663500000000         0.000000451963
   51         21.563800000000        -0.000002432626
   52         13.409100000000         0.000006437058
   53          7.820270000000        -0.000009873668
   54          4.885340000000         0.000003901717
   55          1.767140000000         0.000016352757
   56          0.964921000000        -0.000031126438
   57          0.491862000000         0.000024919845
   58          0.211477000000        -0.000010311520
   59          0.039661000000        -0.000068677090
   60          0.017200000000         0.000017394398
 S 63
    1       8630.809999999999        -0.000000000338
    2       1283.260000000000        -0.000000002481
    3        283.307000000000        -0.000000009437
    4         34.663500000000        -0.000000560892
    5         21.563800000000         0.000005120961
    6         13.409100000000        -0.000017345421
    7          7.820270000000         0.000013897135
    8          4.885340000000         0.000023662116
    9          1.767140000000        -0.000025430171
   10          0.964921000000        -0.000023603955
   11          0.491862000000        -0.000005276382
   12       8630.809999999999         0.000004000143
   13       1283.260000000000         0.000025000891
   14        283.307000000000         0.000097003459
   15         34.663500000000         0.005152183703
   16         21.563800000000        -0.048428726743
   17         13.409100000000         0.172614154616
   18          7.820270000000        -0.164621869648
   19          4.885340000000        -0.216886733169
   20          1.767140000000         0.333326884882
   21          0.964921000000         0.379539532610
   22          0.491862000000         0.096987458120
   23          0.211477000000        -0.398622213009
   24          0.091381000000        -0.616782991605
   25       1283.260000000000         0.000000001066
   26        283.307000000000         0.000000004632
   27         34.663500000000         0.000000197499
   28         21.563800000000        -0.000001977299
   29         13.409100000000         0.000007315943
   30          7.820270000000        -0.000006829889
   31          4.885340000000        -0.000011239181
   32          1.767140000000         0.000023813314
   33          0.964921000000         0.000021340755
   34          0.491862000000        -0.000035877864
   35          0.211477000000        -0.000015976354
   36          0.091381000000         0.000018463759
   37       8630.809999999999        -0.000000000302
   38       1283.260000000000        -0.000000001511
   39        283.307000000000        -0.000000009691
   40         34.663500000000        -0.000000164490
   41         21.563800000000         0.000002459309
   42         13.409100000000        -0.000010269332
   43          7.820270000000         0.000006760498
   44          4.885340000000         0.000029995214
   45          1.767140000000        -0.000105301621
   46          0.964921000000         0.000073033130
   47          0.491862000000         0.000050812150
   48          0.211477000000        -0.000081410246
   49          0.091381000000         0.000022743128
   50       1283.260000000000         0.000000004399
   51        283.307000000000        -0.000000013378
   52         34.663500000000         0.000001637731
   53         21.563800000000        -0.000008814847
   54         13.409100000000         0.000023325283
   55          7.820270000000        -0.000035778161
   56          4.885340000000         0.000014138236
   57          1.767140000000         0.000059255744
   58          0.964921000000        -0.000112789560
   59          0.491862000000         0.000090299390
   60          0.211477000000        -0.000037364756
   61          0.091381000000         0.000002798857
   62          0.039661000000        -0.223008183227
   63          0.017200000000        -0.000524282935
 S 66
    1       8630.809999999999         0.000000025892
    2       1283.260000000000         0.000000189872
    3        283.307000000000         0.000000722090
    4         34.663500000000         0.000042919785
    5         21.563800000000        -0.000391859159
    6         13.409100000000         0.001327282618
    7          7.820270000000        -0.001063417570
    8          4.885340000000        -0.001810640118
    9          1.767140000000         0.001945932807
   10          0.964921000000         0.001806189625
   11          0.491862000000         0.000403752073
   12          0.211477000000         0.000012373349
   13       8630.809999999999         0.000001235274
   14       1283.260000000000         0.000007720462
   15        283.307000000000         0.000029955394
   16         34.663500000000         0.001591032872
   17         21.563800000000        -0.014955153126
   18         13.409100000000         0.053304542317
   19          7.820270000000        -0.050836464927
   20          4.885340000000        -0.066976245789
   21          1.767140000000         0.102933835757
   22          0.964921000000         0.117204647105
   23          0.491862000000         0.029950452656
   24          0.211477000000        -0.123097521574
   25          0.091381000000        -0.190467202123
   26       8630.809999999999        -0.000000396837
   27       1283.260000000000        -0.000002728255
   28        283.307000000000        -0.000011855508
   29         34.663500000000        -0.000505471230
   30         21.563800000000         0.005060615250
   31         13.409100000000        -0.018724112728
   32          7.820270000000         0.017480127694
   33          4.885340000000         0.028765082928
   34          1.767140000000        -0.060946784295
   35          0.964921000000        -0.054618621810
   36          0.491862000000         0.091824280601
   37          0.211477000000         0.040889199771
   38          0.091381000000        -0.047255359407
   39       8630.809999999999         0.000000417844
   40       1283.260000000000         0.000002089221
   41        283.307000000000         0.000013403157
   42         34.663500000000         0.000227500116
   43         21.563800000000        -0.003401380649
   44         13.409100000000         0.014203136281
   45          7.820270000000        -0.009350196897
   46          4.885340000000        -0.041485279279
   47          1.767140000000         0.145638804947
   48          0.964921000000        -0.101009440642
   49          0.491862000000        -0.070276418523
   50          0.211477000000         0.112595522046
   51          0.091381000000        -0.031455185526
   52       8630.809999999999         0.000000100294
   53       1283.260000000000        -0.000006229369
   54        283.307000000000         0.000018944413
   55         34.663500000000        -0.002319119365
   56         21.563800000000         0.012482317954
   57         13.409100000000        -0.033029907873
   58          7.820270000000         0.050663880447
   59          4.885340000000        -0.020020534052
   60          1.767140000000        -0.083909453751
   61          0.964921000000         0.159716337330
   62          0.491862000000        -0.127868995458
   63          0.211477000000         0.052910587579
   64          0.091381000000        -0.003963338433
   65          0.039661000000        -1.172788769646
   66          0.017200000000         1.885989248068
 S 67
    1       8630.809999999999         0.000000712815
    2       1283.260000000000         0.000005227312
    3        283.307000000000         0.000019879626
    4         34.663500000000         0.001181610100
    5         21.563800000000        -0.010788142186
    6         13.409100000000         0.036540969581
    7          7.820270000000        -0.029276590043
    8          4.885340000000        -0.049848121702
    9          1.767140000000         0.053572819052
   10          0.964921000000         0.049725596678
   11          0.491862000000         0.011115561996
   12          0.211477000000         0.000340646494
   13          0.091381000000         0.000018770802
   14       8630.809999999999        -0.000000388503
   15       1283.260000000000        -0.000002428145
   16        283.307000000000        -0.000009421203
   17         34.663500000000        -0.000500392126
   18         21.563800000000         0.004703511162
   19         13.409100000000        -0.016764690247
   20          7.820270000000         0.015988460846
   21          4.885340000000         0.021064546580
   22          1.767140000000        -0.032373486337
   23          0.964921000000        -0.036861766723
   24          0.491862000000        -0.009419648677
   25          0.211477000000         0.038715121257
   26          0.091381000000         0.059903406107
   27       8630.809999999999        -0.000007220815
   28       1283.260000000000        -0.000049643102
   29        283.307000000000        -0.000215721842
   30         34.663500000000        -0.009197512855
   31         21.563800000000         0.092082538173
   32         13.409100000000        -0.340702412656
   33          7.820270000000         0.318066963452
   34          4.885340000000         0.523407079209
   35          1.767140000000        -1.108982666066
   36          0.964921000000        -0.993835942810
   37          0.491862000000         1.670827045073
   38          0.211477000000         0.744016510468
   39          0.091381000000        -0.859854626742
   40       8630.809999999999         0.000007147680
   41       1283.260000000000         0.000035738398
   42        283.307000000000         0.000229275567
   43         34.663500000000         0.003891636597
   44         21.563800000000        -0.058184310713
   45         13.409100000000         0.242960074056
   46          7.820270000000        -0.159945274454
   47          4.885340000000        -0.709650764927
   48          1.767140000000         2.491309956923
   49          0.964921000000        -1.727876202413
   50          0.491862000000        -1.202154475713
   51          0.211477000000         1.926068710066
   52          0.091381000000        -0.538075116225
   53       8630.809999999999         0.000001610705
   54       1283.260000000000        -0.000100042699
   55        283.307000000000         0.000304244345
   56         34.663500000000        -0.037244697903
   57         21.563800000000         0.200464093509
   58         13.409100000000        -0.530455205904
   59          7.820270000000         0.813654074908
   60          4.885340000000        -0.321526676776
   61          1.767140000000        -1.347572834231
   62          0.964921000000         2.565019646152
   63          0.491862000000        -2.053556267112
   64          0.211477000000         0.849735843543
   65          0.091381000000        -0.063650601524
   66          0.039661000000        -1.643221297153
   67          0.017200000000         1.115362715875
 S 67
    1       8630.809999999999         0.000002576972
    2       1283.260000000000         0.000018897792
    3        283.307000000000         0.000071868876
    4         34.663500000000         0.004271760015
    5         21.563800000000        -0.039001320695
    6         13.409100000000         0.132103011678
    7          7.820270000000        -0.105840807200
    8          4.885340000000        -0.180211063875
    9          1.767140000000         0.193676599769
   10          0.964921000000         0.179768111080
   11          0.491862000000         0.040185009675
   12          0.211477000000         0.001231506121
   13          0.091381000000         0.000067860254
   14       8630.809999999999        -0.000003112619
   15       1283.260000000000        -0.000019453872
   16        283.307000000000        -0.000075481023
   17         34.663500000000        -0.004009053904
   18         21.563800000000         0.037683706022
   19         13.409100000000        -0.134315756272
   20          7.820270000000         0.128096742529
   21          4.885340000000         0.168765450643
   22          1.767140000000        -0.259370691404
   23          0.964921000000        -0.295330006228
   24          0.491862000000        -0.075468572177
   25          0.211477000000         0.310178757509
   26          0.091381000000         0.479935577460
   27       8630.809999999999         0.000005806496
   28       1283.260000000000         0.000039919659
   29        283.307000000000         0.000173469063
   30         34.663500000000         0.007396024063
   31         21.563800000000        -0.074046612256
   32         13.409100000000         0.273970070167
   33          7.820270000000        -0.255768157365
   34          4.885340000000        -0.420888930898
   35          1.767140000000         0.891769613453
   36          0.964921000000         0.799176327705
   37          0.491862000000        -1.343567247464
   38          0.211477000000        -0.598288265674
   39          0.091381000000         0.691437523397
   40       8630.809999999999         0.000008173274
   41       1283.260000000000         0.000040866368
   42        283.307000000000         0.000262173466
   43         34.663500000000         0.004450033072
   44         21.563800000000        -0.066532961261
   45         13.409100000000         0.277821512312
   46          7.820270000000        -0.182895227574
   47          4.885340000000        -0.811475916327
   48          1.767140000000         2.848778765647
   49          0.964921000000        -1.975802738403
   50          0.491862000000        -1.374647154571
   51          0.211477000000         2.202433152553
   52          0.091381000000        -0.615281515319
   53       8630.809999999999         0.000003616776
   54       1283.260000000000        -0.000224641980
   55        283.307000000000         0.000683168812
   56         34.663500000000        -0.083631516600
   57         21.563800000000         0.450134303886
   58         13.409100000000        -1.191116477132
   59          7.820270000000         1.827028492741
   60          4.885340000000        -0.721975613178
   61          1.767140000000        -3.025922243997
   62          0.964921000000         5.759651579804
   63          0.491862000000        -4.611180509214
   64          0.211477000000         1.908048697024
   65          0.091381000000        -0.142924943353
   66          0.039661000000        -1.801440891869
   67          0.017200000000         0.843013934258
 S 67
    1       8630.809999999999        -0.000012348094
    2       1283.260000000000        -0.000090552686
    3        283.307000000000        -0.000344374610
    4         34.663500000000        -0.020469023141
    5         21.563800000000         0.186882908439
    6         13.409100000000        -0.632998949680
    7          7.820270000000         0.507158155896
    8          4.885340000000         0.863518648854
    9          1.767140000000        -0.928041553892
   10          0.964921000000        -0.861396148767
   11          0.491862000000        -0.192554799428
   12          0.211477000000        -0.005901016725
   13          0.091381000000        -0.000325166465
   14       8630.809999999999         0.000016637179
   15       1283.260000000000         0.000103982367
   16        283.307000000000         0.000403451585
   17         34.663500000000         0.021428686225
   18         21.563800000000        -0.201422163788
   19         13.409100000000         0.717927537264
   20          7.820270000000        -0.684686454128
   21          4.885340000000        -0.902063672334
   22          1.767140000000         1.386355308462
   23          0.964921000000         1.578560475224
   24          0.491862000000         0.403385035885
   25          0.211477000000        -1.657928136434
   26          0.091381000000        -2.565290750198
   27       8630.809999999999        -0.000011045204
   28       1283.260000000000        -0.000075935776
   29        283.307000000000        -0.000329975464
   30         34.663500000000        -0.014068828368
   31         21.563800000000         0.140852581091
   32         13.409100000000        -0.521149993891
   33          7.820270000000         0.486526041209
   34          4.885340000000         0.800621263600
   35          1.767140000000        -1.696337590158
   36          0.964921000000        -1.520205247408
   37          0.491862000000         2.555753854354
   38          0.211477000000         1.138072950123
   39          0.091381000000        -1.315262871139
   40       8630.809999999999         0.000016934461
   41       1283.260000000000         0.000084672307
   42        283.307000000000         0.000543205417
   43         34.663500000000         0.009220162937
   44         21.563800000000        -0.137851726851
   45         13.409100000000         0.575627095238
   46          7.820270000000        -0.378946351941
   47          4.885340000000        -1.681322373795
   48          1.767140000000         5.902473974029
   49          0.964921000000        -4.093727593687
   50          0.491862000000        -2.848174505922
   51          0.211477000000         4.563290248877
   52          0.091381000000        -1.274821047764
   53       8630.809999999999        -0.000002042376
   54       1283.260000000000         0.000126854234
   55        283.307000000000        -0.000385782107
   56         34.663500000000         0.047226310868
   57         21.563800000000        -0.254188653176
   58         13.409100000000         0.672617684286
   59          7.820270000000        -1.031714108153
   60          4.885340000000         0.407696119036
   61          1.767140000000         1.708723581329
   62          0.964921000000        -3.252447247836
   63          0.491862000000         2.603911217313
   64          0.211477000000        -1.077465823650
   65          0.091381000000         0.080709020713
   66          0.039661000000         4.114664470339
   67          0.017200000000        -1.512812786381
 S 67
    1       8630.809999999999        -0.000022927570
    2       1283.260000000000        -0.000168135517
    3        283.307000000000        -0.000639424466
    4         34.663500000000        -0.038006269355
    5         21.563800000000         0.346998589394
    6         13.409100000000        -1.175333498720
    7          7.820270000000         0.941676080309
    8          4.885340000000         1.603355574731
    9          1.767140000000        -1.723159773086
   10          0.964921000000        -1.599414580114
   11          0.491862000000        -0.357529986774
   12          0.211477000000        -0.010956831188
   13          0.091381000000        -0.000603759356
   14       8630.809999999999         0.000031370508
   15       1283.260000000000         0.000196065677
   16        283.307000000000         0.000760734825
   17         34.663500000000         0.040405214621
   18         21.563800000000        -0.379794900711
   19         13.409100000000         1.353700171845
   20          7.820270000000        -1.291021896369
   21          4.885340000000        -1.700901114488
   22          1.767140000000         2.614065239029
   23          0.964921000000         2.976480878172
   24          0.491862000000         0.760609342940
   25          0.211477000000        -3.126133887761
   26          0.091381000000        -4.837026509125
   27       8630.809999999999        -0.000023538247
   28       1283.260000000000        -0.000161825445
   29        283.307000000000        -0.000703205117
   30         34.663500000000        -0.029981841594
   31         21.563800000000         0.300168547359
   32         13.409100000000        -1.110613915701
   33          7.820270000000         1.036827397202
   34          4.885340000000         1.706190400045
   35          1.767140000000        -3.615036276388
   36          0.964921000000        -3.239683627140
   37          0.491862000000         5.446523705313
   38          0.211477000000         2.425327967583
   39          0.091381000000        -2.802934403943
   40       8630.809999999999         0.000020107070
   41       1283.260000000000         0.000100535349
   42        283.307000000000         0.000644972933
   43         34.663500000000         0.010947526188
   44         21.563800000000        -0.163677735428
   45         13.409100000000         0.683468691703
   46          7.820270000000        -0.449940542288
   47          4.885340000000        -1.996311870401
   48          1.767140000000         7.008280531288
   49          0.964921000000        -4.860672240398
   50          0.491862000000        -3.381769411842
   51          0.211477000000         5.418205713492
   52          0.091381000000        -1.513654032060
   53       8630.809999999999         0.000013548134
   54       1283.260000000000        -0.000841489655
   55        283.307000000000         0.002559091975
   56         34.663500000000        -0.313276512885
   57         21.563800000000         1.686164627701
   58         13.409100000000        -4.461820514168
   59          7.820270000000         6.843892570867
   60          4.885340000000        -2.704458937016
   61          1.767140000000       -11.334846089152
   62          0.964921000000        21.575162519042
   63          0.491862000000       -17.273088052718
   64          0.211477000000         7.147387331012
   65          0.091381000000        -0.535384621472
   66          0.039661000000         6.150962232437
   67          0.017200000000        -2.060499556782
 P 49
    1         38.293800000000        -0.002640990326
    2         23.927100000000         0.021284922032
    3         14.955500000000        -0.077881714716
    4          6.315360000000         0.299627902449
    5          1.897750000000        -0.479614243150
    6          1.021490000000        -0.470463276671
    7          0.551879000000        -0.198509272851
    8          0.292697000000        -0.037083864160
    9          0.130492000000        -0.003867985831
   10          0.058613000000         0.000008999967
   11         38.293800000000        -0.000000024582
   12         23.927100000000         0.000000344898
   13         14.955500000000        -0.000001594708
   14          6.315360000000         0.000007028981
   15          1.897750000000        -0.000013951934
   16          1.021490000000        -0.000013398210
   17          0.551879000000        -0.000006164377
   18          0.292697000000         0.000014246840
   19          0.130492000000         0.000035912998
   20          0.058613000000         0.000036409942
   21         38.293800000000         0.000000062786
   22         23.927100000000        -0.000000586737
   23         14.955500000000         0.000002382665
   24          6.315360000000        -0.000010164785
   25          1.897750000000         0.000022077463
   26          1.021490000000         0.000021135031
   27          0.551879000000        -0.000004904788
   28          0.292697000000        -0.000036261770
   29          0.130492000000        -0.000022730390
   30         38.293800000000        -0.000000080632
   31         23.927100000000         0.000000496798
   32         14.955500000000        -0.000001588740
   33          6.315360000000         0.000006389543
   34          1.897750000000        -0.000020675718
   35          1.021490000000        -0.000003622753
   36          0.551879000000         0.000028371149
   37          0.130492000000        -0.000014954735
   38          0.058613000000        -0.000002611460
   39         38.293800000000        -0.000000039755
   40         23.927100000000         0.000000054898
   41         14.955500000000         0.000000346979
   42          6.315360000000        -0.000002788493
   43          1.897750000000         0.000016559654
   44          1.021490000000        -0.000020659812
   45          0.551879000000         0.000002305628
   46          0.292697000000         0.000010459157
   47          0.130492000000        -0.000004984747
   48          0.026097000000        -0.000107465652
   49          0.011600000000         0.000030221226
 P 51
    1         38.293800000000         0.000002198454
    2         23.927100000000        -0.000017718327
    3         14.955500000000         0.000064831514
    4          6.315360000000        -0.000249420941
    5          1.897750000000         0.000399247983
    6          1.021490000000         0.000391630393
    7          0.551879000000         0.000165246191
    8          0.292697000000         0.000030869930
    9          0.130492000000         0.000003219849
   10         38.293800000000        -0.000169878339
   11         23.927100000000         0.002383444577
   12         14.955500000000        -0.011020356772
   13          6.315360000000         0.048574337374
   14          1.897750000000        -0.096415967163
   15          1.021490000000        -0.092589414674
   16          0.551879000000        -0.042599424474
   17          0.292697000000         0.098453935252
   18          0.130492000000         0.248179669992
   19          0.058613000000         0.251613843556
   20         38.293800000000         0.000297454296
   21         23.927100000000        -0.002779738556
   22         14.955500000000         0.011288160152
   23          6.315360000000        -0.048156877801
   24          1.897750000000         0.104594606742
   25          1.021490000000         0.100129720483
   26          0.551879000000        -0.023237016980
   27          0.292697000000        -0.171794447144
   28          0.130492000000        -0.107687926634
   29          0.058613000000        -0.008072991512
   30         38.293800000000        -0.000309205724
   31         23.927100000000         0.001905119264
   32         14.955500000000        -0.006092490485
   33          6.315360000000         0.024502584471
   34          1.897750000000        -0.079287133552
   35          1.021490000000        -0.013892512863
   36          0.551879000000         0.108797531256
   37          0.292697000000         0.000151001184
   38          0.130492000000        -0.057348337799
   39          0.058613000000        -0.010014414686
   40         38.293800000000        -0.000122616925
   41         23.927100000000         0.000169322708
   42         14.955500000000         0.001070195700
   43          6.315360000000        -0.008600603757
   44          1.897750000000         0.051075272528
   45          1.021490000000        -0.063721469665
   46          0.551879000000         0.007111293249
   47          0.292697000000         0.032259386353
   48          0.130492000000        -0.015374553948
   49          0.058613000000        -0.005511803328
   50          0.026097000000        -0.469504953672
   51          0.011600000000         1.250851340611
 P 51
    1         38.293800000000        -0.000236372821
    2         23.927100000000         0.001905034268
    3         14.955500000000        -0.006970536945
    4          6.315360000000         0.026817172317
    5          1.897750000000        -0.042926235171
    6          1.021490000000        -0.042107209163
    7          0.551879000000        -0.017766894649
    8          0.292697000000        -0.003319064637
    9          0.130492000000        -0.000346190864
   10         38.293800000000         0.000164585757
   11         23.927100000000        -0.002309188046
   12         14.955500000000         0.010677016100
   13          6.315360000000        -0.047060997471
   14          1.897750000000         0.093412114960
   15          1.021490000000         0.089704779219
   16          0.551879000000         0.041272233773
   17          0.292697000000        -0.095386589884
   18          0.130492000000        -0.240447599564
   19          0.058613000000        -0.243774780997
   20         38.293800000000        -0.000604233224
   21         23.927100000000         0.005646616674
   22         14.955500000000        -0.022930182840
   23          6.315360000000         0.097823382921
   24          1.897750000000        -0.212468057192
   25          1.021490000000        -0.203398318908
   26          0.551879000000         0.047202470629
   27          0.292697000000         0.348974326288
   28          0.130492000000         0.218751666722
   29          0.058613000000         0.016399056086
   30         38.293800000000         0.000666350188
   31         23.927100000000        -0.004105605044
   32         14.955500000000         0.013129550546
   33          6.315360000000        -0.052804008820
   34          1.897750000000         0.170866812205
   35          1.021490000000         0.029938897776
   36          0.551879000000        -0.234462850511
   37          0.292697000000        -0.000325413340
   38          0.130492000000         0.123587866353
   39          0.058613000000         0.021581447542
   40         38.293800000000         0.000286405393
   41         23.927100000000        -0.000395499535
   42         14.955500000000        -0.002499735017
   43          6.315360000000         0.020089064432
   44          1.897750000000        -0.119300280507
   45          1.021490000000         0.148838935735
   46          0.551879000000        -0.016610372054
   47          0.292697000000        -0.075350627622
   48          0.130492000000         0.035911479428
   49          0.058613000000         0.012874325493
   50          0.026097000000         1.811859703417
   51          0.011600000000        -1.369368063683
 P 51
    1         38.293800000000        -0.000446034025
    2         23.927100000000         0.003594787666
    3         14.955500000000        -0.013153359313
    4          6.315360000000         0.050603835257
    5          1.897750000000        -0.081001535401
    6          1.021490000000        -0.079456038482
    7          0.551879000000        -0.033526018299
    8          0.292697000000        -0.006263054066
    9          0.130492000000        -0.000653259981
   10         38.293800000000         0.001387056749
   11         23.927100000000        -0.019460826508
   12         14.955500000000         0.089981220143
   13          6.315360000000        -0.396609495937
   14          1.897750000000         0.787236433977
   15          1.021490000000         0.755992630440
   16          0.551879000000         0.347824328261
   17          0.292697000000        -0.803876444740
   18          0.130492000000        -2.026387165310
   19          0.058613000000        -2.054427194674
   20         38.293800000000        -0.002720488390
   21         23.927100000000         0.025423221542
   22         14.955500000000        -0.103240427328
   23          6.315360000000         0.440438173815
   24          1.897750000000        -0.956612215911
   25          1.021490000000        -0.915776795510
   26          0.551879000000         0.212523522932
   27          0.292697000000         1.571215494594
   28          0.130492000000         0.984903422203
   29          0.058613000000         0.073834804106
   30         38.293800000000         0.002735674247
   31         23.927100000000        -0.016855398542
   32         14.955500000000         0.053902848606
   33          6.315360000000        -0.216784762214
   34          1.897750000000         0.701486915148
   35          1.021490000000         0.122912956430
   36          0.551879000000        -0.962577926041
   37          0.292697000000        -0.001335971551
   38          0.130492000000         0.507385079634
   39          0.058613000000         0.088601776232
   40         38.293800000000         0.001070822322
   41         23.927100000000        -0.001478707245
   42         14.955500000000        -0.009346095143
   43          6.315360000000         0.075109684128
   44          1.897750000000        -0.446043986548
   45          1.021490000000         0.556484125321
   46          0.551879000000        -0.062103429576
   47          0.292697000000        -0.281723514734
   48          0.130492000000         0.134267072792
   49          0.058613000000         0.048134970366
   50          0.026097000000         2.706612014160
   51          0.011600000000        -1.135004150372
 P 51
    1         38.293800000000        -0.000392369276
    2         23.927100000000         0.003162279456
    3         14.955500000000        -0.011570808015
    4          6.315360000000         0.044515416076
    5          1.897750000000        -0.071255805669
    6          1.021490000000        -0.069896255784
    7          0.551879000000        -0.029492322990
    8          0.292697000000        -0.005509512396
    9          0.130492000000        -0.000574662764
   10         38.293800000000         0.002385562434
   11         23.927100000000        -0.033470163841
   12         14.955500000000         0.154756334706
   13          6.315360000000        -0.682118244266
   14          1.897750000000         1.353947244500
   15          1.021490000000         1.300211848269
   16          0.551879000000         0.598213917056
   17          0.292697000000        -1.382565961506
   18          0.130492000000        -3.485130007133
   19          0.058613000000        -3.533355316396
   20         38.293800000000        -0.007307694198
   21         23.927100000000         0.068291094059
   22         14.955500000000        -0.277321334810
   23          6.315360000000         1.183091792860
   24          1.897750000000        -2.569623000187
   25          1.021490000000        -2.459932120496
   26          0.551879000000         0.570874303634
   27          0.292697000000         4.220551866268
   28          0.130492000000         2.645617988731
   29          0.058613000000         0.198332832979
   30         38.293800000000         0.008285074978
   31         23.927100000000        -0.051047101418
   32         14.955500000000         0.163246462108
   33          6.315360000000        -0.656539429469
   34          1.897750000000         2.124475052338
   35          1.021490000000         0.372245731041
   36          0.551879000000        -2.915197341030
   37          0.292697000000        -0.004046031608
   38          0.130492000000         1.536631575492
   39          0.058613000000         0.268333249177
   40         38.293800000000         0.003316602536
   41         23.927100000000        -0.004579923390
   42         14.955500000000        -0.028947176595
   43          6.315360000000         0.232633335874
   44          1.897750000000        -1.381508945767
   45          1.021490000000         1.723569469589
   46          0.551879000000        -0.192349737042
   47          0.292697000000        -0.872567656051
   48          0.130492000000         0.415858452928
   49          0.058613000000         0.149085951544
   50          0.026097000000         2.117051034698
   51          0.011600000000        -0.720826262238
 P 51
    1         38.293800000000         0.000287714040
    2         23.927100000000        -0.002318816110
    3         14.955500000000         0.008484568300
    4          6.315360000000        -0.032641980370
    5          1.897750000000         0.052250002693
    6          1.021490000000         0.051253080625
    7          0.551879000000         0.021625942493
    8          0.292697000000         0.004039980109
    9          0.130492000000         0.000421385046
   10         38.293800000000        -0.002275295298
   11         23.927100000000         0.031923082511
   12         14.955500000000        -0.147603079129
   13          6.315360000000         0.650588897539
   14          1.897750000000        -1.291364147682
   15          1.021490000000        -1.240112546531
   16          0.551879000000        -0.570562854845
   17          0.292697000000         1.318660030328
   18          0.130492000000         3.324037889589
   19          0.058613000000         3.370034094867
   20         38.293800000000         0.006301310418
   21         23.927100000000        -0.058886342368
   22         14.955500000000         0.239129849839
   23          6.315360000000        -1.020161550018
   24          1.897750000000         2.215745725440
   25          1.021490000000         2.121160995393
   26          0.551879000000        -0.492255983835
   27          0.292697000000        -3.639315866959
   28          0.130492000000        -2.281275015539
   29          0.058613000000        -0.171019300052
   30         38.293800000000        -0.013629034126
   31         23.927100000000         0.083973010393
   32         14.955500000000        -0.268542120483
   33          6.315360000000         1.080014159534
   34          1.897750000000        -3.494783458715
   35          1.021490000000        -0.612348081936
   36          0.551879000000         4.795529811050
   37          0.292697000000         0.006655763890
   38          0.130492000000        -2.527774852550
   39          0.058613000000        -0.441410973321
   40         38.293800000000        -0.007071837877
   41         23.927100000000         0.009765558385
   42         14.955500000000         0.061722723073
   43          6.315360000000        -0.496033280501
   44          1.897750000000         2.945727497890
   45          1.021490000000        -3.675087299759
   46          0.551879000000         0.410138429687
   47          0.292697000000         1.860535573131
   48          0.130492000000        -0.886715705876
   49          0.058613000000        -0.317889064966
   50          0.026097000000        -1.450923616165
   51          0.011600000000         0.476123875164
 P 51
    1         38.293800000000         0.000205947996
    2         23.927100000000        -0.001659826998
    3         14.955500000000         0.006073321412
    4          6.315360000000        -0.023365388940
    5          1.897750000000         0.037400967135
    6          1.021490000000         0.036687362397
    7          0.551879000000         0.015480021488
    8          0.292697000000         0.002891849866
    9          0.130492000000         0.000301630765
   10         38.293800000000        -0.001811785946
   11         23.927100000000         0.025419905847
   12         14.955500000000        -0.117534275488
   13          6.315360000000         0.518054875034
   14          1.897750000000        -1.028295279373
   15          1.021490000000        -0.987484343419
   16          0.551879000000        -0.454331252169
   17          0.292697000000         1.050030610435
   18          0.130492000000         2.646885060621
   19          0.058613000000         2.683511198059
   20         38.293800000000         0.005334589945
   21         23.927100000000        -0.049852248030
   22         14.955500000000         0.202443556623
   23          6.315360000000        -0.863652666760
   24          1.897750000000         1.875815359446
   25          1.021490000000         1.795741419844
   26          0.551879000000        -0.416736146505
   27          0.292697000000        -3.080987372664
   28          0.130492000000        -1.931291422176
   29          0.058613000000        -0.144782240180
   30         38.293800000000        -0.006933456498
   31         23.927100000000         0.042719330599
   32         14.955500000000        -0.136614604752
   33          6.315360000000         0.549432272548
   34          1.897750000000        -1.777890410818
   35          1.021490000000        -0.311517951203
   36          0.551879000000         2.439615091058
   37          0.292697000000         0.003385966237
   38          0.130492000000        -1.285947104920
   39          0.058613000000        -0.224557643118
   40         38.293800000000        -0.012540703478
   41         23.927100000000         0.017317559330
   42         14.955500000000         0.109454767116
   43          6.315360000000        -0.879630782565
   44          1.897750000000         5.223747450118
   45          1.021490000000        -6.517143192923
   46          0.551879000000         0.727310852008
   47          0.292697000000         3.299343867672
   48          0.130492000000        -1.572439715101
   49          0.058613000000        -0.563722270213
   50          0.026097000000        -0.993899797819
   51          0.011600000000         0.324593888267
 D 38
    1         70.149000000000        -0.000087001466
    2         21.695500000000         0.000617010399
    3         13.498600000000        -0.009588161600
    4          6.704780000000         0.067272133813
    5          2.192000000000        -0.203000421394
    6          1.217150000000        -0.333128614590
    7          0.660971000000        -0.326817508222
    8          0.348882000000        -0.228319848131
    9          0.177063000000        -0.104418759887
   10         70.149000000000         0.000000005195
   11         21.695500000000        -0.000000047980
   12         13.498600000000         0.000000387025
   13          6.704780000000        -0.000002459412
   14          2.192000000000         0.000009654420
   15          1.217150000000         0.000013223648
   16          0.660971000000        -0.000002975438
   17          0.348882000000        -0.000012379806
   18          0.177063000000        -0.000008363602
   19         70.149000000000        -0.000000012159
   20         21.695500000000         0.000000149931
   21         13.498600000000        -0.000000650103
   22          6.704780000000         0.000003018888
   23          2.192000000000        -0.000016842378
   24          1.217150000000        -0.000001686298
   25          0.660971000000         0.000023211759
   26          0.348882000000        -0.000002611066
   27          0.177063000000        -0.000011416605
   28         70.149000000000        -0.000000014996
   29         21.695500000000         0.000000196752
   30         13.498600000000        -0.000000282689
   31          6.704780000000        -0.000001052142
   32          2.192000000000         0.000015442920
   33          1.217150000000        -0.000022002520
   34          0.660971000000         0.000007523578
   35          0.348882000000         0.000006593491
   36          0.177063000000        -0.000004712232
   37          0.084258000000        -0.019448962200
   38          0.040100000000        -0.000079529141
 D 38
    1         70.149000000000        -0.000000557563
    2         21.695500000000         0.000003954209
    3         13.498600000000        -0.000061447252
    4          6.704780000000         0.000431124125
    5          2.192000000000        -0.001300960354
    6          1.217150000000        -0.002134907491
    7          0.660971000000        -0.002094461766
    8          0.348882000000        -0.001463223910
    9          0.177063000000        -0.000669184162
   10         70.149000000000         0.000025379610
   11         21.695500000000        -0.000234381286
   12         13.498600000000         0.001890605534
   13          6.704780000000        -0.012014146133
   14          2.192000000000         0.047161514682
   15          1.217150000000         0.064597073059
   16          0.660971000000        -0.014534914526
   17          0.348882000000        -0.060474933125
   18          0.177063000000        -0.040855909563
   19         70.149000000000        -0.000053654018
   20         21.695500000000         0.000661608514
   21         13.498600000000        -0.002868736307
   22          6.704780000000         0.013321568764
   23          2.192000000000        -0.074321037956
   24          1.217150000000        -0.007441192891
   25          0.660971000000         0.102427460094
   26          0.348882000000        -0.011521957788
   27          0.177063000000        -0.050378510862
   28         70.149000000000        -0.000058177106
   29         21.695500000000         0.000763319571
   30         13.498600000000        -0.001096721010
   31          6.704780000000        -0.004081891287
   32          2.192000000000         0.059912342939
   33          1.217150000000        -0.085360966292
   34          0.660971000000         0.029188469191
   35          0.348882000000         0.025580104585
   36          0.177063000000        -0.018281572923
   37          0.084258000000         0.588175215998
   38          0.040100000000        -1.375389892546
 D 38
    1         70.149000000000        -0.000042874121
    2         21.695500000000         0.000304061296
    3         13.498600000000        -0.004725023840
    4          6.704780000000         0.033151551812
    5          2.192000000000        -0.100038137729
    6          1.217150000000        -0.164165010098
    7          0.660971000000        -0.161054911489
    8          0.348882000000        -0.112515492612
    9          0.177063000000        -0.051457323149
   10         70.149000000000         0.000070040371
   11         21.695500000000        -0.000646824442
   12         13.498600000000         0.005217523507
   13          6.704780000000        -0.033155562463
   14          2.192000000000         0.130152116392
   15          1.217150000000         0.178269205898
   16          0.660971000000        -0.040112152884
   17          0.348882000000        -0.166893293989
   18          0.177063000000        -0.112750473190
   19         70.149000000000        -0.000146688275
   20         21.695500000000         0.001808815357
   21         13.498600000000        -0.007843028285
   22          6.704780000000         0.036420719597
   23          2.192000000000        -0.203191210543
   24          1.217150000000        -0.020343970334
[...]
<pd|gg>: done
<pd|gh>: done
<pd|hh>: done
<pf|pf>:          406 b          199 skpd ( 49.0%)    0.008 s ( 0.038 ms/b)
<pf|pg>:          588 b          310 skpd ( 52.7%)    0.016 s ( 0.056 ms/b)
<pf|ph>:          392 b          213 skpd ( 54.3%)    0.026 s ( 0.146 ms/b)
<pf|dd>:          588 b          162 skpd ( 27.6%)    0.070 s ( 0.163 ms/b)
<pf|df>: done
<pf|dg>: done
<pf|dh>: done
<pf|ff>: done
<pf|fg>: done
<pf|fh>: done
<pf|gg>: done
<pf|gh>: done
<pf|hh>: done
<pg|pg>:          231 b          131 skpd ( 56.7%)    0.023 s ( 0.229 ms/b)
<pg|ph>:          294 b          171 skpd ( 58.2%)    0.037 s ( 0.298 ms/b)
<pg|dd>:          441 b          133 skpd ( 30.2%)    0.109 s ( 0.354 ms/b)
<pg|df>: done
<pg|dg>: done
<pg|dh>: done
<pg|ff>: done
<pg|fg>: done
<pg|fh>: done
<pg|gg>: done
<pg|gh>: done
<pg|hh>: done
<ph|ph>:          105 b           64 skpd ( 61.0%)    0.043 s ( 1.055 ms/b)
<ph|dd>:          294 b           90 skpd ( 30.6%)    0.139 s ( 0.681 ms/b)
<ph|df>: done
<ph|dg>: done
<ph|dh>: done
<ph|ff>: done
<ph|fg>: done
<ph|fh>: done
<ph|gg>: done
<ph|gh>: done
<ph|hh>: done
<dd|dd>:          231 b            0 skpd (  0.0%)    0.303 s ( 1.311 ms/b)
<dd|df>:          504 b           41 skpd (  8.1%)    0.068 s ( 0.147 ms/b)
<dd|dg>:          378 b           38 skpd ( 10.1%)    0.109 s ( 0.321 ms/b)
<dd|dh>:          252 b           35 skpd ( 13.9%)    0.170 s ( 0.785 ms/b)
<dd|ff>:          210 b           20 skpd (  9.5%)    0.014 s ( 0.073 ms/b)
<dd|fg>:          252 b           55 skpd ( 21.8%)    0.020 s ( 0.099 ms/b)
<dd|fh>:          168 b           40 skpd ( 23.8%)    0.022 s ( 0.170 ms/b)
<dd|gg>:          126 b            6 skpd (  4.8%)    0.031 s ( 0.260 ms/b)
<dd|gh>:          126 b           24 skpd ( 19.0%)    0.031 s ( 0.306 ms/b)
<dd|hh>:           63 b            1 skpd (  1.6%)    0.058 s ( 0.930 ms/b)
<df|df>:          300 b          104 skpd ( 34.7%)    0.024 s ( 0.122 ms/b)
<df|dg>:          432 b          162 skpd ( 37.5%)    0.038 s ( 0.140 ms/b)
<df|dh>:          288 b          117 skpd ( 40.6%)    0.057 s ( 0.334 ms/b)
<df|ff>: done
<df|fg>: done
<df|fh>: done
<df|gg>: done
<df|gh>: done
<df|hh>: done
<dg|dg>:          171 b           71 skpd ( 41.5%)    0.049 s ( 0.495 ms/b)
<dg|dh>:          216 b           95 skpd ( 44.0%)    0.072 s ( 0.596 ms/b)
<dg|ff>: done
<dg|fg>: done
<dg|fh>: done
<dg|gg>: done
<dg|gh>: done
<dg|hh>: done
<dh|dh>:           78 b           36 skpd ( 46.2%)    0.078 s ( 1.867 ms/b)
<dh|ff>: done
<dh|fg>: done
<dh|fh>: done
<dh|gg>: done
<dh|gh>: done
<dh|hh>: done
<ff|ff>: done
<ff|fg>: done
<ff|fh>: done
<ff|gg>: done
<ff|gh>: done
<ff|hh>: done
<fg|fg>: done
<fg|fh>: done
<fg|gg>: done
<fg|gh>: done
<fg|hh>: done
<fh|fh>: done
<fh|gg>: done
<fh|gh>: done
<fh|hh>: done
<gg|gg>: done
<gg|gh>: done
<gg|hh>: done
<gh|gh>: done
<gh|hh>: done
<hh|hh>: done
Recanonicalizing the internal orbitals
Recanonicalizing the virtual orbitals
Time needed for Fock operator              ...            5.928 sec
Reference energy                           ...   -152.540832582

------------------------------
PARTIAL COULOMB TRANSFORMATION
------------------------------

Transformation type                        ... one-operator
Dimension of the basis                     ...  135
Number of internal MOs                     ...  135 (0-134)
Pair cutoff                                ... 0.000e+00 Eh
Number of AO pairs included in the trafo   ... 9180
Total Number of distinct AO pairs          ... 9180
Memory devoted for trafo                   ... 2500.0 MB 
Max. Number of MO pairs treated together   ... 35694      
Max. Number of MOs treated per batch       ...  264      
Number Format for Storage                  ... Double (8 Byte)
AO-integral source                         ... DIRECT
Integral package used                      ... LIBINT

Starting integral evaluation:
<ss|**>: <sp|**>:        12180 b        0 skpd     0.499 s (  0.041 ms/b)
       21315 b        0 skpd     1.071 s (  0.050 ms/b)
<sd|**>:        18270 b        0 skpd     1.511 s (  0.083 ms/b)
<sf|**>:        12180 b        0 skpd     0.306 s (  0.025 ms/b)
<sg|**>:         9135 b        0 skpd     0.301 s (  0.033 ms/b)
<sh|**>:         6090 b        0 skpd     0.587 s (  0.096 ms/b)
<pp|**>:        12180 b        0 skpd     0.816 s (  0.067 ms/b)
<pd|**>:        18270 b        0 skpd     2.478 s (  0.136 ms/b)
<pf|**>:        12180 b        0 skpd     0.278 s (  0.023 ms/b)
<pg|**>:         9135 b        0 skpd     0.455 s (  0.050 ms/b)
<ph|**>:         6090 b        0 skpd     0.776 s (  0.127 ms/b)
<dd|**>:         9135 b        0 skpd     2.165 s (  0.237 ms/b)
<df|**>:        10440 b        0 skpd     0.453 s (  0.043 ms/b)
<dg|**>:         7830 b        0 skpd     0.732 s (  0.094 ms/b)
<dh|**>:         5220 b        0 skpd     1.099 s (  0.211 ms/b)
<ff|**>:         4350 b        0 skpd     0.122 s (  0.028 ms/b)
<fg|**>:         5220 b        0 skpd     0.175 s (  0.033 ms/b)
<fh|**>:         3480 b        0 skpd     0.242 s (  0.070 ms/b)
<gg|**>:         2610 b        0 skpd     0.265 s (  0.102 ms/b)
<gh|**>:         2610 b        0 skpd     0.356 s (  0.136 ms/b)
<hh|**>:         1305 b        0 skpd     0.489 s (  0.374 ms/b)
Closing buffer AOJ ( 0.02 GB; CompressionRatio= 1.00)
Collecting buffer AOJ 
    ... done with AO integral generation
Number of MO pairs included in the trafo   ... 9180
    ... Now sorting integrals
IBATCH = 1 of  1
Closing buffer JAO ( 0.03 GB; CompressionRatio= 1.00)
Collecting buffer JAO 
TOTAL TIME for half transformation         ...    15.598 sec
AO-integral generation                     ...    15.136 sec
Half transformation                        ...     0.085 sec
J-integral sorting                         ...     0.274 sec

-------------------------- SECOND HALF TRANSFORMATION -------------------------
Formation of (pq|rs)                       ... ok (     0.196 sec)
Integral sorting                           ... ok (     2.443 sec)

------------------
CLOSED SHELL GUESS
------------------

Initial guess performed in     0.018 sec
E(0)                                       ...   -152.540832582
E(MP2)                                     ...     -0.817233327
Initial E(tot)                             ...   -153.358065909
<T|T>                                      ...      0.160032507
Number of pairs included                   ... 55
Total number of pairs                      ... 55

------------------------------------------------
                  RHF COUPLED CLUSTER ITERATIONS
------------------------------------------------

Number of amplitudes to be optimized       ... 860625

Iter       E(tot)           E(Corr)          Delta-E          Residual     Time
  0   -153.358065909     -0.817233327      0.000000000      0.027081240    0.38
                           *** Turning on DIIS ***
  1   -153.287796200     -0.746963618      0.070269709      0.006283694    6.09
  2   -153.306862045     -0.766029463     -0.019065845      0.004848773    6.08
  3   -153.308388743     -0.767556161     -0.001526698      0.002015986    6.14
  4   -153.309152222     -0.768319640     -0.000763479      0.000533806    6.13
  5   -153.309367703     -0.768535122     -0.000215481      0.000149364    6.13
  6   -153.309386202     -0.768553620     -0.000018499      0.000046770    6.14
  7   -153.309388713     -0.768556132     -0.000002511      0.000010246    6.14
  8   -153.309388600     -0.768556018      0.000000114      0.000001502    6.13
               --- The Coupled-Cluster iterations have converged ---

----------------------
COUPLED CLUSTER ENERGY
----------------------

E(0)                                       ...   -152.540832582
E(CORR)                                    ...     -0.768556018
E(TOT)                                     ...   -153.309388600
Singles Norm <S|S>**1/2                    ...      0.067276807  
T1 diagnostic                              ...      0.015043551  

------------------
LARGEST AMPLITUDES
------------------
   9-> 30  -1-> -1       0.045450
   9-> 13  -1-> -1       0.038011
   9-> 24   9-> 24       0.029750
   9-> 23   9-> 23       0.029750
   9-> 22   9-> 22       0.029750
   9-> 14   9-> 14       0.029327
   9-> 15   9-> 15       0.029327
   9-> 16   9-> 16       0.029327
   9-> 15   9-> 22       0.028274
   9-> 22   9-> 15       0.028274
   9-> 16   9-> 23       0.021049
   9-> 23   9-> 16       0.021049
   9-> 14   9-> 24       0.020579
   9-> 24   9-> 14       0.020579
   9-> 24   9-> 16       0.019920
   9-> 16   9-> 24       0.019920


        !!!!!!!!!!!!!!!!!!!!!!!!!!!!!!!!!!!!!!!!!!!!!!!!!!!!!!!!!!!!!!!!!!!!!!!!!! 
        !  Warning: Densities are linearized densities !                         !
        !!!!!!!!!!!!!!!!!!!!!!!!!!!!!!!!!!!!!!!!!!!!!!!!!!!!!!!!!!!!!!!!!!!!!!!!!! 

Trace of internal density part =     -0.290632099
Trace of external density part =      0.290632099
----------------------
RHF TRIPLES CORRECTION (Algorithm 1)
----------------------

Multiplier for the singles contribution    ...      1.000000000

10% done
20% done
30% done
40% done
50% done
60% done
70% done
80% done

Triples Correction (T)                     ...     -0.029991134
Scaling of triples based on CCSD energies (Peterson et al. Molecular Physics 113, 1551 (2015))
E(T*) = f*E(T) where f = E(F12-CCSD)/E(CCSD) 
f = CCSD (with F12)/ CCSD (without F12)    ...      1.000000000
Scaled triples correction (T)              ...     -0.029991134

Final correlation energy                   ...     -0.798547152
E(CCSD)                                    ...   -153.309388600
E(CCSD(T))                                 ...   -153.339379733

NORM  =      1.149842218 sqrt=     1.072306961
W(HF) =      0.869684539
------------------------------------------------------------------------------
                           ORCA POPULATION ANALYSIS
------------------------------------------------------------------------------
Input electron density              ... 80_Hg.mdcip
BaseName (.gbw .S,...)              ... 80_Hg

                    ********************************
                    * MULLIKEN POPULATION ANALYSIS *
                    ********************************

-----------------------
MULLIKEN ATOMIC CHARGES
-----------------------
   0 Hg:   -0.000000
Sum of atomic charges:   -0.0000000

--------------------------------
MULLIKEN REDUCED ORBITAL CHARGES
--------------------------------
  0 Hgs       :     3.928030  s :     3.928030
      pz      :     2.024017  p :     6.072051
      px      :     2.024017
      py      :     2.024017
      dz2     :     1.975388  d :     9.876941
      dxz     :     1.975388
      dyz     :     1.975388
      dx2y2   :     1.975388
      dxy     :     1.975388
      f0      :     0.014619  f :     0.102330
      f+1     :     0.014619
      f-1     :     0.014619
      f+2     :     0.014619
      f-2     :     0.014619
      f+3     :     0.014619
      f-3     :     0.014619
      g0      :     0.001822  g :     0.016399
      g+1     :     0.001822
      g-1     :     0.001822
      g+2     :     0.001822
      g-2     :     0.001822
      g+3     :     0.001822
      g-3     :     0.001822
      g+4     :     0.001822
      g-4     :     0.001822
      h0      :     0.000386  h :     0.004249
      h+1     :     0.000386
      h-1     :     0.000386
      h+2     :     0.000386
      h-2     :     0.000386
      h+3     :     0.000386
      h-3     :     0.000386
      h+4     :     0.000386
      h-4     :     0.000386
      h+5     :     0.000386
      h-5     :     0.000386


                     *******************************
                     * LOEWDIN POPULATION ANALYSIS *
                     *******************************

----------------------
LOEWDIN ATOMIC CHARGES
----------------------
   0 Hg:   -0.000000

-------------------------------
LOEWDIN REDUCED ORBITAL CHARGES
-------------------------------
  0 Hgs       :     3.928030  s :     3.928030
      pz      :     2.024017  p :     6.072051
      px      :     2.024017
      py      :     2.024017
      dz2     :     1.975388  d :     9.876941
      dxz     :     1.975388
      dyz     :     1.975388
      dx2y2   :     1.975388
      dxy     :     1.975388
      f0      :     0.014619  f :     0.102330
      f+1     :     0.014619
      f-1     :     0.014619
      f+2     :     0.014619
      f-2     :     0.014619
      f+3     :     0.014619
      f-3     :     0.014619
      g0      :     0.001822  g :     0.016399
      g+1     :     0.001822
      g-1     :     0.001822
      g+2     :     0.001822
      g-2     :     0.001822
      g+3     :     0.001822
      g-3     :     0.001822
      g+4     :     0.001822
      g-4     :     0.001822
      h0      :     0.000386  h :     0.004249
      h+1     :     0.000386
      h-1     :     0.000386
      h+2     :     0.000386
      h-2     :     0.000386
      h+3     :     0.000386
      h-3     :     0.000386
      h+4     :     0.000386
      h-4     :     0.000386
      h+5     :     0.000386
      h-5     :     0.000386


                      *****************************
                      * MAYER POPULATION ANALYSIS *
                      *****************************

  NA   - Mulliken gross atomic population
  ZA   - Total nuclear charge
  QA   - Mulliken gross atomic charge
  VA   - Mayer's total valence
  BVA  - Mayer's bonded valence
  FA   - Mayer's free valence

  ATOM       NA         ZA         QA         VA         BVA        FA
  0 Hg    20.0000    20.0000    -0.0000     1.1084     0.0000     1.1084





------------------------------------------------------------------------------- 
                                     TIMINGS                                   
------------------------------------------------------------------------------- 


Total execution time                   ...       76.041 sec

Fock Matrix Formation                  ...        5.928 sec (  7.8%)
Initial Guess                          ...        0.018 sec (  0.0%)
DIIS Solver                            ...        0.433 sec (  0.6%)
State Vector Update                    ...        0.021 sec (  0.0%)
Sigma-vector construction              ...       48.922 sec ( 64.3%)
  <0|H|D>                              ...        0.002 sec (  0.0% of sigma)
  <D|H|D>(0-ext)                       ...        0.051 sec (  0.1% of sigma)
  <D|H|D>(2-ext Fock)                  ...        0.004 sec (  0.0% of sigma)
  <D|H|D>(2-ext)                       ...        0.150 sec (  0.3% of sigma)
  <D|H|D>(4-ext)                       ...        0.719 sec (  1.5% of sigma)
  <D|H|D>(4-ext-corr)                  ...        0.608 sec (  1.2% of sigma)
  <S|H|0>                              ...        0.007 sec (  0.0% of sigma)
  <S|H|S>                              ...        0.006 sec (  0.0% of sigma)
  <S|H|D>(1-ext)                       ...        0.026 sec (  0.1% of sigma)
  <D|H|S>(1-ext)                       ...        0.027 sec (  0.1% of sigma)
  <S|H|D>(3-ext)                       ...        0.446 sec (  0.9% of sigma)
  Fock-dressing                        ...       45.465 sec ( 92.9% of sigma)
  (ik|jl)-dressing                     ...        0.058 sec (  0.1% of sigma)
  (ij|ab),(ia|jb)-dressing             ...        1.129 sec (  2.3% of sigma)
  Pair energies                        ...        0.003 sec (  0.0% of sigma)
Total Time for computing (T)           ...        1.477 sec (  1.9% of ALL)
  I/O of integral and amplitudes       ...        0.358 sec ( 24.2% of (T))
  N**6 sorting step                    ...        0.432 sec ( 29.3% of (T))
  External N**7 contributions          ...        0.399 sec ( 27.0% of (T))
  Internal N**7 contributions          ...        0.126 sec (  8.5% of (T))
  N**6 triples energy contributions    ...        0.162 sec ( 11.0% of (T))
One-particle density matrix            ...        0.003 sec (  0.0%)


-------------------------   --------------------
FINAL SINGLE POINT ENERGY      -153.339379733305
-------------------------   --------------------


                            ***************************************
                            *     ORCA property calculations      *
                            ***************************************

                                    ---------------------
                                    Active property flags
                                    ---------------------
   (+) Dipole Moment


------------------------------------------------------------------------------
                       ORCA ELECTRIC PROPERTIES CALCULATION
------------------------------------------------------------------------------

Dipole Moment Calculation                       ... on
Quadrupole Moment Calculation                   ... off
Polarizability Calculation                      ... off
GBWName                                         ... 80_Hg.gbw
Electron density file                           ... 80_Hg.scfp
The origin for moment calculation is the CENTER OF MASS  = ( 0.000000,  0.000000  0.000000)

-------------
DIPOLE MOMENT
-------------
                                X             Y             Z
Electronic contribution:      0.00000       0.00000      -0.00000
Nuclear contribution   :      0.00000       0.00000       0.00000
                        -----------------------------------------
Total Dipole Moment    :      0.00000       0.00000      -0.00000
                        -----------------------------------------
Magnitude (a.u.)       :      0.00000
Magnitude (Debye)      :      0.00000



--------------------
Rotational spectrum 
--------------------
 
Rotational constants in cm-1:     0.000000     0.000000     0.000000 
Rotational constants in MHz :     0.000000     0.000000     0.000000 

 Dipole components along the rotational axes: 
x,y,z [a.u.] :     0.000000     0.000000    -0.000000 
x,y,z [Debye]:     0.000000     0.000000    -0.000000 

 

                           *** MDCI DENSITY ***

------------------------------------------------------------------------------
                       ORCA ELECTRIC PROPERTIES CALCULATION
------------------------------------------------------------------------------

Dipole Moment Calculation                       ... on
Quadrupole Moment Calculation                   ... off
Polarizability Calculation                      ... off
GBWName                                         ... 80_Hg.gbw
Electron density file                           ... 80_Hg.mdcip
The origin for moment calculation is the CENTER OF MASS  = ( 0.000000,  0.000000  0.000000)

-------------
DIPOLE MOMENT
-------------
                                X             Y             Z
Electronic contribution:     -0.00000      -0.00000       0.00000
Nuclear contribution   :      0.00000       0.00000       0.00000
                        -----------------------------------------
Total Dipole Moment    :     -0.00000      -0.00000       0.00000
                        -----------------------------------------
Magnitude (a.u.)       :      0.00000
Magnitude (Debye)      :      0.00000



--------------------
Rotational spectrum 
--------------------
 
Rotational constants in cm-1:     0.000000     0.000000     0.000000 
Rotational constants in MHz :     0.000000     0.000000     0.000000 

 Dipole components along the rotational axes: 
x,y,z [a.u.] :    -0.000000    -0.000000     0.000000 
x,y,z [Debye]:    -0.000000    -0.000000     0.000000 

 

Timings for individual modules:

Sum of individual times         ...      192.959 sec (=   3.216 min)
GTO integral calculation        ...        2.316 sec (=   0.039 min)   1.2 %
SCF iterations                  ...      113.598 sec (=   1.893 min)  58.9 %
MDCI module                     ...       77.045 sec (=   1.284 min)  39.9 %
                             ****ORCA TERMINATED NORMALLY****
TOTAL RUN TIME: 0 days 0 hours 3 minutes 13 seconds 597 msec
