
                                 *****************
                                 * O   R   C   A *
                                 *****************

           --- An Ab Initio, DFT and Semiempirical electronic structure package ---

                  #######################################################
                  #                        -***-                        #
                  #          Department of theory and spectroscopy      #
                  #               Directorship: Frank Neese             #
                  #        Max Planck Institute fuer Kohlenforschung    #
                  #                Kaiser Wilhelm Platz 1               #
                  #                 D-45470 Muelheim/Ruhr               #
                  #                      Germany                        #
                  #                                                     #
                  #                  All rights reserved                #
                  #                        -***-                        #
                  #######################################################


                         Program Version 4.2.0 -  RELEASE  -


 With contributions from (in alphabetic order):
   Daniel Aravena         : Magnetic Suceptibility
   Michael Atanasov       : Ab Initio Ligand Field Theory (pilot matlab implementation)
   Alexander A. Auer      : GIAO ZORA, VPT2
   Ute Becker             : Parallelization
   Giovanni Bistoni       : ED, misc. LED, open-shell LED, HFLED
   Martin Brehm           : Molecular dynamics
   Dmytro Bykov           : SCF Hessian
   Vijay G. Chilkuri      : MRCI spin determinant printing, contributions to CSF-ICE
   Dipayan Datta          : RHF DLPNO-CCSD density
   Achintya Kumar Dutta   : EOM-CC, STEOM-CC
   Dmitry Ganyushin       : Spin-Orbit,Spin-Spin,Magnetic field MRCI
   Miquel Garcia          : C-PCM Hessian, Gaussian charge scheme
   Yang Guo               : DLPNO-NEVPT2, CIM, IAO-localization
   Andreas Hansen         : Spin unrestricted coupled pair/coupled cluster methods
   Benjamin Helmich-Paris : CASSCF linear response (MC-RPA)
   Lee Huntington         : MR-EOM, pCC
   Robert Izsak           : Overlap fitted RIJCOSX, COSX-SCS-MP3, EOM
   Christian Kollmar      : KDIIS, OOCD, Brueckner-CCSD(T), CCSD density
   Simone Kossmann        : Meta GGA functionals, TD-DFT gradient, OOMP2, MP2 Hessian
   Martin Krupicka        : AUTO-CI
   Lucas Lang             : DCDCAS
   Dagmar Lenk            : GEPOL surface, SMD
   Dimitrios Liakos       : Extrapolation schemes; Compound Job, initial MDCI parallelization
   Dimitrios Manganas     : Further ROCIS development; embedding schemes
   Dimitrios Pantazis     : SARC Basis sets
   Taras Petrenko         : DFT Hessian,TD-DFT gradient, ASA, ECA, R-Raman, ABS, FL, XAS/XES, NRVS
   Peter Pinski           : DLPNO-MP2, DLPNO-MP2 Gradient
   Christoph Reimann      : Effective Core Potentials
   Marius Retegan         : Local ZFS, SOC
   Christoph Riplinger    : Optimizer, TS searches, QM/MM, DLPNO-CCSD(T), (RO)-DLPNO pert. Triples
   Tobias Risthaus        : Range-separated hybrids, TD-DFT gradient, RPA, STAB
   Michael Roemelt        : Original ROCIS implementation
   Masaaki Saitow         : Open-shell DLPNO-CCSD energy and density
   Barbara Sandhoefer     : DKH picture change effects
   Avijit Sen             : IP-ROCIS
   Kantharuban Sivalingam : CASSCF convergence, NEVPT2, FIC-MRCI
   Bernardo de Souza      : ESD, SOC TD-DFT
   Georgi Stoychev        : AutoAux, RI-MP2 NMR
   Willem Van den Heuvel  : Paramagnetic NMR
   Boris Wezisla          : Elementary symmetry handling
   Frank Wennmohs         : Technical directorship


 We gratefully acknowledge several colleagues who have allowed us to
 interface, adapt or use parts of their codes:
   Stefan Grimme, W. Hujo, H. Kruse,             : VdW corrections, initial TS optimization,
                  C. Bannwarth                     DFT functionals, gCP, sTDA/sTD-DF
   Ed Valeev, F. Pavosevic, A. Kumar             : LibInt (2-el integral package), F12 methods
   Garnet Chan, S. Sharma, J. Yang, R. Olivares  : DMRG
   Ulf Ekstrom                                   : XCFun DFT Library
   Mihaly Kallay                                 : mrcc  (arbitrary order and MRCC methods)
   Andreas Klamt, Michael Diedenhofen            : otool_cosmo (COSMO solvation model)
   Jiri Pittner, Ondrej Demel                    : Mk-CCSD
   Frank Weinhold                                : gennbo (NPA and NBO analysis)
   Christopher J. Cramer and Donald G. Truhlar   : smd solvation model
   Lars Goerigk                                  : TD-DFT with DH, B97 family of functionals
   V. Asgeirsson, H. Jonsson                     : NEB implementation
   FAccTs GmbH                                   : IRC, NEB, NEB-TS, Multilevel, MM, QM/MM, CI optimization
   S Lehtola, MJT Oliveira, MAL Marques          : LibXC Library


 Your calculation uses the libint2 library for the computation of 2-el integrals
 For citations please refer to: http://libint.valeyev.net

 Your ORCA version has been built with support for libXC version: 4.2.3
 For citations please refer to: https://tddft.org/programs/libxc/

 This ORCA versions uses:
   CBLAS   interface :  Fast vector & matrix operations
   LAPACKE interface :  Fast linear algebra routines
   SCALAPACK package :  Parallel linear algebra routines


----- Orbital basis set information -----
Your calculation utilizes the basis: def2-SVP
   F. Weigend and R. Ahlrichs, Phys. Chem. Chem. Phys. 7, 3297 (2005).

----- AuxJ basis set information -----
Your calculation utilizes the auxiliary basis: def2/J
   F. Weigend, Phys. Chem. Chem. Phys. 8, 1057 (2006).

================================================================================
                                        WARNINGS
                       Please study these warnings very carefully!
================================================================================


INFO   : the flag for use of LIBINT has been found!

================================================================================
                                       INPUT FILE
================================================================================
NAME = 81_Tl_atom81.inp
|  1> # input to generate an atomic fitting density for Tl
|  2> # this file is use internally by ORCA
|  3> #
|  4> # atomic ground state (S=2): 1s2 2s2 2p6 3s2 3p6 4s2 3d10 4p6 5s2 4d10 5p6 6s2 4f14 5d10 6p1 
|  5> #
|  6> ! RHF AllowRHF def2-SVP def2/J  NoMulliken NoLoewdin NoMayer NoPrintMOs 
|  7> 
|  8> %output print[p_atomdensfit] 2 end
|  9> 
| 10> %scf
| 11>   guess hcore
| 12>   maxiter 1000
| 13>   maxdisk 500000
| 14>   SCFMode Conventional
| 15>   lshift 1.000000
| 16>   hftyp rohf
| 17>   rohf_case sahf
| 18>   rohf_numop   2
| 19>   rohf_norb[1] 3
| 20>   rohf_nel[1]  1
| 21> end
| 22> 
| 23> %basis
| 24>   NewECP 81
| 25>     N_core 60
| 26>     lmax h
| 27>     s 2
| 28>       1      12.1678050000    281.2846630000  2
| 29>       2       8.2949090000     62.4342510000  2
| 30>     p 4
| 31>       1       7.1514920000      4.6334080000  2
| 32>       2       5.1728650000      9.3417560000  2
| 33>       3       9.8910720000     72.2992530000  2
| 34>       4       9.0033910000    144.5580370000  2
| 35>     d 4
| 36>       1       7.1302180000     35.9430390000  2
| 37>       2       6.9269060000     53.9095930000  2
| 38>       3       5.4175700000     10.3819390000  2
| 39>       4       5.1386810000     15.5838220000  2
| 40>     f 4
| 41>       1       5.6263990000     15.8254880000  2
| 42>       2       5.5489520000     21.1040210000  2
| 43>       3       2.8749460000      2.9151270000  2
| 44>       4       2.8214510000      3.8969030000  2
| 45>     g 4
| 46>       1       6.6790570000     -7.4945340000  2
| 47>       2       6.7068350000     -9.5405750000  2
| 48>       3       7.2092840000     -7.7979920000  2
| 49>       4       7.0709640000     -9.2595240000  2
| 50>     h 1
| 51>       1       1.0000000000      0.0000000000  2
| 52>   end
| 53>   NewGTO 81
| 54>     s 10 
| 55>      1    9675.5500000000      0.0000087391
| 56>      2    1471.4800000000      0.0000622664
| 57>      3     323.6480000000      0.0002479732
| 58>      4      33.8079000000      0.0236677874
| 59>      5      21.1316000000     -0.2139965179
| 60>      6      13.2091000000      0.7358577948
| 61>      7       8.2561100000     -0.6244948794
| 62>      8       5.1001400000     -0.6689203193
| 63>      9       1.8194300000      0.8297205737
| 64>     10       0.9669850000      0.6672402188
| 65>     s 10 
| 66>      1    9675.5500000000      0.0000047039
| 67>      2    1471.4800000000      0.0000360634
| 68>      3     323.6480000000      0.0001567975
| 69>      4      33.8079000000      0.0120639998
| 70>      5      21.1316000000     -0.1152869311
| 71>      6      13.2091000000      0.4219044455
| 72>      7       8.2561100000     -0.4068315017
| 73>      8       5.1001400000     -0.3592309162
| 74>      9       1.8194300000      0.6368612765
| 75>     10       0.9669850000      0.6857899369
| 76>     s 1 
| 77>      1       0.4663510000      1.0000000000
| 78>     s 1 
| 79>      1       0.2295180000      1.0000000000
| 80>     s 1 
| 81>      1       0.1040710000      1.0000000000
| 82>     s 1 
| 83>      1       0.0461250000      1.0000000000
| 84>     s 1 
| 85>      1       0.0159000000      1.0000000000
| 86>     p 7 
| 87>      1      42.5240000000      0.0016380010
| 88>      2      21.3957000000     -0.0236351802
| 89>      3      13.3737000000      0.1140354837
| 90>      4       6.6133700000     -0.3535959307
| 91>      5       2.0421700000      0.4848411404
| 92>      6       1.1144900000      0.4963347022
| 93>      7       0.5980060000      0.2093569340
| 94>     p 7 
| 95>      1      42.5240000000     -0.0004181803
| 96>      2      21.3957000000      0.0124006533
| 97>      3      13.3737000000     -0.0776625092
| 98>      4       6.6133700000      0.2757030334
| 99>      5       2.0421700000     -0.4732932097
|100>      6       1.1144900000     -0.4567976065
|101>      7       0.5980060000     -0.2404021853
|102>     p 1 
|103>      1       0.3003370000      1.0000000000
|104>     p 1 
|105>      1       0.1297770000      1.0000000000
|106>     p 1 
|107>      1       0.0564350000      1.0000000000
|108>     p 1 
|109>      1       0.0244930000      1.0000000000
|110>     p 1 
|111>      1       0.0081000000      1.0000000000
|112>   end
|113>   NewAuxGTO 81
|114>     S 1
|115>      1 1310.72 1.0
|116>     S 1
|117>      1  655.36 1.0
|118>     S 1
|119>      1  327.68 1.0
|120>     S 1
|121>      1  163.84 1.0
|122>     S 1
|123>      1   81.82 1.0
|124>     S 1
|125>      1   40.96 1.0
|126>     S 1
|127>      1   20.48 1.0
|128>     S 1
|129>      1   10.24 1.0
|130>     S 1
|131>      1    5.12 1.0
|132>     S 1
|133>      1    2.56 1.0
|134>     S 1
|135>      1    1.28 1.0
|136>     S 1
|137>      1    0.64 1.0
|138>     S 1
|139>      1    0.32 1.0
|140>     S 1
|141>      1    0.16 1.0
|142>     S 1
|143>      1    0.08 1.0
|144>     S 1
|145>      1    0.04 1.0
|146>     S 1
|147>      1    0.02 1.0
|148>     S 1
|149>      1    0.01 1.0
|150>   end
|151> end
|152> 
|153> * xyz 0 2
|154> 81  0.0 0.0 0.0
|155> *
|156> 
|157> 
|158>                          ****END OF INPUT****
================================================================================

                       ****************************
                       * Single Point Calculation *
                       ****************************

---------------------------------
CARTESIAN COORDINATES (ANGSTROEM)
---------------------------------
  Tl     0.000000    0.000000    0.000000

----------------------------
CARTESIAN COORDINATES (A.U.)
----------------------------
  NO LB      ZA    FRAG     MASS         X           Y           Z
   0 Tl   21.0000*   0   204.370    0.000000    0.000000    0.000000
* core charge reduced due to ECP

--------------------------------
INTERNAL COORDINATES (ANGSTROEM)
--------------------------------
 Tl     0   0   0     0.000000000000     0.00000000     0.00000000

---------------------------
INTERNAL COORDINATES (A.U.)
---------------------------
 Tl     0   0   0     0.000000000000     0.00000000     0.00000000

---------------------
BASIS SET INFORMATION
---------------------
There are 1 groups of distinct atoms

 Group   1 Type Tl  : 25s19p contracted to 7s7p pattern {101011111/7711111}

Atom   0Tl   basis set group =>   1
---------------------------------
AUXILIARY/J BASIS SET INFORMATION
---------------------------------
There are 1 groups of distinct atoms

 Group   1 Type Tl  : 18s contracted to 18s pattern {111111111111111111}

Atom   0Tl   basis set group =>   1
-------------------------
ECP PARAMETER INFORMATION
-------------------------

 Group 1, Type Tl ECP (replacing 60 core electrons, lmax=5)

Atom   0Tl   ECP group =>   1

------------------------------------------------------------------------------
                           ORCA GTO INTEGRAL CALCULATION
------------------------------------------------------------------------------

                         BASIS SET STATISTICS AND STARTUP INFO

 # of primitive gaussian shells          ...   44
 # of primitive gaussian functions       ...   82
 # of contracted shells                  ...   14
 # of contracted basis functions         ...   28
 Highest angular momentum                ...    1
 Maximum contraction depth               ...   10
 Integral package used                   ... LIBINT
 Integral threshhold            Thresh   ...  1.000e-10
 Primitive cut-off              TCut     ...  1.000e-11
 Storage cut-off                TCutStore... -1.000e+00
 Buffer length                           ... 1048576 integrals/buffer
 Generate file with integrals 4 distinct ...false


------------------------------ INTEGRAL EVALUATION ----------------------------


 * One electron integrals 

   ECP integrals                         ... done
 Pre-screening matrix                    ... done
 Shell pair data                         ... done (   0.000 sec)
 Statistics run                          ... done
 Maximum amount of storage needed        ...     0 MB
 Maximum amount of storage dedicated     ... 500000 MB
 Beginning two electron integral evaluation:
 Starting repulsion integrals
  <ss|ss>  ...          406 b.         0 skpd (  0.0%)     0.001 s. (  0.002 ms/b)
  <ss|sp>  ...         1372 b.         0 skpd (  0.0%)     0.004 s. (  0.003 ms/b)
  <ss|pp>  ...          784 b.         0 skpd (  0.0%)     0.008 s. (  0.010 ms/b)
  <sp|sp>  ...         1225 b.         0 skpd (  0.0%)     0.009 s. (  0.008 ms/b)
  <sp|pp>  ...         1372 b.         0 skpd (  0.0%)     0.014 s. (  0.011 ms/b)
  <pp|pp>  ...          406 b.         0 skpd (  0.0%)     0.009 s. (  0.023 ms/b)


                                      INTEGRAL STATISTICS

Integral type statistics:
 Number of integrals retained            ...      82621 
 One   Center Integrals retained         ...      82621 (100.0%)
 Two   Center Integrals retained         ...          0 (  0.0%)
 Three Center Integrals retained         ...          0 (  0.0%)
 Four  Center Integrals retained         ...          0 (  0.0%)

Storage statistics:
 Number of char integrals                ...          0 (  0.0%)
 Number of short int integrals           ...          0 (  0.0%)
 Number of double/float integrals        ...      82621 (100.0%)
 Amount of memory used                   ...          1 MB
 Amount of memory estimated              ...          0 MB ( 96.2%)

Prescreening statistics:
 Total number of shell quadruples        ...       5565 
 Number of skipped shell quadruples      ...          0 (  0.0%)
 # of negligible batches done            ...          0 (  0.0%)

Timings:
 Total evaluation time               ...     0.226 sec (   0.004 min)
 One electron matrix time            ...     0.022 sec (   0.000 min) =  9.5%
 Schwartz matrix evaluation time     ...     0.082 sec (   0.001 min) = 36.2%
 Statistics run                      ...     0.001 sec (   0.000 min) =  0.3%
 Repulsion integral time             ...     0.046 sec (   0.001 min) = 20.5%

-------------------------------------------------------------------------------
                                 ORCA SCF
-------------------------------------------------------------------------------

------------
SCF SETTINGS
------------
Hamiltonian:
 Ab initio Hamiltonian  Method          .... Hartree-Fock(GTOs)


General Settings:
 Integral files         IntName         .... 81_Tl_atom81
 Hartree-Fock type      HFTyp           .... ROHF
 Total Charge           Charge          ....    0
 Multiplicity           Mult            ....    2
 Number of Electrons    NEL             ....   21
 Basis Dimension        Dim             ....   28
 Nuclear Repulsion      ENuc            ....      0.0000000000 Eh

Convergence Acceleration:
 DIIS                   CNVDIIS         .... on
   Start iteration      DIISMaxIt       ....    12
   Startup error        DIISStart       ....  0.200000
   # of expansion vecs  DIISMaxEq       ....     5
   Bias factor          DIISBfac        ....   1.050
   Max. coefficient     DIISMaxC        ....  10.000
 Newton-Raphson         CNVNR           .... off
 SOSCF                  CNVSOSCF        .... off
 Level Shifting         CNVShift        .... on
   Level shift para.    LevelShift      ....    1.0000
   Turn off err/grad.   ShiftErr        ....    0.0010
 Zerner damping         CNVZerner       .... off
 Static damping         CNVDamp         .... on
   Fraction old density DampFac         ....    0.7000
   Max. Damping (<1)    DampMax         ....    0.9800
   Min. Damping (>=0)   DampMin         ....    0.0000
   Turn off err/grad.   DampErr         ....    0.1000
 Fernandez-Rico         CNVRico         .... off

SCF Procedure:
 Maximum # iterations   MaxIter         ....  1000
 SCF integral mode      SCFMode         .... Conventional
 Integral Threshold     Thresh          ....  1.000e-10 Eh
 Primitive CutOff       TCut            ....  1.000e-11 Eh
 Integral Buffer length BufferLength    .... 1048576
 Integral index format  IndFormat       ....     0
 Integral value format  ValFormat       ....     0
 Integral Storage       Thresh          ....  1.000e-10 Eh

Convergence Tolerance:
 Convergence Check Mode ConvCheckMode   .... Total+1el-Energy
 Convergence forced     ConvForced      .... 0
 Energy Change          TolE            ....  1.000e-06 Eh
 1-El. energy change                    ....  1.000e-03 Eh
 DIIS Error             TolErr          ....  1.000e-06


Diagonalization of the overlap matrix:
Smallest eigenvalue                        ... 8.512e-04
Time for diagonalization                   ...    0.000 sec
Threshold for overlap eigenvalues          ... 1.000e-08
Number of eigenvalues below threshold      ... 0
Time for construction of square roots      ...    0.000 sec
Total time needed                          ...    0.001 sec

--------------------
INITIAL GUESS: HCORE
--------------------
AVERAGE-CONFIGURATION (SAHF) CASE FOUND

-------------------
FINAL ROHF SETTINGS
-------------------
Number of operators             ... 2
  operator   0:  10 orbitals  20 electrons n(mue)= 2.000
  operator   1:   3 orbitals   1 electrons n(mue)= 0.333
Vector coupling coefficients a and b (Zerner convention):
   1.000    1.000           1.000    1.000 
   1.000    0.000           1.000    0.000 

                      -----------------
                      INTIAL GUESS DONE 
                      -----------------

 InCore treatment chosen:
   Memory dedicated               ...    1024 MB
   Memory needed                  ...      1 MB
   Number of tiny    integrals    ...       0
   Number of small   integrals    ...       0
   Number of regular integrals    ...   82621

--------------
SCF ITERATIONS
--------------
ITER       Energy         Delta-E        Max-DP      RMS-DP      [F,P]     Damp
  0   -154.0754106297   0.00000000000012.64401275  0.76141653  0.7856574 0.7000
  1   -155.1096531809  -1.03424255115111.35314917  0.71676799  0.3747281 0.7000
  2   -155.6487541231  -0.539100942208 9.44435260  0.61090696  0.2152352 0.7000
                            ****Activating DIIS****
  3   -156.0080524068  -0.35929828375111.87823045  0.58716745  0.1860609 0.7000
  4   -156.3721036150  -0.36405120820310.35741502  0.49033944  0.1379014 0.7000
  5   -156.5933067777  -0.22120316262530.62321290  1.43363024  0.0767084 0.0000
  6   -157.0985295152  -0.505222737526 4.39728574  0.23665323  0.0541124 0.0000
  7   -157.1573929768  -0.058863461626 3.08219654  0.16268601  0.0436366 0.0000
  8   -157.1823336935  -0.024940716686 0.69999859  0.04120970  0.0516553 0.0000
  9   -157.1951162785  -0.012782585021 1.14123162  0.05996122  0.0344244 0.0000
 10   -157.2109260563  -0.015809777752 1.41824856  0.08079148  0.0264385 0.0000
 11   -157.2305788460  -0.019652789705 1.17203066  0.07822227  0.0141769 0.0000
 12   -157.2432977569  -0.012718910953 0.62429114  0.04018955  0.0201709 0.0000
 13   -157.2479680026  -0.004670245707 0.52029263  0.02773170  0.0157087 0.0000
 14   -157.2509654992  -0.002997496585 0.63443886  0.02620316  0.0075712 0.0000
 15   -157.2530720494  -0.002106550200 0.61418718  0.02307324  0.0099894 0.0000
 16   -157.2547194658  -0.001647416430 0.73536218  0.02776697  0.0124538 0.0000
 17   -157.2565155391  -0.001796073258 0.60487096  0.02424533  0.0108753 0.0000
 18   -157.2578889899  -0.001373450778 0.32845995  0.01440751  0.0076580 0.0000
 19   -157.2586444353  -0.000755445443 0.22236976  0.01088229  0.0056142 0.0000
 20   -157.2592056824  -0.000561247103 0.16829041  0.00908605  0.0048506 0.0000
 21   -157.2596512818  -0.000445599334 0.15692929  0.00923658  0.0036050 0.0000
 22   -157.2600545897  -0.000403307935 0.17667356  0.01072886  0.0027996 0.0000
 23   -157.2604403134  -0.000385723702 0.19159882  0.01050690  0.0023684 0.0000
 24   -157.2607289483  -0.000288634858 0.14802679  0.00753849  0.0019182 0.0000
 25   -157.2609019142  -0.000172965913 0.13790628  0.00677582  0.0022220 0.0000
 26   -157.2610457726  -0.000143858455 0.18192498  0.00866836  0.0019960 0.0000
 27   -157.2611899264  -0.000144153763 0.16975845  0.00786183  0.0014447 0.0000
 28   -157.2612745345  -0.000084608114 0.08438297  0.00387358  0.0012089 0.0000
 29   -157.2613047365  -0.000030201967 0.03547587  0.00166885  0.0012458 0.0000
 30   -157.2613195288  -0.000014792293 0.02002661  0.00099507  0.0011287 0.0000
 31   -157.2613309623  -0.000011433578 0.01800148  0.00094777  0.0009297 0.0000
 32   -157.2613425376  -0.000011575306 0.01513041  0.00088107  0.0006222 0.0000
 33   -157.2613519363  -0.000009398665 0.00739431  0.00049512  0.0002825 0.0000
 34   -157.2613558441  -0.000003907836 0.00268250  0.00020463  0.0002520 0.0000
 35   -157.2613574294  -0.000001585295 0.00248810  0.00015860  0.0002450 0.0000
 36   -157.2613587850  -0.000001355555 0.00402031  0.00022269  0.0002167 0.0000
 37   -157.2613605371  -0.000001752079 0.00694235  0.00036056  0.0002001 0.0000
 38   -157.2613628584  -0.000002321340 0.00857406  0.00042531  0.0001857 0.0000
 39   -157.2613649899  -0.000002131509 0.00685756  0.00033000  0.0001936 0.0000
 40   -157.2613664702  -0.000001480276 0.00552339  0.00027191  0.0002151 0.0000
 41   -157.2613676888  -0.000001218609 0.00564652  0.00029759  0.0001809 0.0000
 42   -157.2613688537  -0.000001164848 0.00597754  0.00033378  0.0001074 0.0000
 43   -157.2613698015  -0.000000947842 0.00517344  0.00029373  0.0000713 0.0000
 44   -157.2613703346  -0.000000533087 0.00387445  0.00020821  0.0000648 0.0000
                 **** Energy Check signals convergence ****

               *****************************************************
               *                     SUCCESS                       *
               *           SCF CONVERGED AFTER  45 CYCLES          *
               *****************************************************


----------------
TOTAL SCF ENERGY
----------------

Total Energy       :         -157.26137061 Eh           -4279.29945 eV

Components:
Nuclear Repulsion  :            0.00000000 Eh               0.00000 eV
Electronic Energy  :         -157.26137061 Eh           -4279.29945 eV
One Electron Energy:         -247.50255639 Eh           -6734.88695 eV
Two Electron Energy:           90.24118578 Eh            2455.58750 eV

Virial components:
Potential Energy   :         -198.70918938 Eh           -5407.15194 eV
Kinetic Energy     :           41.44781876 Eh            1127.85249 eV
Virial Ratio       :            4.79420137


---------------
SCF CONVERGENCE
---------------

  Last Energy change         ...   -2.7790e-07  Tolerance :   1.0000e-06
  Last MAX-Density change    ...    3.3093e-03  Tolerance :   1.0000e-05
  Last RMS-Density change    ...    1.6156e-04  Tolerance :   1.0000e-06
  Last DIIS Error            ...    9.9106e-05  Tolerance :   1.0000e-06

             **** THE GBW FILE WAS UPDATED (81_Tl_atom81.gbw) ****
             **** DENSITY FILE WAS UPDATED (81_Tl_atom81.scfp) ****
             **** ENERGY FILE WAS UPDATED (81_Tl_atom81.en.tmp) ****
             **** THE GBW FILE WAS UPDATED (81_Tl_atom81.gbw) ****
             **** DENSITY FILE WAS UPDATED (81_Tl_atom81.scfp) ****
----------------
ORBITAL ENERGIES
----------------

  NO   OCC          E(Eh)            E(eV) 
   0   2.0000      -8.618377      -234.5180 
   1   2.0000      -6.143423      -167.1710 
   2   2.0000      -6.143423      -167.1710 
   3   2.0000      -6.135629      -166.9590 
   4   2.0000      -2.081081       -56.6291 
   5   2.0000      -1.263978       -34.3946 
   6   2.0000      -1.263978       -34.3946 
   7   2.0000      -1.246510       -33.9193 
   8   2.0000      -0.362573        -9.8661 
   9   2.0000      -0.174468        -4.7475 
  10   0.3333      -0.190226        -5.1763 
  11   0.3333      -0.190226        -5.1763 
  12   0.3333      -0.079507        -2.1635 
  13   0.0000      -0.054282        -1.4771 
  14   0.0000      -0.054282        -1.4771 
  15   0.0000      -0.048228        -1.3124 
  16   0.0000       0.010329         0.2811 
  17   0.0000       0.010329         0.2811 
  18   0.0000       0.023432         0.6376 
  19   0.0000       0.113087         3.0773 
  20   0.0000       0.328552         8.9404 
  21   0.0000       0.328552         8.9404 
  22   0.0000       0.356080         9.6894 
  23   0.0000       1.042365        28.3642 
  24   0.0000      30.297946       824.4490 
  25   0.0000      30.297946       824.4490 
  26   0.0000      30.301575       824.5478 
  27   0.0000      58.764691      1599.0685 
CleanUpVectors: The p-vectors have cracked symmetry
CleanUpVectors: The p-vectors have cracked symmetry
CleanUpVectors: The p-vectors have cracked symmetry
CleanUpVectors: The p-vectors have cracked symmetry
CleanUpVectors: The p-vectors have cracked symmetry
CleanUpVectors: The p-vectors have cracked symmetry
CleanUpVectors: The p-vectors have cracked symmetry
CleanUpVectors: The p-vectors have cracked symmetry
CleanUpVectors: The p-vectors have cracked symmetry
CleanUpVectors: The p-vectors have cracked symmetry
CleanUpVectors: The p-vectors have cracked symmetry
CleanUpVectors: The p-vectors have cracked symmetry
CleanUpVectors: The p-vectors have cracked symmetry
CleanUpVectors: The p-vectors have cracked symmetry
CleanUpVectors: The p-vectors have cracked symmetry
CleanUpVectors: The p-vectors have cracked symmetry
CleanUpVectors: The p-vectors have cracked symmetry
CleanUpVectors: The p-vectors have cracked symmetry
CleanUpVectors: The p-vectors have cracked symmetry
CleanUpVectors: The p-vectors have cracked symmetry
--------------------------
ATOM BASIS FOR ELEMENT Tl
--------------------------
 NewGTO Tl
 S 25
    1       9675.549999999999         0.000007016474
    2       1471.480000000000         0.000049992626
    3        323.648000000000         0.000199093436
    4         33.807900000000         0.019002461175
    5         21.131600000000        -0.171814139372
    6         13.209100000000         0.590807621330
    7          8.256110000000        -0.501396243729
    8          5.100140000000        -0.537064668606
    9          1.819430000000         0.666168439039
   10          0.966985000000         0.535715744687
   11       9675.549999999999         0.000001484405
   12       1471.480000000000         0.000011380492
   13        323.648000000000         0.000049480436
   14         33.807900000000         0.003807024795
   15         21.131600000000        -0.036380985785
   16         13.209100000000         0.133139979422
   17          8.256110000000        -0.128383425068
   18          5.100140000000        -0.113362154158
   19          1.819430000000         0.200973699501
   20          0.966985000000         0.216414069728
   21          0.466351000000        -0.222947521203
   22          0.229518000000         0.161672575009
   23          0.104071000000        -0.082417244499
   24          0.046125000000         0.031817185673
   25          0.015900000000        -0.006605772824
 P 44
    1         42.524000000000        -0.001351505851
    2         21.395700000000         0.019501260578
    3         13.373700000000        -0.094090066755
    4          6.613370000000         0.291750108337
    5          2.042170000000        -0.400039827828
    6          1.114490000000        -0.409523104102
    7          0.598006000000        -0.172739284795
    8         42.524000000000        -0.000245354996
    9         21.395700000000         0.003540296706
   10         13.373700000000        -0.017081293388
   11          6.613370000000         0.052964881081
   12          2.042170000000        -0.072624006994
   13          1.114490000000        -0.074345619380
   14          0.598006000000        -0.031359425123
   15         42.524000000000        -0.000032134810
   16         21.395700000000         0.000463682269
   17         13.373700000000        -0.002237183361
   18          6.613370000000         0.006936954244
   19          2.042170000000        -0.009511763328
   20          1.114490000000        -0.009737247575
   21          0.598006000000        -0.004107229031
   22         42.524000000000        -0.000102488995
   23         21.395700000000         0.003039192653
   24         13.373700000000        -0.019033781662
   25          6.613370000000         0.067570200802
   26          2.042170000000        -0.115996247206
   27          1.114490000000        -0.111953450843
   28          0.598006000000        -0.058918553538
   29         42.524000000000        -0.000018606051
   30         21.395700000000         0.000551740935
   31         13.373700000000        -0.003455429676
   32          6.613370000000         0.012266825437
   33          2.042170000000        -0.021058183917
   34          1.114490000000        -0.020324246816
   35          0.598006000000        -0.010696188596
   36         42.524000000000        -0.000002436885
   37         21.395700000000         0.000072263008
   38         13.373700000000        -0.000452567004
   39          6.613370000000         0.001606619425
   40          2.042170000000        -0.002758047508
   41          1.114490000000        -0.002661921774
   42          0.598006000000        -0.001400908854
   43          0.300337000000         0.201384818227
   44          0.300337000000         0.036559790876
 S 25
    1       9675.549999999999        -0.000005561949
    2       1471.480000000000        -0.000039629085
    3        323.648000000000        -0.000157821087
    4         33.807900000000        -0.015063224310
    5         21.131600000000         0.136196827201
    6         13.209100000000        -0.468332372442
    7          8.256110000000         0.397456098874
    8          5.100140000000         0.425730409226
    9          1.819430000000        -0.528070786898
   10          0.966985000000        -0.424661119129
   11       9675.549999999999         0.000010298929
   12       1471.480000000000         0.000078958818
   13        323.648000000000         0.000343299447
   14         33.807900000000         0.026413459796
   15         21.131600000000        -0.252414354285
   16         13.209100000000         0.923736430182
   17          8.256110000000        -0.890735054049
   18          5.100140000000        -0.786516206882
   19          1.819430000000         1.394372513373
   20          0.966985000000         1.501499107021
   21          0.466351000000        -1.417742269685
   22          0.229518000000        -0.429836015051
   23          0.104071000000        -0.070063601546
   24          0.046125000000         0.024003704672
   25          0.015900000000        -0.005232989705
 P 44
    1         42.524000000000         0.000803562254
    2         21.395700000000        -0.011594827274
    3         13.373700000000         0.055942951372
    4          6.613370000000        -0.173465304962
    5          2.042170000000         0.237850916754
    6          1.114490000000         0.243489370225
    7          0.598006000000         0.102705266801
    8         42.524000000000         0.000144912424
    9         21.395700000000        -0.002090982390
   10         13.373700000000         0.010088613084
   11          6.613370000000        -0.031282302817
   12          2.042170000000         0.042893444339
   13          1.114490000000         0.043910269052
   14          0.598006000000         0.018521613055
   15         42.524000000000         0.000000002177
   16         21.395700000000        -0.000000031413
   17         13.373700000000         0.000000151563
   18          6.613370000000        -0.000000469958
   19          2.042170000000         0.000000644394
   20          1.114490000000         0.000000659670
   21          0.598006000000         0.000000278253
   22         42.524000000000        -0.000522807820
   23         21.395700000000         0.015503261423
   24         13.373700000000        -0.097093447721
   25          6.613370000000         0.344683146807
   26          2.042170000000        -0.591709822232
   27          1.114490000000        -0.571087066111
   28          0.598006000000        -0.300550127094
   29         42.524000000000        -0.000094281865
   30         21.395700000000         0.002795819709
   31         13.373700000000        -0.017509591522
   32          6.613370000000         0.062159303710
   33          2.042170000000        -0.106707481607
   34          1.114490000000        -0.102988424923
   35          0.598006000000        -0.054200464407
   36         42.524000000000        -0.000000001416
   37         21.395700000000         0.000000042002
   38         13.373700000000        -0.000000263049
   39          6.613370000000         0.000000933828
   40          2.042170000000        -0.000001603081
   41          1.114490000000        -0.000001547209
   42          0.598006000000        -0.000000814261
   43          0.300337000000         1.447970809147
   44          0.300337000000         0.261123464036
 S 25
    1       9675.549999999999        -0.000002490516
    2       1471.480000000000        -0.000017745017
    3        323.648000000000        -0.000070668750
    4         33.807900000000        -0.006744974658
    5         21.131600000000         0.060985890475
    6         13.209100000000        -0.209708752830
    7          8.256110000000         0.177971944081
    8          5.100140000000         0.190632547340
    9          1.819430000000        -0.236458277588
   10          0.966985000000        -0.190153743171
   11       9675.549999999999         0.000003402066
   12       1471.480000000000         0.000026082627
   13        323.648000000000         0.000113402806
   14         33.807900000000         0.008725211965
   15         21.131600000000        -0.083380547692
   16         13.209100000000         0.305139736170
   17          8.256110000000        -0.294238324384
   18          5.100140000000        -0.259811500358
   19          1.819430000000         0.460605911980
   20          0.966985000000         0.495993257823
   21          0.466351000000        -0.655374185686
   22          0.229518000000        -0.174415986981
   23          0.104071000000         0.209159101776
   24          0.046125000000         1.482206353155
   25          0.015900000000        -1.782894596256
 S 25
    1       9675.549999999999        -0.000002971871
    2       1471.480000000000        -0.000021174685
    3        323.648000000000        -0.000084327254
    4         33.807900000000        -0.008048609752
    5         21.131600000000         0.072772939513
    6         13.209100000000        -0.250240215667
    7          8.256110000000         0.212369474657
    8          5.100140000000         0.227477056230
    9          1.819430000000        -0.282159755285
   10          0.966985000000        -0.226905711177
   11       9675.549999999999         0.000004530606
   12       1471.480000000000         0.000034734807
   13        323.648000000000         0.000151021006
   14         33.807900000000         0.011619556343
   15         21.131600000000        -0.111039706043
   16         13.209100000000         0.406361286224
   17          8.256110000000        -0.391843636801
   18          5.100140000000        -0.345996679379
   19          1.819430000000         0.613399005924
   20          0.966985000000         0.660525111338
   21          0.466351000000        -0.134481475288
   22          0.229518000000        -3.513180124246
   23          0.104071000000         7.123409463552
   24          0.046125000000        -5.684388487825
   25          0.015900000000         1.766037575960
 S 25
    1       9675.549999999999        -0.000023064311
    2       1471.480000000000        -0.000164334043
    3        323.648000000000        -0.000654453099
    4         33.807900000000        -0.062464237322
    5         21.131600000000         0.564781534255
    6         13.209100000000        -1.942082508719
    7          8.256110000000         1.648172501043
    8          5.100140000000         1.765420521491
    9          1.819430000000        -2.189805998787
   10          0.966985000000        -1.760986385144
   11       9675.549999999999         0.000026776434
   12       1471.480000000000         0.000205286942
   13        323.648000000000         0.000892552541
   14         33.807900000000         0.068672993347
   15         21.131600000000        -0.656258188303
   16         13.209100000000         2.401644699872
   17          8.256110000000        -2.315843623409
   18          5.100140000000        -2.044882520495
   19          1.819430000000         3.625262842271
   20          0.966985000000         3.903783865633
   21          0.466351000000        -9.690296221786
   22          0.229518000000        12.531033404303
   23          0.104071000000        -8.716508532396
   24          0.046125000000         3.657874564157
   25          0.015900000000        -0.743082140998
 P 44
    1         42.524000000000        -0.000147269746
    2         21.395700000000         0.002124996866
    3         13.373700000000        -0.010252726802
    4          6.613370000000         0.031791179011
    5          2.042170000000        -0.043591201561
    6          1.114490000000        -0.044624567188
    7          0.598006000000        -0.018822908263
    8         42.524000000000         0.000816634602
    9         21.395700000000        -0.011783451882
   10         13.373700000000         0.056853031103
   11          6.613370000000        -0.176287237917
   12          2.042170000000         0.241720274610
   13          1.114490000000         0.247450454421
   14          0.598006000000         0.104376075710
   15         42.524000000000        -0.000041371199
   16         21.395700000000         0.000596956751
   17         13.373700000000        -0.002880208707
   18          6.613370000000         0.008930817366
   19          2.042170000000        -0.012245694310
   20          1.114490000000        -0.012535988661
   21          0.598006000000        -0.005287754693
   22         42.524000000000         0.000095231722
   23         21.395700000000        -0.002823986611
   24         13.373700000000         0.017685994505
   25          6.613370000000        -0.062785536856
   26          2.042170000000         0.107782521995
   27          1.114490000000         0.104025997122
   28          0.598006000000         0.054746515043
   29         42.524000000000        -0.000528075327
   30         21.395700000000         0.015659463253
   31         13.373700000000        -0.098071704736
   32          6.613370000000         0.348155973388
   33          2.042170000000        -0.597671545681
   34          1.114490000000        -0.576841006685
   35          0.598006000000        -0.303578295079
   36         42.524000000000         0.000026752613
   37         21.395700000000        -0.000793317815
   38         13.373700000000         0.004968371472
   39          6.613370000000        -0.017637790744
   40          2.042170000000         0.030278399517
   41          1.114490000000         0.029223111899
   42          0.598006000000         0.015379458784
   43          0.300337000000        -0.264887965525
   44          0.300337000000         1.468846681793
 P 44
    1         42.524000000000        -0.000003890733
    2         21.395700000000         0.000056140487
    3         13.373700000000        -0.000270867729
    4          6.613370000000         0.000839894071
    5          2.042170000000        -0.001151639947
    6          1.114490000000        -0.001178940529
    7          0.598006000000        -0.000497284138
    8         42.524000000000         0.000022111478
    9         21.395700000000        -0.000319052782
   10         13.373700000000         0.001539372159
   11          6.613370000000        -0.004773213683
   12          2.042170000000         0.006544901015
   13          1.114490000000         0.006700053327
   14          0.598006000000         0.002826122405
   15         42.524000000000         0.000450312919
   16         21.395700000000        -0.006497692613
   17         13.373700000000         0.031350195505
   18          6.613370000000        -0.097209229948
   19          2.042170000000         0.133290656971
   20          1.114490000000         0.136450422667
   21          0.598006000000         0.057555601101
   22         42.524000000000         0.000002096209
   23         21.395700000000        -0.000062160641
   24         13.373700000000         0.000389298148
   25          6.613370000000        -0.001382014068
   26          2.042170000000         0.002372472534
   27          1.114490000000         0.002289785175
   28          0.598006000000         0.001205061830
   29         42.524000000000        -0.000011912992
   30         21.395700000000         0.000353266005
   31         13.373700000000        -0.002212425723
   32          6.613370000000         0.007854143387
   33          2.042170000000        -0.013483031678
   34          1.114490000000        -0.013013109997
   35          0.598006000000        -0.006848503662
   36         42.524000000000        -0.000242614904
   37         21.395700000000         0.007194464478
   38         13.373700000000        -0.045057316752
   39          6.613370000000         0.159954127589
   40          2.042170000000        -0.274589660904
   41          1.114490000000        -0.265019436788
   42          0.598006000000        -0.139473698733
   43          0.300337000000        -0.007534956272
   44          0.300337000000         0.042822014869
 P 44
    1         42.524000000000        -0.000019209253
    2         21.395700000000         0.000277175754
    3         13.373700000000        -0.001337323045
    4          6.613370000000         0.004146709177
    5          2.042170000000        -0.005685855044
    6          1.114490000000        -0.005820642959
    7          0.598006000000        -0.002455181873
    8         42.524000000000         0.000106518421
    9         21.395700000000        -0.001536984458
   10         13.373700000000         0.007415672936
   11          6.613370000000        -0.022994174168
   12          2.042170000000         0.031528987351
   13          1.114490000000         0.032276408174
   14          0.598006000000         0.013614381235
   15         42.524000000000        -0.000005396287
   16         21.395700000000         0.000077864556
   17         13.373700000000        -0.000375682445
   18          6.613370000000         0.001164898676
   19          2.042170000000        -0.001597277438
   20          1.114490000000        -0.001635142226
   21          0.598006000000        -0.000689712731
   22         42.524000000000         0.000010031392
   23         21.395700000000        -0.000297469320
   24         13.373700000000         0.001862983607
   25          6.613370000000        -0.006613618809
   26          2.042170000000         0.011353450977
   27          1.114490000000         0.010957751190
   28          0.598006000000         0.005766815094
   29         42.524000000000        -0.000055625692
   30         21.395700000000         0.001649515572
   31         13.373700000000        -0.010330545912
   32          6.613370000000         0.036673587732
   33          2.042170000000        -0.062956724976
   34          1.114490000000        -0.060762505552
   35          0.598006000000        -0.031977923945
   36         42.524000000000         0.000002818031
   37         21.395700000000        -0.000083565450
   38         13.373700000000         0.000523351661
   39          6.613370000000        -0.001857905984
   40          2.042170000000         0.003189425505
   41          1.114490000000         0.003078265031
   42          0.598006000000         0.001620020836
   43          0.300337000000        -0.040829540877
   44          0.300337000000         0.226406418721
 P 44
    1         42.524000000000        -0.000046727969
    2         21.395700000000         0.000674251098
    3         13.373700000000        -0.003253140001
    4          6.613370000000         0.010087185401
    5          2.042170000000        -0.013831274765
    6          1.114490000000        -0.014159156617
    7          0.598006000000        -0.005972416606
    8         42.524000000000         0.000259114160
    9         21.395700000000        -0.003738831572
   10         13.373700000000         0.018039188328
   11          6.613370000000        -0.055935077214
   12          2.042170000000         0.076696659295
   13          1.114490000000         0.078514817285
   14          0.598006000000         0.033118017635
   15         42.524000000000        -0.000013126879
   16         21.395700000000         0.000189411453
   17         13.373700000000        -0.000913876117
   18          6.613370000000         0.002833704611
   19          2.042170000000        -0.003885498831
   20          1.114490000000        -0.003977607807
   21          0.598006000000        -0.001677778667
   22         42.524000000000         0.000025191601
   23         21.395700000000        -0.000747027807
   24         13.373700000000         0.004678467539
   25          6.613370000000        -0.016608627578
   26          2.042170000000         0.028511658207
   27          1.114490000000         0.027517946507
   28          0.598006000000         0.014482069041
   29         42.524000000000        -0.000139691510
   30         21.395700000000         0.004142390211
   31         13.373700000000        -0.025942860433
   32          6.613370000000         0.092097530585
   33          2.042170000000        -0.158101763766
   34          1.114490000000        -0.152591471400
   35          0.598006000000        -0.080305418988
   36         42.524000000000         0.000007076856
   37         21.395700000000        -0.000209855976
   38         13.373700000000         0.001314280893
   39          6.613370000000        -0.004665716221
   40          2.042170000000         0.008009530322
   41          1.114490000000         0.007730375601
   42          0.598006000000         0.004068320764
   43          0.300337000000        -0.077419257867
   44          0.300337000000         0.429302327111
 P 44
    1         42.524000000000        -0.000179658124
    2         21.395700000000         0.002592337937
    3         13.373700000000        -0.012507563219
    4          6.613370000000         0.038782871030
    5          2.042170000000        -0.053178019840
    6          1.114490000000        -0.054438648954
    7          0.598006000000        -0.022962546414
    8         42.524000000000         0.000996233402
    9         21.395700000000        -0.014374933829
   10         13.373700000000         0.069356464326
   11          6.613370000000        -0.215057302847
   12          2.042170000000         0.294880735073
   13          1.114490000000         0.301871127740
   14          0.598006000000         0.127331039894
   15         42.524000000000        -0.000050469783
   16         21.395700000000         0.000728242783
   17         13.373700000000        -0.003513640144
   18          6.613370000000         0.010894932144
   19          2.042170000000        -0.014938835170
   20          1.114490000000        -0.015292972661
   21          0.598006000000        -0.006450666967
   22         42.524000000000         0.000087803544
   23         21.395700000000        -0.002603712569
   24         13.373700000000         0.016306467605
   25          6.613370000000        -0.057888196366
   26          2.042170000000         0.099375367488
   27          1.114490000000         0.095911855660
   28          0.598006000000         0.050476227039
   29         42.524000000000        -0.000486884874
   30         21.395700000000         0.014438008006
   31         13.373700000000        -0.090422004587
   32          6.613370000000         0.320999426977
   33          2.042170000000        -0.551052511945
   34          1.114490000000        -0.531846777755
   35          0.598006000000        -0.279898856294
   36         42.524000000000         0.000024665880
   37         21.395700000000        -0.000731438158
   38         13.373700000000         0.004580833068
   39          6.613370000000        -0.016262023791
   40          2.042170000000         0.027916651265
   41          1.114490000000         0.026943677234
   42          0.598006000000         0.014179844191
   43          0.300337000000        -0.451025274082
   44          0.300337000000         2.501008212760
 P 44
    1         42.524000000000         0.007009410759
    2         21.395700000000        -0.101140772431
    3         13.373700000000         0.487985994114
    4          6.613370000000        -1.513124302706
    5          2.042170000000         2.074754964059
    6          1.114490000000         2.123938753165
    7          0.598006000000         0.895890018158
    8         42.524000000000        -0.038868319450
    9         21.395700000000         0.560841986216
   10         13.373700000000        -2.705961479294
   11          6.613370000000         8.390519658130
   12          2.042170000000       -11.504852761012
   13          1.114490000000       -11.777584848267
   14          0.598006000000        -4.967855446796
   15         42.524000000000         0.001969092404
   16         21.395700000000        -0.028412591817
   17         13.373700000000         0.137085633518
   18          6.613370000000        -0.425068764532
   19          2.042170000000         0.582842749735
   20          1.114490000000         0.596659521056
   21          0.598006000000         0.251674540217
   22         42.524000000000        -0.001797492921
   23         21.395700000000         0.053302574314
   24         13.373700000000        -0.333822063070
   25          6.613370000000         1.185073162744
   26          2.042170000000        -2.034388501306
   27          1.114490000000        -1.963484324394
   28          0.598006000000        -1.033337118386
   29         42.524000000000         0.009967389763
   30         21.395700000000        -0.295571419221
   31         13.373700000000         1.851097479234
   32          6.613370000000        -6.571422883463
   33          2.042170000000        11.281014178389
   34          1.114490000000        10.887839018115
   35          0.598006000000         5.730021908837
   36         42.524000000000        -0.000504953951
   37         21.395700000000         0.014973825593
   38         13.373700000000        -0.093777709914
   39          6.613370000000         0.332912229529
   40          2.042170000000        -0.571502952721
   41          1.114490000000        -0.551584462993
   42          0.598006000000        -0.290286350879
   43          0.300337000000         0.016266286909
   44          0.300337000000        -0.090199199003
 end
  // -----------------------------------------------
  // The basis set
  // -----------------------------------------------
  BAS[ATNO] = new BFNGauss[NSH];
  // Basis function   1 L = s
  InitBFNGauss(BAS[ATNO][  0]);
  BAS[ATNO][  0].l  = 0;
  BAS[ATNO][  0].ng = 25;
  BAS[ATNO][  0].a[  0] =      9675.549999999999;     BAS[ATNO][  0].d[  0] =         0.000007016474;
  BAS[ATNO][  0].a[  1] =      1471.480000000000;     BAS[ATNO][  0].d[  1] =         0.000049992626;
  BAS[ATNO][  0].a[  2] =       323.648000000000;     BAS[ATNO][  0].d[  2] =         0.000199093436;
  BAS[ATNO][  0].a[  3] =        33.807900000000;     BAS[ATNO][  0].d[  3] =         0.019002461175;
  BAS[ATNO][  0].a[  4] =        21.131600000000;     BAS[ATNO][  0].d[  4] =        -0.171814139372;
  BAS[ATNO][  0].a[  5] =        13.209100000000;     BAS[ATNO][  0].d[  5] =         0.590807621330;
  BAS[ATNO][  0].a[  6] =         8.256110000000;     BAS[ATNO][  0].d[  6] =        -0.501396243729;
  BAS[ATNO][  0].a[  7] =         5.100140000000;     BAS[ATNO][  0].d[  7] =        -0.537064668606;
  BAS[ATNO][  0].a[  8] =         1.819430000000;     BAS[ATNO][  0].d[  8] =         0.666168439039;
  BAS[ATNO][  0].a[  9] =         0.966985000000;     BAS[ATNO][  0].d[  9] =         0.535715744687;
  BAS[ATNO][  0].a[ 10] =      9675.549999999999;     BAS[ATNO][  0].d[ 10] =         0.000001484405;
  BAS[ATNO][  0].a[ 11] =      1471.480000000000;     BAS[ATNO][  0].d[ 11] =         0.000011380492;
  BAS[ATNO][  0].a[ 12] =       323.648000000000;     BAS[ATNO][  0].d[ 12] =         0.000049480436;
  BAS[ATNO][  0].a[ 13] =        33.807900000000;     BAS[ATNO][  0].d[ 13] =         0.003807024795;
  BAS[ATNO][  0].a[ 14] =        21.131600000000;     BAS[ATNO][  0].d[ 14] =        -0.036380985785;
  BAS[ATNO][  0].a[ 15] =        13.209100000000;     BAS[ATNO][  0].d[ 15] =         0.133139979422;
  BAS[ATNO][  0].a[ 16] =         8.256110000000;     BAS[ATNO][  0].d[ 16] =        -0.128383425068;
  BAS[ATNO][  0].a[ 17] =         5.100140000000;     BAS[ATNO][  0].d[ 17] =        -0.113362154158;
  BAS[ATNO][  0].a[ 18] =         1.819430000000;     BAS[ATNO][  0].d[ 18] =         0.200973699501;
  BAS[ATNO][  0].a[ 19] =         0.966985000000;     BAS[ATNO][  0].d[ 19] =         0.216414069728;
  BAS[ATNO][  0].a[ 20] =         0.466351000000;     BAS[ATNO][  0].d[ 20] =        -0.222947521203;
  BAS[ATNO][  0].a[ 21] =         0.229518000000;     BAS[ATNO][  0].d[ 21] =         0.161672575009;
  BAS[ATNO][  0].a[ 22] =         0.104071000000;     BAS[ATNO][  0].d[ 22] =        -0.082417244499;
  BAS[ATNO][  0].a[ 23] =         0.046125000000;     BAS[ATNO][  0].d[ 23] =         0.031817185673;
  BAS[ATNO][  0].a[ 24] =         0.015900000000;     BAS[ATNO][  0].d[ 24] =        -0.006605772824;

  // Basis function   2 L = p
  InitBFNGauss(BAS[ATNO][  1]);
  BAS[ATNO][  1].l  = 1;
  BAS[ATNO][  1].ng = 44;
  BAS[ATNO][  1].a[  0] =        42.524000000000;     BAS[ATNO][  1].d[  0] =         0.001351505851;
  BAS[ATNO][  1].a[  1] =        21.395700000000;     BAS[ATNO][  1].d[  1] =        -0.019501260578;
  BAS[ATNO][  1].a[  2] =        13.373700000000;     BAS[ATNO][  1].d[  2] =         0.094090066755;
  BAS[ATNO][  1].a[  3] =         6.613370000000;     BAS[ATNO][  1].d[  3] =        -0.291750108337;
  BAS[ATNO][  1].a[  4] =         2.042170000000;     BAS[ATNO][  1].d[  4] =         0.400039827828;
  BAS[ATNO][  1].a[  5] =         1.114490000000;     BAS[ATNO][  1].d[  5] =         0.409523104102;
  BAS[ATNO][  1].a[  6] =         0.598006000000;     BAS[ATNO][  1].d[  6] =         0.172739284795;
  BAS[ATNO][  1].a[  7] =        42.524000000000;     BAS[ATNO][  1].d[  7] =         0.000245354996;
  BAS[ATNO][  1].a[  8] =        21.395700000000;     BAS[ATNO][  1].d[  8] =        -0.003540296706;
  BAS[ATNO][  1].a[  9] =        13.373700000000;     BAS[ATNO][  1].d[  9] =         0.017081293388;
  BAS[ATNO][  1].a[ 10] =         6.613370000000;     BAS[ATNO][  1].d[ 10] =        -0.052964881081;
  BAS[ATNO][  1].a[ 11] =         2.042170000000;     BAS[ATNO][  1].d[ 11] =         0.072624006994;
  BAS[ATNO][  1].a[ 12] =         1.114490000000;     BAS[ATNO][  1].d[ 12] =         0.074345619380;
  BAS[ATNO][  1].a[ 13] =         0.598006000000;     BAS[ATNO][  1].d[ 13] =         0.031359425123;
  BAS[ATNO][  1].a[ 14] =        42.524000000000;     BAS[ATNO][  1].d[ 14] =         0.000032134810;
  BAS[ATNO][  1].a[ 15] =        21.395700000000;     BAS[ATNO][  1].d[ 15] =        -0.000463682269;
  BAS[ATNO][  1].a[ 16] =        13.373700000000;     BAS[ATNO][  1].d[ 16] =         0.002237183361;
  BAS[ATNO][  1].a[ 17] =         6.613370000000;     BAS[ATNO][  1].d[ 17] =        -0.006936954244;
  BAS[ATNO][  1].a[ 18] =         2.042170000000;     BAS[ATNO][  1].d[ 18] =         0.009511763328;
  BAS[ATNO][  1].a[ 19] =         1.114490000000;     BAS[ATNO][  1].d[ 19] =         0.009737247575;
  BAS[ATNO][  1].a[ 20] =         0.598006000000;     BAS[ATNO][  1].d[ 20] =         0.004107229031;
  BAS[ATNO][  1].a[ 21] =        42.524000000000;     BAS[ATNO][  1].d[ 21] =         0.000102488995;
  BAS[ATNO][  1].a[ 22] =        21.395700000000;     BAS[ATNO][  1].d[ 22] =        -0.003039192653;
  BAS[ATNO][  1].a[ 23] =        13.373700000000;     BAS[ATNO][  1].d[ 23] =         0.019033781662;
  BAS[ATNO][  1].a[ 24] =         6.613370000000;     BAS[ATNO][  1].d[ 24] =        -0.067570200802;
  BAS[ATNO][  1].a[ 25] =         2.042170000000;     BAS[ATNO][  1].d[ 25] =         0.115996247206;
  BAS[ATNO][  1].a[ 26] =         1.114490000000;     BAS[ATNO][  1].d[ 26] =         0.111953450843;
  BAS[ATNO][  1].a[ 27] =         0.598006000000;     BAS[ATNO][  1].d[ 27] =         0.058918553538;
  BAS[ATNO][  1].a[ 28] =        42.524000000000;     BAS[ATNO][  1].d[ 28] =         0.000018606051;
  BAS[ATNO][  1].a[ 29] =        21.395700000000;     BAS[ATNO][  1].d[ 29] =        -0.000551740935;
  BAS[ATNO][  1].a[ 30] =        13.373700000000;     BAS[ATNO][  1].d[ 30] =         0.003455429676;
  BAS[ATNO][  1].a[ 31] =         6.613370000000;     BAS[ATNO][  1].d[ 31] =        -0.012266825437;
  BAS[ATNO][  1].a[ 32] =         2.042170000000;     BAS[ATNO][  1].d[ 32] =         0.021058183917;
  BAS[ATNO][  1].a[ 33] =         1.114490000000;     BAS[ATNO][  1].d[ 33] =         0.020324246816;
  BAS[ATNO][  1].a[ 34] =         0.598006000000;     BAS[ATNO][  1].d[ 34] =         0.010696188596;
  BAS[ATNO][  1].a[ 35] =        42.524000000000;     BAS[ATNO][  1].d[ 35] =         0.000002436885;
  BAS[ATNO][  1].a[ 36] =        21.395700000000;     BAS[ATNO][  1].d[ 36] =        -0.000072263008;
  BAS[ATNO][  1].a[ 37] =        13.373700000000;     BAS[ATNO][  1].d[ 37] =         0.000452567004;
  BAS[ATNO][  1].a[ 38] =         6.613370000000;     BAS[ATNO][  1].d[ 38] =        -0.001606619425;
  BAS[ATNO][  1].a[ 39] =         2.042170000000;     BAS[ATNO][  1].d[ 39] =         0.002758047508;
  BAS[ATNO][  1].a[ 40] =         1.114490000000;     BAS[ATNO][  1].d[ 40] =         0.002661921774;
  BAS[ATNO][  1].a[ 41] =         0.598006000000;     BAS[ATNO][  1].d[ 41] =         0.001400908854;
  BAS[ATNO][  1].a[ 42] =         0.300337000000;     BAS[ATNO][  1].d[ 42] =        -0.201384818227;
  BAS[ATNO][  1].a[ 43] =         0.300337000000;     BAS[ATNO][  1].d[ 43] =        -0.036559790876;

  // Basis function   3 L = s
  InitBFNGauss(BAS[ATNO][  2]);
  BAS[ATNO][  2].l  = 0;
  BAS[ATNO][  2].ng = 25;
  BAS[ATNO][  2].a[  0] =      9675.549999999999;     BAS[ATNO][  2].d[  0] =        -0.000005561949;
  BAS[ATNO][  2].a[  1] =      1471.480000000000;     BAS[ATNO][  2].d[  1] =        -0.000039629085;
  BAS[ATNO][  2].a[  2] =       323.648000000000;     BAS[ATNO][  2].d[  2] =        -0.000157821087;
  BAS[ATNO][  2].a[  3] =        33.807900000000;     BAS[ATNO][  2].d[  3] =        -0.015063224310;
  BAS[ATNO][  2].a[  4] =        21.131600000000;     BAS[ATNO][  2].d[  4] =         0.136196827201;
  BAS[ATNO][  2].a[  5] =        13.209100000000;     BAS[ATNO][  2].d[  5] =        -0.468332372442;
  BAS[ATNO][  2].a[  6] =         8.256110000000;     BAS[ATNO][  2].d[  6] =         0.397456098874;
  BAS[ATNO][  2].a[  7] =         5.100140000000;     BAS[ATNO][  2].d[  7] =         0.425730409226;
  BAS[ATNO][  2].a[  8] =         1.819430000000;     BAS[ATNO][  2].d[  8] =        -0.528070786898;
  BAS[ATNO][  2].a[  9] =         0.966985000000;     BAS[ATNO][  2].d[  9] =        -0.424661119129;
  BAS[ATNO][  2].a[ 10] =      9675.549999999999;     BAS[ATNO][  2].d[ 10] =         0.000010298929;
  BAS[ATNO][  2].a[ 11] =      1471.480000000000;     BAS[ATNO][  2].d[ 11] =         0.000078958818;
  BAS[ATNO][  2].a[ 12] =       323.648000000000;     BAS[ATNO][  2].d[ 12] =         0.000343299447;
  BAS[ATNO][  2].a[ 13] =        33.807900000000;     BAS[ATNO][  2].d[ 13] =         0.026413459796;
  BAS[ATNO][  2].a[ 14] =        21.131600000000;     BAS[ATNO][  2].d[ 14] =        -0.252414354285;
  BAS[ATNO][  2].a[ 15] =        13.209100000000;     BAS[ATNO][  2].d[ 15] =         0.923736430182;
  BAS[ATNO][  2].a[ 16] =         8.256110000000;     BAS[ATNO][  2].d[ 16] =        -0.890735054049;
  BAS[ATNO][  2].a[ 17] =         5.100140000000;     BAS[ATNO][  2].d[ 17] =        -0.786516206882;
  BAS[ATNO][  2].a[ 18] =         1.819430000000;     BAS[ATNO][  2].d[ 18] =         1.394372513373;
  BAS[ATNO][  2].a[ 19] =         0.966985000000;     BAS[ATNO][  2].d[ 19] =         1.501499107021;
  BAS[ATNO][  2].a[ 20] =         0.466351000000;     BAS[ATNO][  2].d[ 20] =        -1.417742269685;
  BAS[ATNO][  2].a[ 21] =         0.229518000000;     BAS[ATNO][  2].d[ 21] =        -0.429836015051;
  BAS[ATNO][  2].a[ 22] =         0.104071000000;     BAS[ATNO][  2].d[ 22] =        -0.070063601546;
  BAS[ATNO][  2].a[ 23] =         0.046125000000;     BAS[ATNO][  2].d[ 23] =         0.024003704672;
  BAS[ATNO][  2].a[ 24] =         0.015900000000;     BAS[ATNO][  2].d[ 24] =        -0.005232989705;

  // Basis function   4 L = p
  InitBFNGauss(BAS[ATNO][  3]);
  BAS[ATNO][  3].l  = 1;
  BAS[ATNO][  3].ng = 44;
  BAS[ATNO][  3].a[  0] =        42.524000000000;     BAS[ATNO][  3].d[  0] =         0.000803562254;
  BAS[ATNO][  3].a[  1] =        21.395700000000;     BAS[ATNO][  3].d[  1] =        -0.011594827274;
  BAS[ATNO][  3].a[  2] =        13.373700000000;     BAS[ATNO][  3].d[  2] =         0.055942951372;
  BAS[ATNO][  3].a[  3] =         6.613370000000;     BAS[ATNO][  3].d[  3] =        -0.173465304962;
  BAS[ATNO][  3].a[  4] =         2.042170000000;     BAS[ATNO][  3].d[  4] =         0.237850916754;
  BAS[ATNO][  3].a[  5] =         1.114490000000;     BAS[ATNO][  3].d[  5] =         0.243489370225;
  BAS[ATNO][  3].a[  6] =         0.598006000000;     BAS[ATNO][  3].d[  6] =         0.102705266801;
  BAS[ATNO][  3].a[  7] =        42.524000000000;     BAS[ATNO][  3].d[  7] =         0.000144912424;
  BAS[ATNO][  3].a[  8] =        21.395700000000;     BAS[ATNO][  3].d[  8] =        -0.002090982390;
  BAS[ATNO][  3].a[  9] =        13.373700000000;     BAS[ATNO][  3].d[  9] =         0.010088613084;
  BAS[ATNO][  3].a[ 10] =         6.613370000000;     BAS[ATNO][  3].d[ 10] =        -0.031282302817;
  BAS[ATNO][  3].a[ 11] =         2.042170000000;     BAS[ATNO][  3].d[ 11] =         0.042893444339;
  BAS[ATNO][  3].a[ 12] =         1.114490000000;     BAS[ATNO][  3].d[ 12] =         0.043910269052;
  BAS[ATNO][  3].a[ 13] =         0.598006000000;     BAS[ATNO][  3].d[ 13] =         0.018521613055;
  BAS[ATNO][  3].a[ 14] =        42.524000000000;     BAS[ATNO][  3].d[ 14] =         0.000000002177;
  BAS[ATNO][  3].a[ 15] =        21.395700000000;     BAS[ATNO][  3].d[ 15] =        -0.000000031413;
  BAS[ATNO][  3].a[ 16] =        13.373700000000;     BAS[ATNO][  3].d[ 16] =         0.000000151563;
  BAS[ATNO][  3].a[ 17] =         6.613370000000;     BAS[ATNO][  3].d[ 17] =        -0.000000469958;
  BAS[ATNO][  3].a[ 18] =         2.042170000000;     BAS[ATNO][  3].d[ 18] =         0.000000644394;
  BAS[ATNO][  3].a[ 19] =         1.114490000000;     BAS[ATNO][  3].d[ 19] =         0.000000659670;
  BAS[ATNO][  3].a[ 20] =         0.598006000000;     BAS[ATNO][  3].d[ 20] =         0.000000278253;
  BAS[ATNO][  3].a[ 21] =        42.524000000000;     BAS[ATNO][  3].d[ 21] =        -0.000522807820;
  BAS[ATNO][  3].a[ 22] =        21.395700000000;     BAS[ATNO][  3].d[ 22] =         0.015503261423;
  BAS[ATNO][  3].a[ 23] =        13.373700000000;     BAS[ATNO][  3].d[ 23] =        -0.097093447721;
  BAS[ATNO][  3].a[ 24] =         6.613370000000;     BAS[ATNO][  3].d[ 24] =         0.344683146807;
  BAS[ATNO][  3].a[ 25] =         2.042170000000;     BAS[ATNO][  3].d[ 25] =        -0.591709822232;
  BAS[ATNO][  3].a[ 26] =         1.114490000000;     BAS[ATNO][  3].d[ 26] =        -0.571087066111;
  BAS[ATNO][  3].a[ 27] =         0.598006000000;     BAS[ATNO][  3].d[ 27] =        -0.300550127094;
  BAS[ATNO][  3].a[ 28] =        42.524000000000;     BAS[ATNO][  3].d[ 28] =        -0.000094281865;
  BAS[ATNO][  3].a[ 29] =        21.395700000000;     BAS[ATNO][  3].d[ 29] =         0.002795819709;
  BAS[ATNO][  3].a[ 30] =        13.373700000000;     BAS[ATNO][  3].d[ 30] =        -0.017509591522;
  BAS[ATNO][  3].a[ 31] =         6.613370000000;     BAS[ATNO][  3].d[ 31] =         0.062159303710;
  BAS[ATNO][  3].a[ 32] =         2.042170000000;     BAS[ATNO][  3].d[ 32] =        -0.106707481607;
  BAS[ATNO][  3].a[ 33] =         1.114490000000;     BAS[ATNO][  3].d[ 33] =        -0.102988424923;
  BAS[ATNO][  3].a[ 34] =         0.598006000000;     BAS[ATNO][  3].d[ 34] =        -0.054200464407;
  BAS[ATNO][  3].a[ 35] =        42.524000000000;     BAS[ATNO][  3].d[ 35] =        -0.000000001416;
  BAS[ATNO][  3].a[ 36] =        21.395700000000;     BAS[ATNO][  3].d[ 36] =         0.000000042002;
  BAS[ATNO][  3].a[ 37] =        13.373700000000;     BAS[ATNO][  3].d[ 37] =        -0.000000263049;
  BAS[ATNO][  3].a[ 38] =         6.613370000000;     BAS[ATNO][  3].d[ 38] =         0.000000933828;
  BAS[ATNO][  3].a[ 39] =         2.042170000000;     BAS[ATNO][  3].d[ 39] =        -0.000001603081;
  BAS[ATNO][  3].a[ 40] =         1.114490000000;     BAS[ATNO][  3].d[ 40] =        -0.000001547209;
  BAS[ATNO][  3].a[ 41] =         0.598006000000;     BAS[ATNO][  3].d[ 41] =        -0.000000814261;
  BAS[ATNO][  3].a[ 42] =         0.300337000000;     BAS[ATNO][  3].d[ 42] =         1.447970809147;
  BAS[ATNO][  3].a[ 43] =         0.300337000000;     BAS[ATNO][  3].d[ 43] =         0.261123464036;

  // Basis function   5 L = s
  InitBFNGauss(BAS[ATNO][  4]);
  BAS[ATNO][  4].l  = 0;
  BAS[ATNO][  4].ng = 25;
  BAS[ATNO][  4].a[  0] =      9675.549999999999;     BAS[ATNO][  4].d[  0] =         0.000002490516;
  BAS[ATNO][  4].a[  1] =      1471.480000000000;     BAS[ATNO][  4].d[  1] =         0.000017745017;
  BAS[ATNO][  4].a[  2] =       323.648000000000;     BAS[ATNO][  4].d[  2] =         0.000070668750;
  BAS[ATNO][  4].a[  3] =        33.807900000000;     BAS[ATNO][  4].d[  3] =         0.006744974658;
  BAS[ATNO][  4].a[  4] =        21.131600000000;     BAS[ATNO][  4].d[  4] =        -0.060985890475;
  BAS[ATNO][  4].a[  5] =        13.209100000000;     BAS[ATNO][  4].d[  5] =         0.209708752830;
  BAS[ATNO][  4].a[  6] =         8.256110000000;     BAS[ATNO][  4].d[  6] =        -0.177971944081;
  BAS[ATNO][  4].a[  7] =         5.100140000000;     BAS[ATNO][  4].d[  7] =        -0.190632547340;
  BAS[ATNO][  4].a[  8] =         1.819430000000;     BAS[ATNO][  4].d[  8] =         0.236458277588;
  BAS[ATNO][  4].a[  9] =         0.966985000000;     BAS[ATNO][  4].d[  9] =         0.190153743171;
  BAS[ATNO][  4].a[ 10] =      9675.549999999999;     BAS[ATNO][  4].d[ 10] =        -0.000003402066;
  BAS[ATNO][  4].a[ 11] =      1471.480000000000;     BAS[ATNO][  4].d[ 11] =        -0.000026082627;
  BAS[ATNO][  4].a[ 12] =       323.648000000000;     BAS[ATNO][  4].d[ 12] =        -0.000113402806;
  BAS[ATNO][  4].a[ 13] =        33.807900000000;     BAS[ATNO][  4].d[ 13] =        -0.008725211965;
  BAS[ATNO][  4].a[ 14] =        21.131600000000;     BAS[ATNO][  4].d[ 14] =         0.083380547692;
  BAS[ATNO][  4].a[ 15] =        13.209100000000;     BAS[ATNO][  4].d[ 15] =        -0.305139736170;
  BAS[ATNO][  4].a[ 16] =         8.256110000000;     BAS[ATNO][  4].d[ 16] =         0.294238324384;
  BAS[ATNO][  4].a[ 17] =         5.100140000000;     BAS[ATNO][  4].d[ 17] =         0.259811500358;
  BAS[ATNO][  4].a[ 18] =         1.819430000000;     BAS[ATNO][  4].d[ 18] =        -0.460605911980;
  BAS[ATNO][  4].a[ 19] =         0.966985000000;     BAS[ATNO][  4].d[ 19] =        -0.495993257823;
  BAS[ATNO][  4].a[ 20] =         0.466351000000;     BAS[ATNO][  4].d[ 20] =         0.655374185686;
  BAS[ATNO][  4].a[ 21] =         0.229518000000;     BAS[ATNO][  4].d[ 21] =         0.174415986981;
  BAS[ATNO][  4].a[ 22] =         0.104071000000;     BAS[ATNO][  4].d[ 22] =        -0.209159101776;
  BAS[ATNO][  4].a[ 23] =         0.046125000000;     BAS[ATNO][  4].d[ 23] =        -1.482206353155;
  BAS[ATNO][  4].a[ 24] =         0.015900000000;     BAS[ATNO][  4].d[ 24] =         1.782894596256;

  // Basis function   6 L = s
  InitBFNGauss(BAS[ATNO][  5]);
  BAS[ATNO][  5].l  = 0;
  BAS[ATNO][  5].ng = 25;
  BAS[ATNO][  5].a[  0] =      9675.549999999999;     BAS[ATNO][  5].d[  0] =        -0.000002971871;
  BAS[ATNO][  5].a[  1] =      1471.480000000000;     BAS[ATNO][  5].d[  1] =        -0.000021174685;
  BAS[ATNO][  5].a[  2] =       323.648000000000;     BAS[ATNO][  5].d[  2] =        -0.000084327254;
  BAS[ATNO][  5].a[  3] =        33.807900000000;     BAS[ATNO][  5].d[  3] =        -0.008048609752;
  BAS[ATNO][  5].a[  4] =        21.131600000000;     BAS[ATNO][  5].d[  4] =         0.072772939513;
  BAS[ATNO][  5].a[  5] =        13.209100000000;     BAS[ATNO][  5].d[  5] =        -0.250240215667;
  BAS[ATNO][  5].a[  6] =         8.256110000000;     BAS[ATNO][  5].d[  6] =         0.212369474657;
  BAS[ATNO][  5].a[  7] =         5.100140000000;     BAS[ATNO][  5].d[  7] =         0.227477056230;
  BAS[ATNO][  5].a[  8] =         1.819430000000;     BAS[ATNO][  5].d[  8] =        -0.282159755285;
  BAS[ATNO][  5].a[  9] =         0.966985000000;     BAS[ATNO][  5].d[  9] =        -0.226905711177;
  BAS[ATNO][  5].a[ 10] =      9675.549999999999;     BAS[ATNO][  5].d[ 10] =         0.000004530606;
  BAS[ATNO][  5].a[ 11] =      1471.480000000000;     BAS[ATNO][  5].d[ 11] =         0.000034734807;
  BAS[ATNO][  5].a[ 12] =       323.648000000000;     BAS[ATNO][  5].d[ 12] =         0.000151021006;
  BAS[ATNO][  5].a[ 13] =        33.807900000000;     BAS[ATNO][  5].d[ 13] =         0.011619556343;
  BAS[ATNO][  5].a[ 14] =        21.131600000000;     BAS[ATNO][  5].d[ 14] =        -0.111039706043;
  BAS[ATNO][  5].a[ 15] =        13.209100000000;     BAS[ATNO][  5].d[ 15] =         0.406361286224;
  BAS[ATNO][  5].a[ 16] =         8.256110000000;     BAS[ATNO][  5].d[ 16] =        -0.391843636801;
  BAS[ATNO][  5].a[ 17] =         5.100140000000;     BAS[ATNO][  5].d[ 17] =        -0.345996679379;
  BAS[ATNO][  5].a[ 18] =         1.819430000000;     BAS[ATNO][  5].d[ 18] =         0.613399005924;
  BAS[ATNO][  5].a[ 19] =         0.966985000000;     BAS[ATNO][  5].d[ 19] =         0.660525111338;
  BAS[ATNO][  5].a[ 20] =         0.466351000000;     BAS[ATNO][  5].d[ 20] =        -0.134481475288;
  BAS[ATNO][  5].a[ 21] =         0.229518000000;     BAS[ATNO][  5].d[ 21] =        -3.513180124246;
  BAS[ATNO][  5].a[ 22] =         0.104071000000;     BAS[ATNO][  5].d[ 22] =         7.123409463552;
  BAS[ATNO][  5].a[ 23] =         0.046125000000;     BAS[ATNO][  5].d[ 23] =        -5.684388487825;
  BAS[ATNO][  5].a[ 24] =         0.015900000000;     BAS[ATNO][  5].d[ 24] =         1.766037575960;

  // Basis function   7 L = s
  InitBFNGauss(BAS[ATNO][  6]);
  BAS[ATNO][  6].l  = 0;
  BAS[ATNO][  6].ng = 25;
  BAS[ATNO][  6].a[  0] =      9675.549999999999;     BAS[ATNO][  6].d[  0] =        -0.000023064311;
  BAS[ATNO][  6].a[  1] =      1471.480000000000;     BAS[ATNO][  6].d[  1] =        -0.000164334043;
  BAS[ATNO][  6].a[  2] =       323.648000000000;     BAS[ATNO][  6].d[  2] =        -0.000654453099;
  BAS[ATNO][  6].a[  3] =        33.807900000000;     BAS[ATNO][  6].d[  3] =        -0.062464237322;
  BAS[ATNO][  6].a[  4] =        21.131600000000;     BAS[ATNO][  6].d[  4] =         0.564781534255;
  BAS[ATNO][  6].a[  5] =        13.209100000000;     BAS[ATNO][  6].d[  5] =        -1.942082508719;
  BAS[ATNO][  6].a[  6] =         8.256110000000;     BAS[ATNO][  6].d[  6] =         1.648172501043;
  BAS[ATNO][  6].a[  7] =         5.100140000000;     BAS[ATNO][  6].d[  7] =         1.765420521491;
  BAS[ATNO][  6].a[  8] =         1.819430000000;     BAS[ATNO][  6].d[  8] =        -2.189805998787;
  BAS[ATNO][  6].a[  9] =         0.966985000000;     BAS[ATNO][  6].d[  9] =        -1.760986385144;
  BAS[ATNO][  6].a[ 10] =      9675.549999999999;     BAS[ATNO][  6].d[ 10] =         0.000026776434;
  BAS[ATNO][  6].a[ 11] =      1471.480000000000;     BAS[ATNO][  6].d[ 11] =         0.000205286942;
  BAS[ATNO][  6].a[ 12] =       323.648000000000;     BAS[ATNO][  6].d[ 12] =         0.000892552541;
  BAS[ATNO][  6].a[ 13] =        33.807900000000;     BAS[ATNO][  6].d[ 13] =         0.068672993347;
  BAS[ATNO][  6].a[ 14] =        21.131600000000;     BAS[ATNO][  6].d[ 14] =        -0.656258188303;
  BAS[ATNO][  6].a[ 15] =        13.209100000000;     BAS[ATNO][  6].d[ 15] =         2.401644699872;
  BAS[ATNO][  6].a[ 16] =         8.256110000000;     BAS[ATNO][  6].d[ 16] =        -2.315843623409;
  BAS[ATNO][  6].a[ 17] =         5.100140000000;     BAS[ATNO][  6].d[ 17] =        -2.044882520495;
  BAS[ATNO][  6].a[ 18] =         1.819430000000;     BAS[ATNO][  6].d[ 18] =         3.625262842271;
  BAS[ATNO][  6].a[ 19] =         0.966985000000;     BAS[ATNO][  6].d[ 19] =         3.903783865633;
  BAS[ATNO][  6].a[ 20] =         0.466351000000;     BAS[ATNO][  6].d[ 20] =        -9.690296221786;
  BAS[ATNO][  6].a[ 21] =         0.229518000000;     BAS[ATNO][  6].d[ 21] =        12.531033404303;
  BAS[ATNO][  6].a[ 22] =         0.104071000000;     BAS[ATNO][  6].d[ 22] =        -8.716508532396;
  BAS[ATNO][  6].a[ 23] =         0.046125000000;     BAS[ATNO][  6].d[ 23] =         3.657874564157;
  BAS[ATNO][  6].a[ 24] =         0.015900000000;     BAS[ATNO][  6].d[ 24] =        -0.743082140998;

  // Basis function   8 L = p
  InitBFNGauss(BAS[ATNO][  7]);
  BAS[ATNO][  7].l  = 1;
  BAS[ATNO][  7].ng = 44;
  BAS[ATNO][  7].a[  0] =        42.524000000000;     BAS[ATNO][  7].d[  0] =        -0.000147269746;
  BAS[ATNO][  7].a[  1] =        21.395700000000;     BAS[ATNO][  7].d[  1] =         0.002124996866;
  BAS[ATNO][  7].a[  2] =        13.373700000000;     BAS[ATNO][  7].d[  2] =        -0.010252726802;
  BAS[ATNO][  7].a[  3] =         6.613370000000;     BAS[ATNO][  7].d[  3] =         0.031791179011;
  BAS[ATNO][  7].a[  4] =         2.042170000000;     BAS[ATNO][  7].d[  4] =        -0.043591201561;
  BAS[ATNO][  7].a[  5] =         1.114490000000;     BAS[ATNO][  7].d[  5] =        -0.044624567188;
  BAS[ATNO][  7].a[  6] =         0.598006000000;     BAS[ATNO][  7].d[  6] =        -0.018822908263;
  BAS[ATNO][  7].a[  7] =        42.524000000000;     BAS[ATNO][  7].d[  7] =         0.000816634602;
  BAS[ATNO][  7].a[  8] =        21.395700000000;     BAS[ATNO][  7].d[  8] =        -0.011783451882;
  BAS[ATNO][  7].a[  9] =        13.373700000000;     BAS[ATNO][  7].d[  9] =         0.056853031103;
  BAS[ATNO][  7].a[ 10] =         6.613370000000;     BAS[ATNO][  7].d[ 10] =        -0.176287237917;
  BAS[ATNO][  7].a[ 11] =         2.042170000000;     BAS[ATNO][  7].d[ 11] =         0.241720274610;
  BAS[ATNO][  7].a[ 12] =         1.114490000000;     BAS[ATNO][  7].d[ 12] =         0.247450454421;
  BAS[ATNO][  7].a[ 13] =         0.598006000000;     BAS[ATNO][  7].d[ 13] =         0.104376075710;
  BAS[ATNO][  7].a[ 14] =        42.524000000000;     BAS[ATNO][  7].d[ 14] =        -0.000041371199;
  BAS[ATNO][  7].a[ 15] =        21.395700000000;     BAS[ATNO][  7].d[ 15] =         0.000596956751;
  BAS[ATNO][  7].a[ 16] =        13.373700000000;     BAS[ATNO][  7].d[ 16] =        -0.002880208707;
  BAS[ATNO][  7].a[ 17] =         6.613370000000;     BAS[ATNO][  7].d[ 17] =         0.008930817366;
  BAS[ATNO][  7].a[ 18] =         2.042170000000;     BAS[ATNO][  7].d[ 18] =        -0.012245694310;
  BAS[ATNO][  7].a[ 19] =         1.114490000000;     BAS[ATNO][  7].d[ 19] =        -0.012535988661;
  BAS[ATNO][  7].a[ 20] =         0.598006000000;     BAS[ATNO][  7].d[ 20] =        -0.005287754693;
  BAS[ATNO][  7].a[ 21] =        42.524000000000;     BAS[ATNO][  7].d[ 21] =         0.000095231722;
  BAS[ATNO][  7].a[ 22] =        21.395700000000;     BAS[ATNO][  7].d[ 22] =        -0.002823986611;
  BAS[ATNO][  7].a[ 23] =        13.373700000000;     BAS[ATNO][  7].d[ 23] =         0.017685994505;
  BAS[ATNO][  7].a[ 24] =         6.613370000000;     BAS[ATNO][  7].d[ 24] =        -0.062785536856;
  BAS[ATNO][  7].a[ 25] =         2.042170000000;     BAS[ATNO][  7].d[ 25] =         0.107782521995;
  BAS[ATNO][  7].a[ 26] =         1.114490000000;     BAS[ATNO][  7].d[ 26] =         0.104025997122;
  BAS[ATNO][  7].a[ 27] =         0.598006000000;     BAS[ATNO][  7].d[ 27] =         0.054746515043;
  BAS[ATNO][  7].a[ 28] =        42.524000000000;     BAS[ATNO][  7].d[ 28] =        -0.000528075327;
  BAS[ATNO][  7].a[ 29] =        21.395700000000;     BAS[ATNO][  7].d[ 29] =         0.015659463253;
  BAS[ATNO][  7].a[ 30] =        13.373700000000;     BAS[ATNO][  7].d[ 30] =        -0.098071704736;
  BAS[ATNO][  7].a[ 31] =         6.613370000000;     BAS[ATNO][  7].d[ 31] =         0.348155973388;
  BAS[ATNO][  7].a[ 32] =         2.042170000000;     BAS[ATNO][  7].d[ 32] =        -0.597671545681;
  BAS[ATNO][  7].a[ 33] =         1.114490000000;     BAS[ATNO][  7].d[ 33] =        -0.576841006685;
  BAS[ATNO][  7].a[ 34] =         0.598006000000;     BAS[ATNO][  7].d[ 34] =        -0.303578295079;
  BAS[ATNO][  7].a[ 35] =        42.524000000000;     BAS[ATNO][  7].d[ 35] =         0.000026752613;
  BAS[ATNO][  7].a[ 36] =        21.395700000000;     BAS[ATNO][  7].d[ 36] =        -0.000793317815;
  BAS[ATNO][  7].a[ 37] =        13.373700000000;     BAS[ATNO][  7].d[ 37] =         0.004968371472;
  BAS[ATNO][  7].a[ 38] =         6.613370000000;     BAS[ATNO][  7].d[ 38] =        -0.017637790744;
[...]
  BAS[ATNO][  9].a[ 43] =         0.300337000000;     BAS[ATNO][  9].d[ 43] =         0.226406418721;

  // Basis function  11 L = p
  InitBFNGauss(BAS[ATNO][ 10]);
  BAS[ATNO][ 10].l  = 1;
  BAS[ATNO][ 10].ng = 44;
  BAS[ATNO][ 10].a[  0] =        42.524000000000;     BAS[ATNO][ 10].d[  0] =        -0.000046727969;
  BAS[ATNO][ 10].a[  1] =        21.395700000000;     BAS[ATNO][ 10].d[  1] =         0.000674251098;
  BAS[ATNO][ 10].a[  2] =        13.373700000000;     BAS[ATNO][ 10].d[  2] =        -0.003253140001;
  BAS[ATNO][ 10].a[  3] =         6.613370000000;     BAS[ATNO][ 10].d[  3] =         0.010087185401;
  BAS[ATNO][ 10].a[  4] =         2.042170000000;     BAS[ATNO][ 10].d[  4] =        -0.013831274765;
  BAS[ATNO][ 10].a[  5] =         1.114490000000;     BAS[ATNO][ 10].d[  5] =        -0.014159156617;
  BAS[ATNO][ 10].a[  6] =         0.598006000000;     BAS[ATNO][ 10].d[  6] =        -0.005972416606;
  BAS[ATNO][ 10].a[  7] =        42.524000000000;     BAS[ATNO][ 10].d[  7] =         0.000259114160;
  BAS[ATNO][ 10].a[  8] =        21.395700000000;     BAS[ATNO][ 10].d[  8] =        -0.003738831572;
  BAS[ATNO][ 10].a[  9] =        13.373700000000;     BAS[ATNO][ 10].d[  9] =         0.018039188328;
  BAS[ATNO][ 10].a[ 10] =         6.613370000000;     BAS[ATNO][ 10].d[ 10] =        -0.055935077214;
  BAS[ATNO][ 10].a[ 11] =         2.042170000000;     BAS[ATNO][ 10].d[ 11] =         0.076696659295;
  BAS[ATNO][ 10].a[ 12] =         1.114490000000;     BAS[ATNO][ 10].d[ 12] =         0.078514817285;
  BAS[ATNO][ 10].a[ 13] =         0.598006000000;     BAS[ATNO][ 10].d[ 13] =         0.033118017635;
  BAS[ATNO][ 10].a[ 14] =        42.524000000000;     BAS[ATNO][ 10].d[ 14] =        -0.000013126879;
  BAS[ATNO][ 10].a[ 15] =        21.395700000000;     BAS[ATNO][ 10].d[ 15] =         0.000189411453;
  BAS[ATNO][ 10].a[ 16] =        13.373700000000;     BAS[ATNO][ 10].d[ 16] =        -0.000913876117;
  BAS[ATNO][ 10].a[ 17] =         6.613370000000;     BAS[ATNO][ 10].d[ 17] =         0.002833704611;
  BAS[ATNO][ 10].a[ 18] =         2.042170000000;     BAS[ATNO][ 10].d[ 18] =        -0.003885498831;
  BAS[ATNO][ 10].a[ 19] =         1.114490000000;     BAS[ATNO][ 10].d[ 19] =        -0.003977607807;
  BAS[ATNO][ 10].a[ 20] =         0.598006000000;     BAS[ATNO][ 10].d[ 20] =        -0.001677778667;
  BAS[ATNO][ 10].a[ 21] =        42.524000000000;     BAS[ATNO][ 10].d[ 21] =         0.000025191601;
  BAS[ATNO][ 10].a[ 22] =        21.395700000000;     BAS[ATNO][ 10].d[ 22] =        -0.000747027807;
  BAS[ATNO][ 10].a[ 23] =        13.373700000000;     BAS[ATNO][ 10].d[ 23] =         0.004678467539;
  BAS[ATNO][ 10].a[ 24] =         6.613370000000;     BAS[ATNO][ 10].d[ 24] =        -0.016608627578;
  BAS[ATNO][ 10].a[ 25] =         2.042170000000;     BAS[ATNO][ 10].d[ 25] =         0.028511658207;
  BAS[ATNO][ 10].a[ 26] =         1.114490000000;     BAS[ATNO][ 10].d[ 26] =         0.027517946507;
  BAS[ATNO][ 10].a[ 27] =         0.598006000000;     BAS[ATNO][ 10].d[ 27] =         0.014482069041;
  BAS[ATNO][ 10].a[ 28] =        42.524000000000;     BAS[ATNO][ 10].d[ 28] =        -0.000139691510;
  BAS[ATNO][ 10].a[ 29] =        21.395700000000;     BAS[ATNO][ 10].d[ 29] =         0.004142390211;
  BAS[ATNO][ 10].a[ 30] =        13.373700000000;     BAS[ATNO][ 10].d[ 30] =        -0.025942860433;
  BAS[ATNO][ 10].a[ 31] =         6.613370000000;     BAS[ATNO][ 10].d[ 31] =         0.092097530585;
  BAS[ATNO][ 10].a[ 32] =         2.042170000000;     BAS[ATNO][ 10].d[ 32] =        -0.158101763766;
  BAS[ATNO][ 10].a[ 33] =         1.114490000000;     BAS[ATNO][ 10].d[ 33] =        -0.152591471400;
  BAS[ATNO][ 10].a[ 34] =         0.598006000000;     BAS[ATNO][ 10].d[ 34] =        -0.080305418988;
  BAS[ATNO][ 10].a[ 35] =        42.524000000000;     BAS[ATNO][ 10].d[ 35] =         0.000007076856;
  BAS[ATNO][ 10].a[ 36] =        21.395700000000;     BAS[ATNO][ 10].d[ 36] =        -0.000209855976;
  BAS[ATNO][ 10].a[ 37] =        13.373700000000;     BAS[ATNO][ 10].d[ 37] =         0.001314280893;
  BAS[ATNO][ 10].a[ 38] =         6.613370000000;     BAS[ATNO][ 10].d[ 38] =        -0.004665716221;
  BAS[ATNO][ 10].a[ 39] =         2.042170000000;     BAS[ATNO][ 10].d[ 39] =         0.008009530322;
  BAS[ATNO][ 10].a[ 40] =         1.114490000000;     BAS[ATNO][ 10].d[ 40] =         0.007730375601;
  BAS[ATNO][ 10].a[ 41] =         0.598006000000;     BAS[ATNO][ 10].d[ 41] =         0.004068320764;
  BAS[ATNO][ 10].a[ 42] =         0.300337000000;     BAS[ATNO][ 10].d[ 42] =        -0.077419257867;
  BAS[ATNO][ 10].a[ 43] =         0.300337000000;     BAS[ATNO][ 10].d[ 43] =         0.429302327111;

  // Basis function  12 L = p
  InitBFNGauss(BAS[ATNO][ 11]);
  BAS[ATNO][ 11].l  = 1;
  BAS[ATNO][ 11].ng = 44;
  BAS[ATNO][ 11].a[  0] =        42.524000000000;     BAS[ATNO][ 11].d[  0] =        -0.000179658124;
  BAS[ATNO][ 11].a[  1] =        21.395700000000;     BAS[ATNO][ 11].d[  1] =         0.002592337937;
  BAS[ATNO][ 11].a[  2] =        13.373700000000;     BAS[ATNO][ 11].d[  2] =        -0.012507563219;
  BAS[ATNO][ 11].a[  3] =         6.613370000000;     BAS[ATNO][ 11].d[  3] =         0.038782871030;
  BAS[ATNO][ 11].a[  4] =         2.042170000000;     BAS[ATNO][ 11].d[  4] =        -0.053178019840;
  BAS[ATNO][ 11].a[  5] =         1.114490000000;     BAS[ATNO][ 11].d[  5] =        -0.054438648954;
  BAS[ATNO][ 11].a[  6] =         0.598006000000;     BAS[ATNO][ 11].d[  6] =        -0.022962546414;
  BAS[ATNO][ 11].a[  7] =        42.524000000000;     BAS[ATNO][ 11].d[  7] =         0.000996233402;
  BAS[ATNO][ 11].a[  8] =        21.395700000000;     BAS[ATNO][ 11].d[  8] =        -0.014374933829;
  BAS[ATNO][ 11].a[  9] =        13.373700000000;     BAS[ATNO][ 11].d[  9] =         0.069356464326;
  BAS[ATNO][ 11].a[ 10] =         6.613370000000;     BAS[ATNO][ 11].d[ 10] =        -0.215057302847;
  BAS[ATNO][ 11].a[ 11] =         2.042170000000;     BAS[ATNO][ 11].d[ 11] =         0.294880735073;
  BAS[ATNO][ 11].a[ 12] =         1.114490000000;     BAS[ATNO][ 11].d[ 12] =         0.301871127740;
  BAS[ATNO][ 11].a[ 13] =         0.598006000000;     BAS[ATNO][ 11].d[ 13] =         0.127331039894;
  BAS[ATNO][ 11].a[ 14] =        42.524000000000;     BAS[ATNO][ 11].d[ 14] =        -0.000050469783;
  BAS[ATNO][ 11].a[ 15] =        21.395700000000;     BAS[ATNO][ 11].d[ 15] =         0.000728242783;
  BAS[ATNO][ 11].a[ 16] =        13.373700000000;     BAS[ATNO][ 11].d[ 16] =        -0.003513640144;
  BAS[ATNO][ 11].a[ 17] =         6.613370000000;     BAS[ATNO][ 11].d[ 17] =         0.010894932144;
  BAS[ATNO][ 11].a[ 18] =         2.042170000000;     BAS[ATNO][ 11].d[ 18] =        -0.014938835170;
  BAS[ATNO][ 11].a[ 19] =         1.114490000000;     BAS[ATNO][ 11].d[ 19] =        -0.015292972661;
  BAS[ATNO][ 11].a[ 20] =         0.598006000000;     BAS[ATNO][ 11].d[ 20] =        -0.006450666967;
  BAS[ATNO][ 11].a[ 21] =        42.524000000000;     BAS[ATNO][ 11].d[ 21] =         0.000087803544;
  BAS[ATNO][ 11].a[ 22] =        21.395700000000;     BAS[ATNO][ 11].d[ 22] =        -0.002603712569;
  BAS[ATNO][ 11].a[ 23] =        13.373700000000;     BAS[ATNO][ 11].d[ 23] =         0.016306467605;
  BAS[ATNO][ 11].a[ 24] =         6.613370000000;     BAS[ATNO][ 11].d[ 24] =        -0.057888196366;
  BAS[ATNO][ 11].a[ 25] =         2.042170000000;     BAS[ATNO][ 11].d[ 25] =         0.099375367488;
  BAS[ATNO][ 11].a[ 26] =         1.114490000000;     BAS[ATNO][ 11].d[ 26] =         0.095911855660;
  BAS[ATNO][ 11].a[ 27] =         0.598006000000;     BAS[ATNO][ 11].d[ 27] =         0.050476227039;
  BAS[ATNO][ 11].a[ 28] =        42.524000000000;     BAS[ATNO][ 11].d[ 28] =        -0.000486884874;
  BAS[ATNO][ 11].a[ 29] =        21.395700000000;     BAS[ATNO][ 11].d[ 29] =         0.014438008006;
  BAS[ATNO][ 11].a[ 30] =        13.373700000000;     BAS[ATNO][ 11].d[ 30] =        -0.090422004587;
  BAS[ATNO][ 11].a[ 31] =         6.613370000000;     BAS[ATNO][ 11].d[ 31] =         0.320999426977;
  BAS[ATNO][ 11].a[ 32] =         2.042170000000;     BAS[ATNO][ 11].d[ 32] =        -0.551052511945;
  BAS[ATNO][ 11].a[ 33] =         1.114490000000;     BAS[ATNO][ 11].d[ 33] =        -0.531846777755;
  BAS[ATNO][ 11].a[ 34] =         0.598006000000;     BAS[ATNO][ 11].d[ 34] =        -0.279898856294;
  BAS[ATNO][ 11].a[ 35] =        42.524000000000;     BAS[ATNO][ 11].d[ 35] =         0.000024665880;
  BAS[ATNO][ 11].a[ 36] =        21.395700000000;     BAS[ATNO][ 11].d[ 36] =        -0.000731438158;
  BAS[ATNO][ 11].a[ 37] =        13.373700000000;     BAS[ATNO][ 11].d[ 37] =         0.004580833068;
  BAS[ATNO][ 11].a[ 38] =         6.613370000000;     BAS[ATNO][ 11].d[ 38] =        -0.016262023791;
  BAS[ATNO][ 11].a[ 39] =         2.042170000000;     BAS[ATNO][ 11].d[ 39] =         0.027916651265;
  BAS[ATNO][ 11].a[ 40] =         1.114490000000;     BAS[ATNO][ 11].d[ 40] =         0.026943677234;
  BAS[ATNO][ 11].a[ 41] =         0.598006000000;     BAS[ATNO][ 11].d[ 41] =         0.014179844191;
  BAS[ATNO][ 11].a[ 42] =         0.300337000000;     BAS[ATNO][ 11].d[ 42] =        -0.451025274082;
  BAS[ATNO][ 11].a[ 43] =         0.300337000000;     BAS[ATNO][ 11].d[ 43] =         2.501008212760;

  // Basis function  13 L = p
  InitBFNGauss(BAS[ATNO][ 12]);
  BAS[ATNO][ 12].l  = 1;
  BAS[ATNO][ 12].ng = 44;
  BAS[ATNO][ 12].a[  0] =        42.524000000000;     BAS[ATNO][ 12].d[  0] =        -0.007009410759;
  BAS[ATNO][ 12].a[  1] =        21.395700000000;     BAS[ATNO][ 12].d[  1] =         0.101140772431;
  BAS[ATNO][ 12].a[  2] =        13.373700000000;     BAS[ATNO][ 12].d[  2] =        -0.487985994114;
  BAS[ATNO][ 12].a[  3] =         6.613370000000;     BAS[ATNO][ 12].d[  3] =         1.513124302706;
  BAS[ATNO][ 12].a[  4] =         2.042170000000;     BAS[ATNO][ 12].d[  4] =        -2.074754964059;
  BAS[ATNO][ 12].a[  5] =         1.114490000000;     BAS[ATNO][ 12].d[  5] =        -2.123938753165;
  BAS[ATNO][ 12].a[  6] =         0.598006000000;     BAS[ATNO][ 12].d[  6] =        -0.895890018158;
  BAS[ATNO][ 12].a[  7] =        42.524000000000;     BAS[ATNO][ 12].d[  7] =         0.038868319450;
  BAS[ATNO][ 12].a[  8] =        21.395700000000;     BAS[ATNO][ 12].d[  8] =        -0.560841986216;
  BAS[ATNO][ 12].a[  9] =        13.373700000000;     BAS[ATNO][ 12].d[  9] =         2.705961479294;
  BAS[ATNO][ 12].a[ 10] =         6.613370000000;     BAS[ATNO][ 12].d[ 10] =        -8.390519658130;
  BAS[ATNO][ 12].a[ 11] =         2.042170000000;     BAS[ATNO][ 12].d[ 11] =        11.504852761012;
  BAS[ATNO][ 12].a[ 12] =         1.114490000000;     BAS[ATNO][ 12].d[ 12] =        11.777584848267;
  BAS[ATNO][ 12].a[ 13] =         0.598006000000;     BAS[ATNO][ 12].d[ 13] =         4.967855446796;
  BAS[ATNO][ 12].a[ 14] =        42.524000000000;     BAS[ATNO][ 12].d[ 14] =        -0.001969092404;
  BAS[ATNO][ 12].a[ 15] =        21.395700000000;     BAS[ATNO][ 12].d[ 15] =         0.028412591817;
  BAS[ATNO][ 12].a[ 16] =        13.373700000000;     BAS[ATNO][ 12].d[ 16] =        -0.137085633518;
  BAS[ATNO][ 12].a[ 17] =         6.613370000000;     BAS[ATNO][ 12].d[ 17] =         0.425068764532;
  BAS[ATNO][ 12].a[ 18] =         2.042170000000;     BAS[ATNO][ 12].d[ 18] =        -0.582842749735;
  BAS[ATNO][ 12].a[ 19] =         1.114490000000;     BAS[ATNO][ 12].d[ 19] =        -0.596659521056;
  BAS[ATNO][ 12].a[ 20] =         0.598006000000;     BAS[ATNO][ 12].d[ 20] =        -0.251674540217;
  BAS[ATNO][ 12].a[ 21] =        42.524000000000;     BAS[ATNO][ 12].d[ 21] =         0.001797492921;
  BAS[ATNO][ 12].a[ 22] =        21.395700000000;     BAS[ATNO][ 12].d[ 22] =        -0.053302574314;
  BAS[ATNO][ 12].a[ 23] =        13.373700000000;     BAS[ATNO][ 12].d[ 23] =         0.333822063070;
  BAS[ATNO][ 12].a[ 24] =         6.613370000000;     BAS[ATNO][ 12].d[ 24] =        -1.185073162744;
  BAS[ATNO][ 12].a[ 25] =         2.042170000000;     BAS[ATNO][ 12].d[ 25] =         2.034388501306;
  BAS[ATNO][ 12].a[ 26] =         1.114490000000;     BAS[ATNO][ 12].d[ 26] =         1.963484324394;
  BAS[ATNO][ 12].a[ 27] =         0.598006000000;     BAS[ATNO][ 12].d[ 27] =         1.033337118386;
  BAS[ATNO][ 12].a[ 28] =        42.524000000000;     BAS[ATNO][ 12].d[ 28] =        -0.009967389763;
  BAS[ATNO][ 12].a[ 29] =        21.395700000000;     BAS[ATNO][ 12].d[ 29] =         0.295571419221;
  BAS[ATNO][ 12].a[ 30] =        13.373700000000;     BAS[ATNO][ 12].d[ 30] =        -1.851097479234;
  BAS[ATNO][ 12].a[ 31] =         6.613370000000;     BAS[ATNO][ 12].d[ 31] =         6.571422883463;
  BAS[ATNO][ 12].a[ 32] =         2.042170000000;     BAS[ATNO][ 12].d[ 32] =       -11.281014178389;
  BAS[ATNO][ 12].a[ 33] =         1.114490000000;     BAS[ATNO][ 12].d[ 33] =       -10.887839018115;
  BAS[ATNO][ 12].a[ 34] =         0.598006000000;     BAS[ATNO][ 12].d[ 34] =        -5.730021908837;
  BAS[ATNO][ 12].a[ 35] =        42.524000000000;     BAS[ATNO][ 12].d[ 35] =         0.000504953951;
  BAS[ATNO][ 12].a[ 36] =        21.395700000000;     BAS[ATNO][ 12].d[ 36] =        -0.014973825593;
  BAS[ATNO][ 12].a[ 37] =        13.373700000000;     BAS[ATNO][ 12].d[ 37] =         0.093777709914;
  BAS[ATNO][ 12].a[ 38] =         6.613370000000;     BAS[ATNO][ 12].d[ 38] =        -0.332912229529;
  BAS[ATNO][ 12].a[ 39] =         2.042170000000;     BAS[ATNO][ 12].d[ 39] =         0.571502952721;
  BAS[ATNO][ 12].a[ 40] =         1.114490000000;     BAS[ATNO][ 12].d[ 40] =         0.551584462993;
  BAS[ATNO][ 12].a[ 41] =         0.598006000000;     BAS[ATNO][ 12].d[ 41] =         0.290286350879;
  BAS[ATNO][ 12].a[ 42] =         0.300337000000;     BAS[ATNO][ 12].d[ 42] =        -0.016266286909;
  BAS[ATNO][ 12].a[ 43] =         0.300337000000;     BAS[ATNO][ 12].d[ 43] =         0.090199199003;

-------------------------------------------
RADIAL EXPECTATION VALUES <R**-3> TO <R**3>
-------------------------------------------
   0 :     0.000000     1.633050     1.229685     0.876047     0.825895     0.841893
   1 :     1.725863     1.316952     1.100092     0.986438     1.061868     1.350945
   2 :     1.725863     1.316952     1.100092     0.986438     1.061868     1.350945
   3 :     1.726881     1.317477     1.100323     0.986209     1.061499     1.352412
   4 :     0.000000     0.536161     0.650804     1.782660     3.499925     7.406884
   5 :     0.332025     0.355823     0.532475     2.146766     5.090262    13.969688
   6 :     0.332025     0.355823     0.532475     2.146766     5.090262    13.969688
   7 :     0.000000     0.135095     0.300425     4.011819    17.968595    88.047431
   8 :     0.000000     0.035729     0.141699     8.591360    80.811634   808.738618
   9 :     0.000000     0.082322     0.214601     6.570094    54.233987   525.271167
  10 :     0.000000     0.420754     0.491860     3.322266    16.551037   115.827509
  11 :     0.335354     0.358453     0.534556     2.137912     5.052072    13.913287
  12 :     0.043908     0.071785     0.226730     5.179108    30.012022   192.273963
  13 :     0.045195     0.073097     0.228559     5.128054    29.301430   184.237001
  14 :     0.045195     0.073097     0.228559     5.128054    29.301430   184.237001
  15 :     0.002297     0.008038     0.078087    14.030681   208.431191  3250.131330
  16 :     0.002297     0.008038     0.078087    14.030681   208.431191  3250.131330
  17 :     0.002442     0.008153     0.077938    14.101667   210.508635  3295.864734
  18 :     0.016259     0.031617     0.141916     9.086536   100.534484  1319.109874
  19 :     0.016259     0.031617     0.141916     9.086536   100.534484  1319.109874
  20 :     0.016763     0.032486     0.144011     8.959316    97.801856  1268.214900
  21 :     0.108645     0.126022     0.273674     5.279466    38.404338   380.028084
  22 :     0.108645     0.126022     0.273674     5.279466    38.404338   380.028084
  23 :     0.105509     0.123411     0.271318     5.293662    38.387244   377.206150
  24 :    21.596103     6.453543     2.342782     0.522913     0.403684     0.825958
  25 :    21.596103     6.453543     2.342782     0.522913     0.403684     0.825958
  26 :    21.595530     6.453327     2.342709     0.522980     0.403929     0.827434
  27 :     0.000000    15.702419     3.249332     0.442090     0.469554     2.015328
Making the total density                ... o.k.
o.k.
Initializing the integrals              ... done
Making exponents                        ... done
Making rho(0)                           ... done (         0.004069566)
Integral calculation                    ... Two index integrals                     ... done
Solving the equation system             ... done
atomic density will be written to file 81_Tl_atom81.adf

-------
TIMINGS
-------

Total SCF time: 0 days 0 hours 0 min 0 sec 

Total time                  ....       0.900 sec
Sum of individual times     ....       0.575 sec  ( 63.8%)

Fock matrix formation       ....       0.398 sec  ( 44.2%)
Diagonalization             ....       0.170 sec  ( 18.8%)
Density matrix formation    ....       0.001 sec  (  0.1%)
Population analysis         ....       0.000 sec  (  0.0%)
Initial guess               ....       0.000 sec  (  0.0%)
Orbital Transformation      ....       0.000 sec  (  0.0%)
Orbital Orthonormalization  ....       0.000 sec  (  0.0%)
DIIS solution               ....       0.006 sec  (  0.7%)

-------------------------   --------------------
FINAL SINGLE POINT ENERGY      -157.261370612484
-------------------------   --------------------


                            ***************************************
                            *     ORCA property calculations      *
                            ***************************************

                                    ---------------------
                                    Active property flags
                                    ---------------------
   (+) Dipole Moment


------------------------------------------------------------------------------
                       ORCA ELECTRIC PROPERTIES CALCULATION
------------------------------------------------------------------------------

Dipole Moment Calculation                       ... on
Quadrupole Moment Calculation                   ... off
Polarizability Calculation                      ... off
GBWName                                         ... 81_Tl_atom81.gbw
Electron density file                           ... 81_Tl_atom81.scfp
The origin for moment calculation is the CENTER OF MASS  = ( 0.000000,  0.000000  0.000000)

-------------
DIPOLE MOMENT
-------------
                                X             Y             Z
Electronic contribution:      0.00000       0.00000       0.00000
Nuclear contribution   :      0.00000       0.00000       0.00000
                        -----------------------------------------
Total Dipole Moment    :      0.00000       0.00000       0.00000
                        -----------------------------------------
Magnitude (a.u.)       :      0.00000
Magnitude (Debye)      :      0.00000



--------------------
Rotational spectrum 
--------------------
 
Rotational constants in cm-1:     0.000000     0.000000     0.000000 
Rotational constants in MHz :     0.000000     0.000000     0.000000 

 Dipole components along the rotational axes: 
x,y,z [a.u.] :     0.000000     0.000000     0.000000 
x,y,z [Debye]:     0.000000     0.000000     0.000000 

 

Timings for individual modules:

Sum of individual times         ...        1.198 sec (=   0.020 min)
GTO integral calculation        ...        0.281 sec (=   0.005 min)  23.5 %
SCF iterations                  ...        0.916 sec (=   0.015 min)  76.5 %
                             ****ORCA TERMINATED NORMALLY****
TOTAL RUN TIME: 0 days 0 hours 0 minutes 1 seconds 351 msec
