
                                 *****************
                                 * O   R   C   A *
                                 *****************

           --- An Ab Initio, DFT and Semiempirical electronic structure package ---

                  #######################################################
                  #                        -***-                        #
                  #          Department of theory and spectroscopy      #
                  #               Directorship: Frank Neese             #
                  #        Max Planck Institute fuer Kohlenforschung    #
                  #                Kaiser Wilhelm Platz 1               #
                  #                 D-45470 Muelheim/Ruhr               #
                  #                      Germany                        #
                  #                                                     #
                  #                  All rights reserved                #
                  #                        -***-                        #
                  #######################################################


                         Program Version 4.2.0 -  RELEASE  -


 With contributions from (in alphabetic order):
   Daniel Aravena         : Magnetic Suceptibility
   Michael Atanasov       : Ab Initio Ligand Field Theory (pilot matlab implementation)
   Alexander A. Auer      : GIAO ZORA, VPT2
   Ute Becker             : Parallelization
   Giovanni Bistoni       : ED, misc. LED, open-shell LED, HFLED
   Martin Brehm           : Molecular dynamics
   Dmytro Bykov           : SCF Hessian
   Vijay G. Chilkuri      : MRCI spin determinant printing, contributions to CSF-ICE
   Dipayan Datta          : RHF DLPNO-CCSD density
   Achintya Kumar Dutta   : EOM-CC, STEOM-CC
   Dmitry Ganyushin       : Spin-Orbit,Spin-Spin,Magnetic field MRCI
   Miquel Garcia          : C-PCM Hessian, Gaussian charge scheme
   Yang Guo               : DLPNO-NEVPT2, CIM, IAO-localization
   Andreas Hansen         : Spin unrestricted coupled pair/coupled cluster methods
   Benjamin Helmich-Paris : CASSCF linear response (MC-RPA)
   Lee Huntington         : MR-EOM, pCC
   Robert Izsak           : Overlap fitted RIJCOSX, COSX-SCS-MP3, EOM
   Christian Kollmar      : KDIIS, OOCD, Brueckner-CCSD(T), CCSD density
   Simone Kossmann        : Meta GGA functionals, TD-DFT gradient, OOMP2, MP2 Hessian
   Martin Krupicka        : AUTO-CI
   Lucas Lang             : DCDCAS
   Dagmar Lenk            : GEPOL surface, SMD
   Dimitrios Liakos       : Extrapolation schemes; Compound Job, initial MDCI parallelization
   Dimitrios Manganas     : Further ROCIS development; embedding schemes
   Dimitrios Pantazis     : SARC Basis sets
   Taras Petrenko         : DFT Hessian,TD-DFT gradient, ASA, ECA, R-Raman, ABS, FL, XAS/XES, NRVS
   Peter Pinski           : DLPNO-MP2, DLPNO-MP2 Gradient
   Christoph Reimann      : Effective Core Potentials
   Marius Retegan         : Local ZFS, SOC
   Christoph Riplinger    : Optimizer, TS searches, QM/MM, DLPNO-CCSD(T), (RO)-DLPNO pert. Triples
   Tobias Risthaus        : Range-separated hybrids, TD-DFT gradient, RPA, STAB
   Michael Roemelt        : Original ROCIS implementation
   Masaaki Saitow         : Open-shell DLPNO-CCSD energy and density
   Barbara Sandhoefer     : DKH picture change effects
   Avijit Sen             : IP-ROCIS
   Kantharuban Sivalingam : CASSCF convergence, NEVPT2, FIC-MRCI
   Bernardo de Souza      : ESD, SOC TD-DFT
   Georgi Stoychev        : AutoAux, RI-MP2 NMR
   Willem Van den Heuvel  : Paramagnetic NMR
   Boris Wezisla          : Elementary symmetry handling
   Frank Wennmohs         : Technical directorship


 We gratefully acknowledge several colleagues who have allowed us to
 interface, adapt or use parts of their codes:
   Stefan Grimme, W. Hujo, H. Kruse,             : VdW corrections, initial TS optimization,
                  C. Bannwarth                     DFT functionals, gCP, sTDA/sTD-DF
   Ed Valeev, F. Pavosevic, A. Kumar             : LibInt (2-el integral package), F12 methods
   Garnet Chan, S. Sharma, J. Yang, R. Olivares  : DMRG
   Ulf Ekstrom                                   : XCFun DFT Library
   Mihaly Kallay                                 : mrcc  (arbitrary order and MRCC methods)
   Andreas Klamt, Michael Diedenhofen            : otool_cosmo (COSMO solvation model)
   Jiri Pittner, Ondrej Demel                    : Mk-CCSD
   Frank Weinhold                                : gennbo (NPA and NBO analysis)
   Christopher J. Cramer and Donald G. Truhlar   : smd solvation model
   Lars Goerigk                                  : TD-DFT with DH, B97 family of functionals
   V. Asgeirsson, H. Jonsson                     : NEB implementation
   FAccTs GmbH                                   : IRC, NEB, NEB-TS, Multilevel, MM, QM/MM, CI optimization
   S Lehtola, MJT Oliveira, MAL Marques          : LibXC Library


 Your calculation uses the libint2 library for the computation of 2-el integrals
 For citations please refer to: http://libint.valeyev.net

 Your ORCA version has been built with support for libXC version: 4.2.3
 For citations please refer to: https://tddft.org/programs/libxc/

 This ORCA versions uses:
   CBLAS   interface :  Fast vector & matrix operations
   LAPACKE interface :  Fast linear algebra routines
   SCALAPACK package :  Parallel linear algebra routines


----- Orbital basis set information -----
Your calculation utilizes the basis: aug-cc-pVQZ-PP 
       Ca, Sr, Ba, Ra : Obtained from the Peterson Research Group Website (tyr0.chem.wsu.edu/~kipeters) Feb. 2017
                        H. Li, H. Feng, W. Sun, Y. Zhang, Q. Fan, K. A. Peterson, Y. Xie, H. F. Schaefer III, Mol. Phys. 111, 2292 (2013)
  Cu-Zn, Ag-Cd, Au-Hg : Obtained from the ccRepo (grant-hill.group.shef.ac.uk/ccrepo) Feb. 2017
                        K. A. Peterson, C. Puzzarini, Theor. Chem. Acc. 114, 283 (2005)
  Ga-Kr, In-Xe, Tl-Rn : Obtained from the ccRepo (grant-hill.group.shef.ac.uk/ccrepo) Feb. 2017
                        K. A. Peterson, J. Chem. Phys. 119, 11099 (2003)
                        K. A. Peterson, D. Figgen, E. Goll, H. Stoll, M. Dolg, J. Chem. Phys. 119, 11113 (2003)
                 Y-Pd : Obtained from the ccRepo (grant-hill.group.shef.ac.uk/ccrepo) Feb. 2017
                        K. A. Peterson, D. Figgen, M. Dolg, H. Stoll, J. Chem. Phys. 126, 124101 (2007)
                Hf-Pt : Obtained from the ccRepo (grant-hill.group.shef.ac.uk/ccrepo) Feb. 2017
                        D. Figgen, K. A. Peterson, M. Dolg, H. Stoll, J. Chem. Phys. 130, 164108 (2009)

cite the ECPs for Pb [SK MCDHF RSC] as follows:
O: B. Metz and H. Stoll, private communication (KAP)
Tl: B. Metz, M. Schweizer, H. Stoll, M. Dolg, W. Liu, Theor. Chem. Acc. 104, 22 (2000)
Ga-As, In-Sb, Pb-Bi: B. Metz, H. Stoll, M. Dolg, J. Chem. Phys. 113, 2563 (2000)
Se-Kr, Te-Xe, Po-Rn: K.A. Peterson, D. Figgen, E. Goll, H. Stoll, and M. Dolg, J. Chem. Phys., in press (2003)
Cu-Zn, Ag-Cd, Au-Hg: D. Figgen, G. Rauhut, M. Dolg, and H. Stoll, Chem. Phys. 311, 227 (2005)
Y-Pd: K.A. Peterson, D. Figgen, M. Dolg, H. Stoll, J. Chem. Phys. 126, 124101 (2007)
I: K. A. Peterson, B. C. Shepler, D. Figgen, H. Stoll, J. Phys. Chem. A 110, 13877 (2006)
Hf-Pt: D. Figgen, K.A. Peterson, M. Dolg, H. Stoll, J. Chem. Phys. 130, 164108 (2009)
Ca, Sr, Ba, Ra: I.S. Lim, H. Stoll, P. Schwerdtfeger, J. Chem. Phys. 124, 034107 (2006)

ECP parameters for Pb [SK MCDHF RSC] have been obtained from:
cc-pVDZ-PP  EMSL  Basis Set Exchange Library   4/7/16 5:27 AM
Ca, Sr, Ba, Ra: http://www.tc.uni-koeln.de/PP/index.en.html 3/16/17 1:54 PM

================================================================================
                                        WARNINGS
                       Please study these warnings very carefully!
================================================================================


WARNING: your system is open-shell and RHF/RKS was chosen
  ===> : WILL SWITCH to UHF/UKS


WARNING: MDCI localization with Augmented Hessian Foster-Boys
  ===> : Switching off randomization!

WARNING: Post HF methods need fully converged wavefunctions
  ===> : Setting SCFConvForced true
         You can overwrite this default with %scf ConvForced false 


INFO   : the flag for use of LIBINT has been found!

================================================================================
                                       INPUT FILE
================================================================================
NAME = 82_Pb.in
|  1> #
|  2> # 82_Pb CCSD(T)/aug-cc-pVQZ-PP
|  3> #
|  4> ! CCSD(T) aug-cc-pVQZ-PP tightscf slowconv
|  5> 
|  6> *xyz 0 3
|  7>  Pb 0.0 0.0 0.0
|  8> *
|  9> 
| 10> %maxcore 5000 
| 11> 
| 12> %pal
| 13> nprocs 24
| 14> end
| 15> 
| 16> 
| 17>                          ****END OF INPUT****
================================================================================

                       ****************************
                       * Single Point Calculation *
                       ****************************

---------------------------------
CARTESIAN COORDINATES (ANGSTROEM)
---------------------------------
  Pb     0.000000    0.000000    0.000000

----------------------------
CARTESIAN COORDINATES (A.U.)
----------------------------
  NO LB      ZA    FRAG     MASS         X           Y           Z
   0 Pb   22.0000*   0   207.200    0.000000    0.000000    0.000000
* core charge reduced due to ECP

--------------------------------
INTERNAL COORDINATES (ANGSTROEM)
--------------------------------
 Pb     0   0   0     0.000000000000     0.00000000     0.00000000

---------------------------
INTERNAL COORDINATES (A.U.)
---------------------------
 Pb     0   0   0     0.000000000000     0.00000000     0.00000000

---------------------
BASIS SET INFORMATION
---------------------
There are 1 groups of distinct atoms

 Group   1 Type Pb  : 25s19p12d3f2g contracted to 7s7p5d3f2g pattern {101011111/7711111/81111/111/11}

Atom   0Pb   basis set group =>   1
-------------------------
ECP PARAMETER INFORMATION
-------------------------

 Group 1, Type Pb ECP SK MCDHF RSC (replacing 60 core electrons, lmax=5)

Atom   0Pb   ECP group =>   1



           ************************************************************
           *        Program running with 24 parallel MPI-processes    *
           *              working on a common directory               *
           ************************************************************
------------------------------------------------------------------------------
                           ORCA GTO INTEGRAL CALCULATION
------------------------------------------------------------------------------

                         BASIS SET STATISTICS AND STARTUP INFO

 # of primitive gaussian shells          ...   61
 # of primitive gaussian functions       ...  181
 # of contracted shells                  ...   24
 # of contracted basis functions         ...   92
 Highest angular momentum                ...    4
 Maximum contraction depth               ...   10
 Integral package used                   ... LIBINT
 Integral threshhold            Thresh   ...  2.500e-11
 Primitive cut-off              TCut     ...  2.500e-12


------------------------------ INTEGRAL EVALUATION ----------------------------


 * One electron integrals 

   ECP integrals                         ... done
 Pre-screening matrix                    ... done
 Shell pair data                         ... done (   0.000 sec)



           ************************************************************
           *        Program running with 24 parallel MPI-processes    *
           *              working on a common directory               *
           ************************************************************
-------------------------------------------------------------------------------
                                 ORCA SCF
-------------------------------------------------------------------------------

------------
SCF SETTINGS
------------
Hamiltonian:
 Ab initio Hamiltonian  Method          .... Hartree-Fock(GTOs)


General Settings:
 Integral files         IntName         .... 82_Pb
 Hartree-Fock type      HFTyp           .... UHF
 Total Charge           Charge          ....    0
 Multiplicity           Mult            ....    3
 Number of Electrons    NEL             ....   22
 Basis Dimension        Dim             ....   92
 Nuclear Repulsion      ENuc            ....      0.0000000000 Eh

Convergence Acceleration:
 DIIS                   CNVDIIS         .... on
   Start iteration      DIISMaxIt       ....     0
   Startup error        DIISStart       ....  0.200000
   # of expansion vecs  DIISMaxEq       ....     5
   Bias factor          DIISBfac        ....   1.050
   Max. coefficient     DIISMaxC        ....  10.000
 Newton-Raphson         CNVNR           .... off
 SOSCF                  CNVSOSCF        .... off
 Level Shifting         CNVShift        .... on
   Level shift para.    LevelShift      ....    0.2500
   Turn off err/grad.   ShiftErr        ....    0.0000
 Zerner damping         CNVZerner       .... off
 Static damping         CNVDamp         .... on
   Fraction old density DampFac         ....    0.8500
   Max. Damping (<1)    DampMax         ....    0.9800
   Min. Damping (>=0)   DampMin         ....    0.0000
   Turn off err/grad.   DampErr         ....    0.0300
 Fernandez-Rico         CNVRico         .... off

SCF Procedure:
 Maximum # iterations   MaxIter         ....   125
 SCF integral mode      SCFMode         .... Direct
   Integral package                     .... LIBINT
 Reset frequency        DirectResetFreq ....    20
 Integral Threshold     Thresh          ....  2.500e-11 Eh
 Primitive CutOff       TCut            ....  2.500e-12 Eh

Convergence Tolerance:
 Convergence Check Mode ConvCheckMode   .... Total+1el-Energy
 Convergence forced     ConvForced      .... 1
 Energy Change          TolE            ....  1.000e-08 Eh
 1-El. energy change                    ....  1.000e-05 Eh
 DIIS Error             TolErr          ....  5.000e-07


Diagonalization of the overlap matrix:
Smallest eigenvalue                        ... 1.023e-03
Time for diagonalization                   ...    0.003 sec
Threshold for overlap eigenvalues          ... 1.000e-08
Number of eigenvalues below threshold      ... 0
Time for construction of square roots      ...    0.001 sec
Total time needed                          ...    0.004 sec

-------------------
DFT GRID GENERATION
-------------------

General Integration Accuracy     IntAcc      ...  4.340
Radial Grid Type                 RadialGrid  ... Gauss-Chebyshev
Angular Grid (max. acc.)         AngularGrid ... Lebedev-110
Angular grid pruning method      GridPruning ... 3 (G Style)
Weight generation scheme         WeightScheme... Becke
Basis function cutoff            BFCut       ...    1.0000e-11
Integration weight cutoff        WCut        ...    1.0000e-14
Grids for H and He will be reduced by one unit

# of grid points (after initial pruning)     ...   3576 (   0.0 sec)
# of grid points (after weights+screening)   ...   3576 (   0.0 sec)
Grid point division into batches done        ...    0.0 sec
Reduced shell lists constructed in    0.0 sec

Total number of grid points                  ...     3576
Total number of batches                      ...       56
Average number of points per batch           ...       63
Average number of grid points per atom       ...     3576
Average number of shells per batch           ...     9.75 (40.62%)
Average number of basis functions per batch  ...    39.75 (43.21%)
Average number of large shells per batch     ...     8.25 (84.62%)
Average number of large basis fcns per batch ...    33.75 (84.91%)
Maximum spatial batch extension              ...  25.56, 38.92, 38.92 au
Average spatial batch extension              ...   1.36,  1.85,  2.08 au

Time for grid setup =    0.027 sec

------------------------------
INITIAL GUESS: MODEL POTENTIAL
------------------------------
Loading Hartree-Fock densities                     ... done
  calling /sw/apps/orca/orca_4_2_0_linux_x86-64_openmpi314/orca 82_Pb_atom82.inp > 82_Pb_atom82.out in order to generate an atomic fitting density for atom 0 (Pb with ECP) on-the-fly... 
    atom 0 (Pb), assumed electronic state with S=3: 1s2 2s2 2p6 3s2 3p6 4s2 3d10 4p6 5s2 4d10 5p6 6s2 4f14 5d10 6p2           ... done
Calculating cut-offs                               ... done
Setting up the integral package                    ... done
Initializing the effective Hamiltonian             ... done
Starting the Coulomb interaction                   ... done (   0.0 sec)
Reading the grid                                   ... done
Mapping shells                                     ... done
Starting the XC term evaluation                    ... done (   0.0 sec)
Transforming the Hamiltonian                       ... done (   0.0 sec)
Diagonalizing the Hamiltonian                      ... done (   0.0 sec)
Back transforming the eigenvectors                 ... done (   0.0 sec)
Now organizing SCF variables                       ... done
                      ------------------
                      INITIAL GUESS DONE (   1.2 sec)
                      ------------------
--------------
SCF ITERATIONS
--------------
ITER       Energy         Delta-E        Max-DP      RMS-DP      [F,P]     Damp
               ***  Starting incremental Fock matrix formation  ***
  0   -186.5696876504   0.000000000000 1.11218184  0.02133335  1.0155327 0.8500
  1   -187.5644564810  -0.994768830604 0.95724801  0.01824796  0.8361025 0.8500
                               ***Turning on DIIS***
  2   -188.3129042475  -0.748447766423 0.80674548  0.01547176  0.6547762 0.8500
  3   -192.3356650480  -4.022760800556 0.66053418  0.01297369  0.5051659 0.8500
  4   -193.5109214166  -1.175256368545 0.55180650  0.01094533  0.4122192 0.8500
  5   -193.6112176729  -0.100296256305 0.47013351  0.00929705  0.3472725 0.8500
  6   -193.4703039978   0.140913675025 0.40237291  0.00791469  0.2960391 0.8500
  7   -193.0973852797   0.372918718173 0.34661654  0.00675767  0.2536600 0.8500
  8   -192.8311232002   0.266262079454 0.29722442  0.00575859  0.2166442 0.8500
  9   -192.6375989063   0.193524293938 0.25395465  0.00490056  0.1845290 0.8500
 10   -192.4896786140   0.147920292298 0.21657308  0.00416781  0.1568750 0.8500
 11   -192.3719946851   0.117683928854 0.18451865  0.00354378  0.1331725 0.8500
 12   -192.2764025839   0.095592101193 0.15713721  0.00301299  0.1129143 0.8500
 13   -192.1983266393   0.078075944598 0.13378065  0.00256163  0.0956338 0.8500
 14   -192.1344155137   0.063911125626 0.11387447  0.00217787  0.0809192 0.8500
 15   -192.0820016523   0.052413861449 0.09691915  0.00185159  0.0684096 0.8500
 16   -192.0389509290   0.043050723246 0.08248331  0.00157420  0.0577901 0.8500
 17   -192.0035468210   0.035404108030 0.07019603  0.00133838  0.0487868 0.8500
 18   -191.9743990855   0.029147735439 0.05973937  0.00113790  0.0411622 0.8500
 19   -191.9503779730   0.024021112523 0.05084151  0.00096748  0.0347116 0.8500
               *** Restarting incremental Fock matrix formation ***
                                   *** Resetting DIIS ***
 20   -191.6525127418   0.297865231212 0.28696259  0.00550301  0.0292589 0.0000
 21   -191.7049039016  -0.052391159840 0.00884958  0.00023344  0.0151659 0.0000
 22   -191.8168950348  -0.111991133175 0.00616966  0.00012131  0.0031919 0.0000
 23   -191.8319708374  -0.015075802557 0.00376708  0.00006145  0.0008229 0.0000
 24   -191.8351666688  -0.003195831405 0.00148348  0.00002727  0.0003660 0.0000
 25   -191.8355146787  -0.000348009876 0.00074177  0.00001451  0.0002192 0.0000
 26   -191.8355401801  -0.000025501454 0.00034007  0.00000645  0.0001192 0.0000
 27   -191.8357676845  -0.000227504343 0.00009239  0.00000225  0.0000594 0.0000
 28   -191.8359339156  -0.000166231130 0.00006367  0.00000143  0.0000287 0.0000
 29   -191.8360423694  -0.000108453811 0.00004722  0.00000102  0.0000134 0.0000
 30   -191.8361109393  -0.000068569920 0.00001989  0.00000052  0.0000062 0.0000
 31   -191.8361458306  -0.000034891282 0.00000668  0.00000022  0.0000029 0.0000
 32   -191.8361615195  -0.000015688909 0.00000378  0.00000010  0.0000015 0.0000
                            ***DIIS convergence achieved***

               *****************************************************
               *                     SUCCESS                       *
               *           SCF CONVERGED AFTER  33 CYCLES          *
               *****************************************************


----------------
TOTAL SCF ENERGY
----------------

Total Energy       :         -191.83616851 Eh           -5220.12753 eV

Components:
Nuclear Repulsion  :            0.00000000 Eh               0.00000 eV
Electronic Energy  :         -191.83616851 Eh           -5220.12753 eV
One Electron Energy:         -335.84620398 Eh           -9138.83982 eV
Two Electron Energy:          144.01003547 Eh            3918.71229 eV

Virial components:
Potential Energy   :         -254.50099877 Eh           -6925.32425 eV
Kinetic Energy     :           62.66483026 Eh            1705.19672 eV
Virial Ratio       :            4.06130516


---------------
SCF CONVERGENCE
---------------

  Last Energy change         ...   -6.9920e-06  Tolerance :   1.0000e-08
  Last MAX-Density change    ...    1.7695e-06  Tolerance :   1.0000e-07
  Last RMS-Density change    ...    4.4470e-08  Tolerance :   5.0000e-09
  Last DIIS Error            ...    7.5703e-07  Tolerance :   5.0000e-07

             **** THE GBW FILE WAS UPDATED (82_Pb.gbw) ****
             **** DENSITY FILE WAS UPDATED (82_Pb.scfp) ****
             **** ENERGY FILE WAS UPDATED (82_Pb.en.tmp) ****
----------------------
UHF SPIN CONTAMINATION
----------------------

Expectation value of <S**2>     :     2.010565
Ideal value S*(S+1) for S=1.0   :     2.000000
Deviation                       :     0.010565

             **** THE GBW FILE WAS UPDATED (82_Pb.gbw) ****
             **** DENSITY FILE WAS UPDATED (82_Pb.scfp) ****
----------------
ORBITAL ENERGIES
----------------
                 SPIN UP ORBITALS
  NO   OCC          E(Eh)            E(eV) 
   0   1.0000      -6.173892      -168.0001 
   1   1.0000      -3.859022      -105.0093 
   2   1.0000      -3.853492      -104.8589 
   3   1.0000      -3.853492      -104.8589 
   4   1.0000      -1.081632       -29.4327 
   5   1.0000      -1.078479       -29.3469 
   6   1.0000      -1.078479       -29.3469 
   7   1.0000      -1.069757       -29.1096 
   8   1.0000      -1.069757       -29.1096 
   9   1.0000      -0.623236       -16.9591 
  10   1.0000      -0.255098        -6.9416 
  11   1.0000      -0.255098        -6.9416 
  12   0.0000      -0.016343        -0.4447 
  13   0.0000       0.034619         0.9420 
  14   0.0000       0.034852         0.9484 
  15   0.0000       0.034852         0.9484 
  16   0.0000       0.037839         1.0296 
  17   0.0000       0.092705         2.5226 
  18   0.0000       0.092948         2.5292 
  19   0.0000       0.092948         2.5292 
  20   0.0000       0.094050         2.5592 
  21   0.0000       0.094050         2.5592 
  22   0.0000       0.157821         4.2945 
  23   0.0000       0.157821         4.2945 
  24   0.0000       0.165467         4.5026 
  25   0.0000       0.214870         5.8469 
  26   0.0000       0.269784         7.3412 
  27   0.0000       0.269784         7.3412 
  28   0.0000       0.274582         7.4718 
  29   0.0000       0.274582         7.4718 
  30   0.0000       0.274827         7.4784 
  31   0.0000       0.275764         7.5039 
  32   0.0000       0.275764         7.5039 
  33   0.0000       0.276631         7.5275 
  34   0.0000       0.278592         7.5809 
  35   0.0000       0.278592         7.5809 
  36   0.0000       0.283366         7.7108 
  37   0.0000       0.283366         7.7108 
  38   0.0000       0.542886        14.7727 
  39   0.0000       0.542886        14.7727 
  40   0.0000       0.544326        14.8119 
  41   0.0000       0.739521        20.1234 
  42   0.0000       0.739684        20.1278 
  43   0.0000       0.740270        20.1438 
  44   0.0000       0.740270        20.1438 
  45   0.0000       0.740632        20.1536 
  46   0.0000       0.740632        20.1536 
  47   0.0000       0.741944        20.1893 
  48   0.0000       0.741944        20.1893 
  49   0.0000       0.743892        20.2423 
  50   0.0000       0.743892        20.2423 
  51   0.0000       0.749106        20.3842 
  52   0.0000       0.749106        20.3842 
  53   0.0000       0.819561        22.3014 
  54   0.0000       0.825986        22.4762 
  55   0.0000       0.827148        22.5078 
  56   0.0000       0.827148        22.5078 
  57   0.0000       0.830661        22.6034 
  58   0.0000       0.830661        22.6034 
  59   0.0000       0.836571        22.7642 
  60   0.0000       0.836571        22.7642 
  61   0.0000       0.844897        22.9908 
  62   0.0000       0.844897        22.9908 
  63   0.0000       1.568760        42.6881 
  64   0.0000       1.571169        42.7537 
  65   0.0000       1.571169        42.7537 
  66   0.0000       1.578345        42.9489 
  67   0.0000       1.578345        42.9489 
  68   0.0000       1.590210        43.2718 
  69   0.0000       1.590210        43.2718 
  70   0.0000       1.842584        50.1393 
  71   0.0000       1.852085        50.3978 
  72   0.0000       1.852085        50.3978 
  73   0.0000       1.912382        52.0385 
  74   0.0000       1.915325        52.1186 
  75   0.0000       1.915325        52.1186 
  76   0.0000       1.924317        52.3633 
  77   0.0000       1.924317        52.3633 
  78   0.0000       2.056721        55.9662 
  79   0.0000       2.058178        56.0059 
  80   0.0000       2.058178        56.0059 
  81   0.0000       2.062589        56.1259 
  82   0.0000       2.062589        56.1259 
  83   0.0000       2.070084        56.3299 
  84   0.0000       2.070084        56.3299 
  85   0.0000       2.080894        56.6240 
  86   0.0000       2.080894        56.6240 
  87   0.0000       2.891027        78.6688 
  88   0.0000      35.927833       977.6461 
  89   0.0000      35.932203       977.7649 
  90   0.0000      35.932203       977.7649 
  91   0.0000      61.933400      1685.2935 

                 SPIN DOWN ORBITALS
  NO   OCC          E(Eh)            E(eV) 
   0   1.0000      -6.169427      -167.8786 
   1   1.0000      -3.862563      -105.1057 
   2   1.0000      -3.847835      -104.7049 
   3   1.0000      -3.847835      -104.7049 
   4   1.0000      -1.078693       -29.3527 
   5   1.0000      -1.073502       -29.2115 
   6   1.0000      -1.073502       -29.2115 
   7   1.0000      -1.059006       -28.8170 
   8   1.0000      -1.059006       -28.8170 
   9   1.0000      -0.503336       -13.6965 
  10   0.0000       0.003809         0.1037 
  11   0.0000       0.022694         0.6175 
  12   0.0000       0.022694         0.6175 
  13   0.0000       0.041660         1.1336 
  14   0.0000       0.042866         1.1664 
  15   0.0000       0.060341         1.6420 
  16   0.0000       0.060341         1.6420 
  17   0.0000       0.097851         2.6627 
  18   0.0000       0.099433         2.7057 
  19   0.0000       0.099433         2.7057 
  20   0.0000       0.105839         2.8800 
  21   0.0000       0.105839         2.8800 
  22   0.0000       0.171858         4.6765 
  23   0.0000       0.190569         5.1856 
  24   0.0000       0.190569         5.1856 
  25   0.0000       0.232402         6.3240 
  26   0.0000       0.282673         7.6919 
  27   0.0000       0.284471         7.7409 
  28   0.0000       0.284471         7.7409 
  29   0.0000       0.289834         7.8868 
  30   0.0000       0.289834         7.8868 
  31   0.0000       0.297926         8.1070 
  32   0.0000       0.299401         8.1471 
  33   0.0000       0.299401         8.1471 
  34   0.0000       0.301074         8.1926 
  35   0.0000       0.301074         8.1926 
  36   0.0000       0.318160         8.6576 
  37   0.0000       0.318160         8.6576 
  38   0.0000       0.552292        15.0286 
  39   0.0000       0.580025        15.7833 
  40   0.0000       0.580025        15.7833 
  41   0.0000       0.756737        20.5919 
  42   0.0000       0.762839        20.7579 
  43   0.0000       0.766637        20.8612 
  44   0.0000       0.766637        20.8612 
  45   0.0000       0.766663        20.8620 
  46   0.0000       0.766663        20.8620 
  47   0.0000       0.778175        21.1752 
  48   0.0000       0.778175        21.1752 
  49   0.0000       0.790511        21.5109 
  50   0.0000       0.790511        21.5109 
  51   0.0000       0.798823        21.7371 
  52   0.0000       0.798823        21.7371 
  53   0.0000       0.839100        22.8331 
  54   0.0000       0.841954        22.9107 
  55   0.0000       0.841954        22.9107 
  56   0.0000       0.844138        22.9702 
  57   0.0000       0.847528        23.0624 
  58   0.0000       0.847528        23.0624 
  59   0.0000       0.856797        23.3146 
  60   0.0000       0.856797        23.3146 
  61   0.0000       0.871317        23.7097 
  62   0.0000       0.871317        23.7097 
  63   0.0000       1.579283        42.9745 
  64   0.0000       1.583078        43.0777 
  65   0.0000       1.583078        43.0777 
  66   0.0000       1.594384        43.3854 
  67   0.0000       1.594384        43.3854 
  68   0.0000       1.613386        43.9025 
  69   0.0000       1.613386        43.9025 
  70   0.0000       1.847927        50.2847 
  71   0.0000       1.876835        51.0713 
  72   0.0000       1.876835        51.0713 
  73   0.0000       1.923029        52.3283 
  74   0.0000       1.930254        52.5249 
  75   0.0000       1.930254        52.5249 
  76   0.0000       1.952896        53.1410 
  77   0.0000       1.952896        53.1410 
  78   0.0000       2.071811        56.3769 
  79   0.0000       2.074116        56.4396 
  80   0.0000       2.074116        56.4396 
  81   0.0000       2.081112        56.6299 
  82   0.0000       2.081112        56.6299 
  83   0.0000       2.093107        56.9563 
  84   0.0000       2.093107        56.9563 
  85   0.0000       2.111216        57.4491 
  86   0.0000       2.111216        57.4491 
  87   0.0000       2.901676        78.9586 
  88   0.0000      35.927486       977.6366 
  89   0.0000      35.934844       977.8368 
  90   0.0000      35.934844       977.8368 
  91   0.0000      61.934150      1685.3139 

                    ********************************
                    * MULLIKEN POPULATION ANALYSIS *
                    ********************************

--------------------------------------------
MULLIKEN ATOMIC CHARGES AND SPIN POPULATIONS
--------------------------------------------
   0 Pb:   -0.000000    2.000000
Sum of atomic charges         :   -0.0000000
Sum of atomic spin populations:    2.0000000

-----------------------------------------------------
MULLIKEN REDUCED ORBITAL CHARGES AND SPIN POPULATIONS
-----------------------------------------------------
CHARGE
  0 Pbs       :     3.996873  s :     3.996873
      pz      :     2.013129  p :     7.999945
      px      :     2.986841
      py      :     2.999975
      dz2     :     2.002979  d :    10.003035
      dxz     :     2.000100
      dyz     :     1.999978
      dx2y2   :     1.999989
      dxy     :     1.999989
      f0      :     0.000006  f :     0.000055
      f+1     :     0.000023
      f-1     :     0.000025
      f+2     :     0.000001
      f-2     :     0.000001
      f+3     :     0.000000
      f-3     :     0.000000
      g0      :     0.000026  g :     0.000092
      g+1     :     0.000022
      g-1     :     0.000021
      g+2     :     0.000011
      g-2     :     0.000011
      g+3     :     0.000000
      g-3     :     0.000000
      g+4     :     0.000000
      g-4     :     0.000000

SPIN
  0 Pbs       :    -0.000838  s :    -0.000838
      pz      :     0.013135  p :     1.999958
      px      :     0.986845
      py      :     0.999978
      dz2     :     0.000823  d :     0.000899
      dxz     :     0.000047
      dyz     :     0.000014
      dx2y2   :     0.000007
      dxy     :     0.000007
      f0      :     0.000000  f :     0.000042
      f+1     :     0.000019
      f-1     :     0.000021
      f+2     :     0.000001
      f-2     :     0.000001
      f+3     :     0.000000
      f-3     :     0.000000
      g0      :    -0.000017  g :    -0.000061
      g+1     :    -0.000014
      g-1     :    -0.000014
      g+2     :    -0.000007
      g-2     :    -0.000007
      g+3     :    -0.000000
      g-3     :    -0.000000
      g+4     :    -0.000000
      g-4     :    -0.000000


                     *******************************
                     * LOEWDIN POPULATION ANALYSIS *
                     *******************************

-------------------------------------------
LOEWDIN ATOMIC CHARGES AND SPIN POPULATIONS
-------------------------------------------
   0 Pb:   -0.000000    2.000000

----------------------------------------------------
LOEWDIN REDUCED ORBITAL CHARGES AND SPIN POPULATIONS
----------------------------------------------------
CHARGE
  0 Pbs       :     3.996873  s :     3.996873
      pz      :     2.013129  p :     7.999945
      px      :     2.986841
      py      :     2.999975
      dz2     :     2.002979  d :    10.003035
      dxz     :     2.000100
      dyz     :     1.999978
      dx2y2   :     1.999989
      dxy     :     1.999989
      f0      :     0.000006  f :     0.000055
      f+1     :     0.000023
      f-1     :     0.000025
      f+2     :     0.000001
      f-2     :     0.000001
      f+3     :     0.000000
      f-3     :     0.000000
      g0      :     0.000026  g :     0.000092
      g+1     :     0.000022
      g-1     :     0.000021
      g+2     :     0.000011
      g-2     :     0.000011
      g+3     :     0.000000
      g-3     :     0.000000
      g+4     :     0.000000
      g-4     :     0.000000

SPIN
  0 Pbs       :    -0.000838  s :    -0.000838
      pz      :     0.013135  p :     1.999958
      px      :     0.986845
      py      :     0.999978
      dz2     :     0.000823  d :     0.000899
      dxz     :     0.000047
      dyz     :     0.000014
      dx2y2   :     0.000007
      dxy     :     0.000007
      f0      :     0.000000  f :     0.000042
      f+1     :     0.000019
      f-1     :     0.000021
      f+2     :     0.000001
      f-2     :     0.000001
      f+3     :     0.000000
      f-3     :     0.000000
      g0      :    -0.000017  g :    -0.000061
      g+1     :    -0.000014
      g-1     :    -0.000014
      g+2     :    -0.000007
      g-2     :    -0.000007
      g+3     :    -0.000000
      g-3     :    -0.000000
      g+4     :    -0.000000
      g-4     :    -0.000000


                      *****************************
                      * MAYER POPULATION ANALYSIS *
                      *****************************

  NA   - Mulliken gross atomic population
  ZA   - Total nuclear charge
  QA   - Mulliken gross atomic charge
  VA   - Mayer's total valence
  BVA  - Mayer's bonded valence
  FA   - Mayer's free valence

  ATOM       NA         ZA         QA         VA         BVA        FA
  0 Pb    22.0000    22.0000    -0.0000     2.0211     0.0000     2.0211

  Mayer bond orders larger than 0.100000


-------
TIMINGS
-------

Total SCF time: 0 days 0 hours 0 min 8 sec 

Total time                  ....       8.449 sec
Sum of individual times     ....       8.177 sec  ( 96.8%)

Fock matrix formation       ....       6.853 sec  ( 81.1%)
Diagonalization             ....       0.071 sec  (  0.8%)
Density matrix formation    ....       0.014 sec  (  0.2%)
Population analysis         ....       0.008 sec  (  0.1%)
Initial guess               ....       1.163 sec  ( 13.8%)
Orbital Transformation      ....       0.000 sec  (  0.0%)
Orbital Orthonormalization  ....       0.000 sec  (  0.0%)
DIIS solution               ....       0.040 sec  (  0.5%)


           ************************************************************
           *        Program running with 24 parallel MPI-processes    *
           *              working on a common directory               *
           ************************************************************


------------------------------------------------------------------------------- 
                              ORCA-MATRIX DRIVEN CI                            
------------------------------------------------------------------------------- 

--------------------------------
AUTOMATIC CHOICE OF INCORE LEVEL
--------------------------------

Memory available                           ...   2500.00 MB
Memory needed for S+T                      ...      5.27 MB
Memory needed for J+K                      ...     10.59 MB
Memory needed for DIIS                     ...     73.83 MB
Memory needed for 3-ext                    ...     31.25 MB
Memory needed for 4-ext                    ...    158.20 MB
Memory needed for triples                  ...     19.53 MB
 -> Final InCoreLevel    ... 5
 -> check shows that triples correction can be computed


Wavefunction type
-----------------
Correlation treatment                      ...      CCSD     
Single excitations                         ... ON
Orbital optimization                       ... OFF
Calculation of Z vector                    ... OFF
Calculation of Brueckner orbitals          ... OFF
Perturbative triple excitations            ... ON
Calculation of F12 correction              ... OFF
Frozen core treatment                      ... chemical core (8 el)
Reference Wavefunction                     ... UHF
  Alpha-MOs occ    :     4 ...   11 (  8 MO's/  8 electrons)
  Beta-MOs occ     :     4 ...    9 (  6 MO's/  6 electrons)
  Alpha-MOs virt   :    12 ...   91 ( 80 MO's              )
  Beta-MOs virt    :    10 ...   91 ( 82 MO's              )
Number of AO's                             ...     92
Number of electrons                        ...     22
Number of correlated electrons             ...     14

Algorithmic settings
--------------------
Integral transformation                    ... AO direct full transformation
K(C) Formation                             ... FULL-MO TRAFO
Maximum number of iterations               ...        50
Convergence tolerance (max. residuum)      ... 1.000e-05
Level shift for amplitude update           ... 2.000e-01
Maximum number of DIIS vectors             ...         7
DIIS turned on at iteration                ...         0
Damping before turning on DIIS             ...     0.500
Damping after turning on DIIS              ...     0.000
Pair specific amplitude update             ... OFF
Natural orbital iterations                 ... OFF
Perturbative natural orbital generation    ... OFF
Printlevel                                 ... 2

Memory handling:
----------------
Maximum memory for working arrays          ...   2500 MB
Data storage in matrix containers          ... UNCOMPRESSED
Data type for integral storage             ... DOUBLE
In-Core Storage of quantities:
   Amplitudes+Sigma Vector      ... YES
   J+K operators                ... YES
   DIIS vectors                 ... YES
   3-external integrals         ... YES
   4-external integrals         ... YES


Initializing the integral package          ... done
Warning: reference  - re-canonicalizations have been set to INT 1 VIRT 1

--------------------------
UNRESTRICTED FOCK OPERATOR
--------------------------

<ss|ss>:          406 b            0 skpd (  0.0%)    0.001 s ( 0.003 ms/b)
<ss|sp>:         1372 b            0 skpd (  0.0%)    0.004 s ( 0.003 ms/b)
<ss|sd>:          980 b            0 skpd (  0.0%)    0.005 s ( 0.005 ms/b)
<ss|sf>:          588 b            0 skpd (  0.0%)    0.001 s ( 0.001 ms/b)
<ss|sg>:          392 b            0 skpd (  0.0%)    0.001 s ( 0.002 ms/b)
<ss|pp>:          784 b            0 skpd (  0.0%)    0.003 s ( 0.003 ms/b)
<ss|pd>:          980 b            0 skpd (  0.0%)    0.003 s ( 0.003 ms/b)
<ss|pf>:          588 b            0 skpd (  0.0%)    0.001 s ( 0.001 ms/b)
<ss|pg>:          392 b            0 skpd (  0.0%)    0.001 s ( 0.002 ms/b)
<ss|dd>:          420 b            0 skpd (  0.0%)    0.005 s ( 0.011 ms/b)
<ss|df>:          420 b            0 skpd (  0.0%)    0.001 s ( 0.002 ms/b)
<ss|dg>:          280 b            0 skpd (  0.0%)    0.001 s ( 0.005 ms/b)
<ss|ff>:          168 b            0 skpd (  0.0%)    0.000 s ( 0.002 ms/b)
<ss|fg>:          168 b            0 skpd (  0.0%)    0.001 s ( 0.003 ms/b)
<ss|gg>:           84 b            0 skpd (  0.0%)    0.001 s ( 0.009 ms/b)
<sp|sp>:         1225 b            0 skpd (  0.0%)    0.003 s ( 0.002 ms/b)
<sp|sd>:         1715 b            0 skpd (  0.0%)    0.007 s ( 0.004 ms/b)
<sp|sf>:         1029 b            0 skpd (  0.0%)    0.001 s ( 0.001 ms/b)
<sp|sg>:          686 b            0 skpd (  0.0%)    0.001 s ( 0.002 ms/b)
<sp|pp>:         1372 b            0 skpd (  0.0%)    0.007 s ( 0.005 ms/b)
<sp|pd>:         1715 b            0 skpd (  0.0%)    0.007 s ( 0.004 ms/b)
<sp|pf>:         1029 b            0 skpd (  0.0%)    0.001 s ( 0.001 ms/b)
<sp|pg>:          686 b            0 skpd (  0.0%)    0.002 s ( 0.003 ms/b)
<sp|dd>:          735 b            0 skpd (  0.0%)    0.012 s ( 0.016 ms/b)
<sp|df>:          735 b            0 skpd (  0.0%)    0.002 s ( 0.003 ms/b)
<sp|dg>:          490 b            0 skpd (  0.0%)    0.004 s ( 0.007 ms/b)
<sp|ff>:          294 b            0 skpd (  0.0%)    0.001 s ( 0.003 ms/b)
<sp|fg>:          294 b            0 skpd (  0.0%)    0.001 s ( 0.004 ms/b)
<sp|gg>:          147 b            0 skpd (  0.0%)    0.001 s ( 0.010 ms/b)
<sd|sd>:          630 b            0 skpd (  0.0%)    0.006 s ( 0.009 ms/b)
<sd|sf>:          735 b            0 skpd (  0.0%)    0.001 s ( 0.002 ms/b)
<sd|sg>:          490 b            0 skpd (  0.0%)    0.002 s ( 0.004 ms/b)
<sd|pp>:          980 b            0 skpd (  0.0%)    0.005 s ( 0.005 ms/b)
<sd|pd>:         1225 b            0 skpd (  0.0%)    0.009 s ( 0.008 ms/b)
<sd|pf>:          735 b            0 skpd (  0.0%)    0.002 s ( 0.002 ms/b)
<sd|pg>:          490 b            0 skpd (  0.0%)    0.003 s ( 0.007 ms/b)
<sd|dd>:          525 b            0 skpd (  0.0%)    0.017 s ( 0.033 ms/b)
<sd|df>:          525 b            0 skpd (  0.0%)    0.004 s ( 0.008 ms/b)
<sd|dg>:          350 b            0 skpd (  0.0%)    0.006 s ( 0.018 ms/b)
<sd|ff>:          210 b            0 skpd (  0.0%)    0.001 s ( 0.006 ms/b)
<sd|fg>:          210 b            0 skpd (  0.0%)    0.002 s ( 0.008 ms/b)
<sd|gg>:          105 b            0 skpd (  0.0%)    0.003 s ( 0.024 ms/b)
<sf|sf>:          231 b            0 skpd (  0.0%)    0.001 s ( 0.002 ms/b)
<sf|sg>:          294 b            0 skpd (  0.0%)    0.001 s ( 0.004 ms/b)
<sf|pp>:          588 b            0 skpd (  0.0%)    0.003 s ( 0.004 ms/b)
<sf|pd>:          735 b            0 skpd (  0.0%)    0.005 s ( 0.007 ms/b)
<sf|pf>:          441 b            0 skpd (  0.0%)    0.001 s ( 0.002 ms/b)
<sf|pg>:          294 b            0 skpd (  0.0%)    0.002 s ( 0.007 ms/b)
<sf|dd>:          315 b            0 skpd (  0.0%)    0.010 s ( 0.032 ms/b)
<sf|df>:          315 b            0 skpd (  0.0%)    0.003 s ( 0.008 ms/b)
<sf|dg>:          210 b            0 skpd (  0.0%)    0.004 s ( 0.020 ms/b)
<sf|ff>:          126 b            0 skpd (  0.0%)    0.002 s ( 0.013 ms/b)
<sf|fg>:          126 b            0 skpd (  0.0%)    0.001 s ( 0.012 ms/b)
<sf|gg>:           63 b            0 skpd (  0.0%)    0.002 s ( 0.029 ms/b)
<sg|sg>:          105 b            0 skpd (  0.0%)    0.001 s ( 0.010 ms/b)
<sg|pp>:          392 b            0 skpd (  0.0%)    0.003 s ( 0.009 ms/b)
<sg|pd>:          490 b            0 skpd (  0.0%)    0.007 s ( 0.014 ms/b)
<sg|pf>:          294 b            0 skpd (  0.0%)    0.001 s ( 0.005 ms/b)
<sg|pg>:          196 b            0 skpd (  0.0%)    0.003 s ( 0.014 ms/b)
<sg|dd>:          210 b            0 skpd (  0.0%)    0.013 s ( 0.062 ms/b)
<sg|df>:          210 b            0 skpd (  0.0%)    0.003 s ( 0.016 ms/b)
<sg|dg>:          140 b            0 skpd (  0.0%)    0.006 s ( 0.040 ms/b)
<sg|ff>:           84 b            0 skpd (  0.0%)    0.001 s ( 0.012 ms/b)
<sg|fg>:           84 b            0 skpd (  0.0%)    0.002 s ( 0.019 ms/b)
<sg|gg>:           42 b            0 skpd (  0.0%)    0.003 s ( 0.060 ms/b)
<pp|pp>:          406 b            0 skpd (  0.0%)    0.004 s ( 0.009 ms/b)
<pp|pd>:          980 b            0 skpd (  0.0%)    0.008 s ( 0.008 ms/b)
<pp|pf>:          588 b            0 skpd (  0.0%)    0.002 s ( 0.003 ms/b)
<pp|pg>:          392 b            0 skpd (  0.0%)    0.003 s ( 0.007 ms/b)
<pp|dd>:          420 b            0 skpd (  0.0%)    0.014 s ( 0.034 ms/b)
<pp|df>:          420 b            0 skpd (  0.0%)    0.003 s ( 0.008 ms/b)
<pp|dg>:          280 b            0 skpd (  0.0%)    0.005 s ( 0.019 ms/b)
<pp|ff>:          168 b            0 skpd (  0.0%)    0.001 s ( 0.007 ms/b)
<pp|fg>:          168 b            0 skpd (  0.0%)    0.002 s ( 0.010 ms/b)
<pp|gg>:           84 b            0 skpd (  0.0%)    0.002 s ( 0.029 ms/b)
<pd|pd>:          630 b            0 skpd (  0.0%)    0.015 s ( 0.024 ms/b)
<pd|pf>:          735 b            0 skpd (  0.0%)    0.003 s ( 0.005 ms/b)
<pd|pg>:          490 b            0 skpd (  0.0%)    0.006 s ( 0.013 ms/b)
<pd|dd>:          525 b            0 skpd (  0.0%)    0.032 s ( 0.061 ms/b)
<pd|df>:          525 b            0 skpd (  0.0%)    0.008 s ( 0.016 ms/b)
<pd|dg>:          350 b            0 skpd (  0.0%)    0.013 s ( 0.037 ms/b)
<pd|ff>:          210 b            0 skpd (  0.0%)    0.003 s ( 0.014 ms/b)
<pd|fg>:          210 b            0 skpd (  0.0%)    0.004 s ( 0.020 ms/b)
<pd|gg>:          105 b            0 skpd (  0.0%)    0.006 s ( 0.057 ms/b)
<pf|pf>:          231 b            0 skpd (  0.0%)    0.002 s ( 0.007 ms/b)
<pf|pg>:          294 b            0 skpd (  0.0%)    0.003 s ( 0.012 ms/b)
<pf|dd>:          315 b            0 skpd (  0.0%)    0.016 s ( 0.050 ms/b)
<pf|df>:          315 b            0 skpd (  0.0%)    0.005 s ( 0.015 ms/b)
<pf|dg>:          210 b            0 skpd (  0.0%)    0.007 s ( 0.035 ms/b)
<pf|ff>:          126 b            0 skpd (  0.0%)    0.002 s ( 0.018 ms/b)
<pf|fg>:          126 b            0 skpd (  0.0%)    0.003 s ( 0.024 ms/b)
<pf|gg>:           63 b            0 skpd (  0.0%)    0.004 s ( 0.063 ms/b)
<pg|pg>:          105 b            0 skpd (  0.0%)    0.003 s ( 0.030 ms/b)
<pg|dd>:          210 b            0 skpd (  0.0%)    0.022 s ( 0.103 ms/b)
<pg|df>:          210 b            0 skpd (  0.0%)    0.006 s ( 0.027 ms/b)
<pg|dg>:          140 b            0 skpd (  0.0%)    0.009 s ( 0.066 ms/b)
<pg|ff>:           84 b            0 skpd (  0.0%)    0.002 s ( 0.023 ms/b)
<pg|fg>:           84 b            0 skpd (  0.0%)    0.003 s ( 0.038 ms/b)
<pg|gg>:           42 b            0 skpd (  0.0%)    0.005 s ( 0.119 ms/b)
<dd|dd>:          120 b            0 skpd (  0.0%)    0.029 s ( 0.246 ms/b)
<dd|df>:          225 b            0 skpd (  0.0%)    0.008 s ( 0.036 ms/b)
<dd|dg>:          150 b            0 skpd (  0.0%)    0.013 s ( 0.085 ms/b)
<dd|ff>:           90 b            0 skpd (  0.0%)    0.003 s ( 0.029 ms/b)
<dd|fg>:           90 b            0 skpd (  0.0%)    0.004 s ( 0.042 ms/b)
<dd|gg>:           45 b            0 skpd (  0.0%)    0.005 s ( 0.121 ms/b)
<df|df>:          120 b            0 skpd (  0.0%)    0.005 s ( 0.042 ms/b)
<df|dg>:          150 b            0 skpd (  0.0%)    0.009 s ( 0.063 ms/b)
<df|ff>:           90 b            0 skpd (  0.0%)    0.003 s ( 0.032 ms/b)
<df|fg>:           90 b            0 skpd (  0.0%)    0.004 s ( 0.043 ms/b)
<df|gg>:           45 b            0 skpd (  0.0%)    0.006 s ( 0.126 ms/b)
<dg|dg>:           55 b            0 skpd (  0.0%)    0.007 s ( 0.134 ms/b)
<dg|ff>:           60 b            0 skpd (  0.0%)    0.002 s ( 0.040 ms/b)
<dg|fg>:           60 b            0 skpd (  0.0%)    0.004 s ( 0.065 ms/b)
<dg|gg>:           30 b            0 skpd (  0.0%)    0.006 s ( 0.205 ms/b)
<ff|ff>:           21 b            0 skpd (  0.0%)    0.001 s ( 0.052 ms/b)
<ff|fg>:           36 b            0 skpd (  0.0%)    0.002 s ( 0.055 ms/b)
<ff|gg>:           18 b            0 skpd (  0.0%)    0.003 s ( 0.151 ms/b)
<fg|fg>:           21 b            0 skpd (  0.0%)    0.003 s ( 0.134 ms/b)
<fg|gg>:           18 b            0 skpd (  0.0%)    0.005 s ( 0.272 ms/b)
<gg|gg>:            6 b            0 skpd (  0.0%)    0.004 s ( 0.642 ms/b)
Recanonicalizing the internal orbitals
Recanonicalizing the virtual orbitals
Time needed for Fock operator              ...            0.581 sec
Reference energy                           ...   -191.836173165
Warning: for UHF the TrafoType has to be JK
Warning: for UHF the K(C)-option cannot be MO but must be AOX

-------------------------------
PARTIAL EXCHANGE TRANSFORMATION
-------------------------------

Transformation type                        ... two-operators
Generation of integrals (i,mue|j,nue)      ... ON
Generation of integrals (mue,kappa|nue,tau)... ON
Generation of integrals (i,mue|a,nue)      ... ON
Dimension of the basis                     ...   92
Number of internal alpha-MOs               ...    8 (   4-  11)
Number of internal beta-MOs                ...    6 (   4-   9)
Number of external alpha-MOs               ...   80 (  12-  91)
Number of external beta-MOs                ...   82 (  10-  91)
Pair cutoff                                ... 0.000e+00 Eh
Number of AO pairs in the trafo            ... 4278
Total Number of distinct AO pairs          ... 4278
Memory devoted for trafo                   ... 2500.0 MB 
Max. Number of MO pairs treated together   ... 38714      
Number Format for Storage                  ... Double (8 Byte)
Integral package used                      ... LIBINT

Starting integral evaluation:
    ... done with AO integral generation
Closing buffer AOK[aa] ( 0.00 GB; CompressionRatio= 0.98)
Closing buffer AOK[bb] ( 0.00 GB; CompressionRatio= 0.96)
Closing buffer AOK[ab] ( 0.00 GB; CompressionRatio= 0.97)
Closing buffer AOK[ba] ( 0.00 GB; CompressionRatio= 0.97)
Collecting buffer AOK 
Closing buffer IAAO1[aa] ( 0.00 GB; CompressionRatio= 1.00)
Closing buffer IAAO1[bb] ( 0.00 GB; CompressionRatio= 1.00)
Closing buffer IAAO1[ab] ( 0.00 GB; CompressionRatio= 1.00)
Closing buffer IAAO1[ba] ( 0.00 GB; CompressionRatio= 1.00)
Closing buffer IAAO2[aa] ( 0.00 GB; CompressionRatio= 1.00)
Closing buffer IAAO2[bb] ( 0.00 GB; CompressionRatio= 1.00)
Closing buffer IAAO2[ab] ( 0.00 GB; CompressionRatio= 1.00)
Closing buffer IAAO2[ba] ( 0.00 GB; CompressionRatio= 1.00)
Collecting buffer IAAO 
Closing buffer PRQS    ( 0.00 GB; CompressionRatio= 1.00)
Collecting buffer PRQS 
Number of alpha/alpha MO pairs in trafo    ...   36
Number of beta /beta  MO pairs in trafo    ...   21
Number of alpha/ beta MO pairs in trafo    ...   48
------------------------
SORTING OF (i,mue|j,nue)
------------------------

SORTING OF ALPHA/ALPHA PAIRS
IBATCH = 1 of  1
Closing buffer KAO[aa] ( 0.00 GB; CompressionRatio= 1.00)
Collecting buffer KAO 
SORTING OF BETA /BETA  PAIRS
IBATCH = 1 of  1
Closing buffer KAO[bb] ( 0.00 GB; CompressionRatio= 1.00)
Collecting buffer KAO 
SORTING OF ALPHA/BETA  PAIRS
IBATCH = 1 of  1
Closing buffer KAO[ab] ( 0.00 GB; CompressionRatio= 0.999822810230)
Collecting buffer KAO[ab] 
------------------------
SORTING OF (i,mue|a,nue)
------------------------

Number of alpha/alpha (i,a) pairs in trafo  ...  640
Number of beta /beta  (i,a) pairs in trafo  ...  492
Number of alpha/ beta (i,a) pairs in trafo  ...  656
Number of beta /alpha (i,a) pairs in trafo  ...  480
Setting up the alpha/alpha list             ... done
Setting up the beta /beta  list             ... done
Setting up the alpha/beta  list             ... done
Setting up the beta /alpha list             ... done
    ... Now sorting (i,mue|a,nue)integrals
    ... Integrals (i,b|a,c) will be made on the fly
SORTING OF ALPHA/ALPHA PAIRS
IBATCH = 1 of  1
Closing buffer IPAQ[aa]  0.00 GB; CompressionRatio= 1.00)
SORTING OF BETA /BETA  PAIRS
IBATCH = 1 of  1
Closing buffer IPAQ[bb]( 0.00 GB; CompressionRatio= 1.00)
SORTING OF ALPHA/BETA  PAIRS (NMatSort_ab=28)
IBATCH = 1 of  1
Closing buffer IPAQ[ab]( 0.00 GB; CompressionRatio= 1.00)
SORTING OF BETA/ALPHA  PAIRS
IBATCH = 1 of  1
Closing buffer IPAQ[ba]( 0.00 GB; CompressionRatio= 1.00)
N(AO-Batches) Done                         ...       576 
N(AO-Batches) Skipped                      ...         0 
N(IJ)-pairs Skipped                        ...         0 
TOTAL TIME for half transformation         ...     1.585 sec
AO-integral generation                     ...     0.042 sec
Half transformation                        ...     0.001 sec
K-integral sorting                         ...     0.483 sec
<ss|**>: 
------------------------------
PARTIAL COULOMB TRANSFORMATION
------------------------------

Transformation type                        ... two-operators
Dimension of the basis                     ...   92
Number of internal alpha-MOs               ...    8 (4-11)
Number of internal beta-MOs                ...    6 (4-9)
Pair cutoff                                ... 0.000e+00 Eh
Number of AO pairs included in the trafo   ... 4278
Total Number of distinct AO pairs          ... 4278
Memory devoted for trafo                   ... 2500.0 MB 
Max. Number of MO pairs treated together   ... 76596      
Max. Number of MOs treated per batch       ...  832      
Number Format for Storage                  ... Double (8 Byte)
AO-integral source                         ... DIRECT
Integral package used                      ... LIBINT

Starting integral evaluation:
        8400 b        0 skpd     0.022 s (  0.003 ms/b)
<sp|**>: <sd|**>:        14700 b        0 skpd     0.031 s (  0.002 ms/b)
<sf|**>:        10500 b        0 skpd     0.070 s (  0.007 ms/b)
        6300 b        0 skpd     0.017 s (  0.003 ms/b)
<sg|**>:         4200 b        0 skpd     0.033 s (  0.008 ms/b)
<pp|**>:         8400 b        0 skpd     0.051 s (  0.006 ms/b)
<pd|**>:        10500 b        0 skpd     0.117 s (  0.011 ms/b)
<pf|**>:         6300 b        0 skpd     0.025 s (  0.004 ms/b)
<pg|**>:         4200 b        0 skpd     0.047 s (  0.011 ms/b)
<dd|**>:         4500 b        0 skpd     0.235 s (  0.052 ms/b)
<df|**>:         4500 b        0 skpd     0.061 s (  0.013 ms/b)
<dg|**>:         3000 b        0 skpd     0.095 s (  0.032 ms/b)
<ff|**>:         1800 b        0 skpd     0.019 s (  0.011 ms/b)
<fg|**>:         1800 b        0 skpd     0.029 s (  0.016 ms/b)
<gg|**>:          900 b        0 skpd     0.044 s (  0.049 ms/b)
Closing buffer AOJ[aa] ( 0.00 GB; CompressionRatio= 0.96)
Closing buffer AOJ[bb] ( 0.00 GB; CompressionRatio= 0.00)
Collecting buffer AOJ 
    ... done with AO integral generation
Number of Alpha-MO pairs included          ...   36
Number of Beta-MO pairs included           ...   21
    ... Now sorting integrals
SORTING ALPHA/ALPHA PAIRS
IBATCH = 1 of  1
Closing buffer JAO[aa] ( 0.00 GB; CompressionRatio= 1.00)
SORTING BETA/BETA PAIRS
IBATCH = 1 of  1
Closing buffer JAO[bb] ( 0.00 GB; CompressionRatio= 1.00)
Collecting buffer JAO 
TOTAL TIME for half transformation         ...     0.914 sec
AO-integral generation                     ...     0.889 sec
Half transformation                        ...     0.009 sec
J-integral sorting                         ...     0.011 sec

-------------------------- SECOND HALF TRANSFORMATION -------------------------
Formation of (ij|kl),(ij|ka), (ij|ab)      ... ok (     0.027 sec)
Formation of (ik|jl),(ik|ja), (ia|jb)      ... ok (     0.041 sec)


-----------------------
SPIN UNRESTRICTED GUESS
-----------------------

Entering MDCI_UHF_Guess, Tailored=0
Spin-components of the MP2 energy:
EMP2(aa)=     -0.044509369
EMP2(bb)=     -0.026907226
EMP2(ab)=     -0.148232708

Initial guess performed in     0.015 sec
E(0)                                       ...   -191.836173165
E(MP2)                                     ...     -0.219649303
Initial E(tot)                             ...   -192.055822469
<T|T>                                      ...      0.070860574
Number of pairs included                   ... 91

------------------------------------------------
                  UHF COUPLED CLUSTER ITERATIONS
------------------------------------------------

Number of amplitudes to be optimized       ...       455476

Iter       E(tot)           E(Corr)          Delta-E          Residual     Time      <S|S>**1/2
  0   -192.055822469     -0.219649303     -0.000000000      0.021708117    0.89      0.000001542
                           *** Turning on DIIS ***
  1   -192.050796703     -0.214623538      0.005025765      0.005098376    0.96      0.029159965
  2   -192.055206109     -0.219032943     -0.004409406      0.002415568    0.99      0.036023790
  3   -192.056472367     -0.220299202     -0.001266258      0.000620401    1.01      0.041237427
  4   -192.056637477     -0.220464311     -0.000165110      0.000115723    0.98      0.042647917
  5   -192.056651412     -0.220478247     -0.000013936      0.000045735    0.99      0.042921236
  6   -192.056653952     -0.220480787     -0.000002540      0.000018252    1.01      0.042978005
  7   -192.056654132     -0.220480966     -0.000000179      0.000006556    1.00      0.042996655
               --- The Coupled-Cluster iterations have converged ---

----------------------
COUPLED CLUSTER ENERGY
----------------------

E(0)                                       ...   -191.836173165
E(CORR)                                    ...     -0.220480966
E(TOT)                                     ...   -192.056654132
Singles norm <S|S>**1/2                    ...      0.042996655 ( 0.028000508, 0.014996147)  
T1 diagnostic                              ...      0.011491339                              

------------------
LARGEST AMPLITUDES
------------------
   9a-> 12a   9b-> 10b       0.039933
   9a-> 12a   9b-> 14b       0.027533
   9a-> 12a   9b-> 22b       0.026891
  11a-> 26a  10a-> 27a       0.024761
  11a-> 27a  10a-> 26a       0.024761
  11a-> 28a   9b-> 10b       0.021539
  10a-> 29a   9b-> 10b       0.021539
   9a-> 25a  -1a-> -1a       0.020775
   9a-> 24a   9b-> 10b       0.020384
   9a-> 12a   9b-> 38b       0.019226
  10a-> 27a   9b-> 15b       0.018844
  10a-> 26a   9b-> 16b       0.018844
  11a-> 26a   9b-> 15b       0.018844
  11a-> 27a   9b-> 16b       0.018844
   9a-> 33a  -1a-> -1a       0.017891
  11a-> 21a  10a-> 26a       0.016796

----------------------
UHF TRIPLES CORRECTION (Algorithm 1)
----------------------

Multiplier for the singles contribution    ...      1.000000000

SPIN-CASE Alpha-Alpha-Alpha:
10% done
20% done
30% done
40% done
50% done
60% done
70% done
80% done
90% done


SPIN-CASE Beta-Beta-Beta:
10% done
20% done
30% done
40% done
50% done
60% done
70% done
80% done
90% done


SPIN-CASE Alpha-Alpha-Beta:
10% done
20% done
30% done
40% done
50% done
60% done
70% done
80% done
90% done


SPIN-CASE Beta-Beta-Alpha:
10% done
20% done
30% done
40% done
50% done
60% done
70% done
80% done
90% done


Triples Correction (T)                     ...     -0.007951761
    alpha-alpha-alpha ... -0.000471855 (  5.9%)
    alpha-alpha-beta  ... -0.004521031 ( 56.9%)
    alpha-beta -beta  ... -0.002788606 ( 35.1%)
    beta -beta -beta  ... -0.000170269 (  2.1%)
Scaling of triples based on CCSD energies (Peterson et al. Molecular Physics 113, 1551 (2015))
E(T*) = f*E(T) where f = E(F12-CCSD)/E(CCSD) 
f = CCSD (with F12)/ CCSD (without F12)    ...      1.000000000
Scaled triples correction (T)              ...     -0.007951761

Final correlation energy                   ...     -0.228432727
E(CCSD)                                    ...   -192.056654132
E(CCSD(T))                                 ...   -192.064605893



        !!!!!!!!!!!!!!!!!!!!!!!!!!!!!!!!!!!!!!!!!!!!!!!!!!!!!!!!!!!!!!!!!!!!!!!!!! 
        !  Warning: Densities are linearized densities                           !
        !!!!!!!!!!!!!!!!!!!!!!!!!!!!!!!!!!!!!!!!!!!!!!!!!!!!!!!!!!!!!!!!!!!!!!!!!! 

NORM  =      1.080438779 sqrt=     1.039441571
W(HF) =      0.925549896
------------------------------------------------------------------------------
                           ORCA POPULATION ANALYSIS
------------------------------------------------------------------------------
Input electron density              ... 82_Pb.mdcip
Input spin density                  ... 82_Pb.mdcir
BaseName (.gbw .S,...)              ... 82_Pb

                    ********************************
                    * MULLIKEN POPULATION ANALYSIS *
                    ********************************

------------------------------------------
MULLIKEN ATOMIC CHARGES AND SPIN DENSITIES
------------------------------------------
   0 Pb:   -0.000000    2.000000
Sum of atomic charges       :   -0.0000000
Sum of atomic spin densities:    2.0000000

---------------------------------------------------
MULLIKEN REDUCED ORBITAL CHARGES AND SPIN DENSITIES
---------------------------------------------------
CHARGE
  0 Pbs       :     3.950917  s :     3.950917
      pz      :     2.041588  p :     8.026236
      px      :     2.985955
      py      :     2.998692
      dz2     :     1.993887  d :     9.981922
      dxz     :     1.995097
      dyz     :     1.995146
      dx2y2   :     1.998896
      dxy     :     1.998896
      f0      :     0.005145  f :     0.037568
      f+1     :     0.005191
      f-1     :     0.005195
      f+2     :     0.005354
      f-2     :     0.005354
      f+3     :     0.005665
      f-3     :     0.005665
      g0      :     0.000336  g :     0.003358
      g+1     :     0.000341
      g-1     :     0.000342
      g+2     :     0.000358
      g-2     :     0.000358
      g+3     :     0.000385
      g-3     :     0.000385
      g+4     :     0.000427
      g-4     :     0.000427

SPIN
  0 Pbs       :     0.017790  s :     0.017790
      pz      :     0.012362  p :     1.955804
      px      :     0.965294
      py      :     0.978147
      dz2     :     0.001602  d :     0.022776
      dxz     :     0.003070
      dyz     :     0.003130
      dx2y2   :     0.007487
      dxy     :     0.007487
      f0      :     0.000240  f :     0.003398
      f+1     :     0.000296
      f-1     :     0.000301
      f+2     :     0.000481
      f-2     :     0.000481
      f+3     :     0.000800
      f-3     :     0.000800
      g0      :    -0.000006  g :     0.000234
      g+1     :    -0.000002
      g-1     :    -0.000001
      g+2     :     0.000013
      g-2     :     0.000013
      g+3     :     0.000037
      g-3     :     0.000037
      g+4     :     0.000071
      g-4     :     0.000071


                     *******************************
                     * LOEWDIN POPULATION ANALYSIS *
                     *******************************

-----------------------------------------
LOEWDIN ATOMIC CHARGES AND SPIN DENSITIES
-----------------------------------------
   0 Pb:   -0.000000    2.000000

--------------------------------------------------
LOEWDIN REDUCED ORBITAL CHARGES AND SPIN DENSITIES
--------------------------------------------------
CHARGE
  0 Pbs       :     3.950917  s :     3.950917
      pz      :     2.041588  p :     8.026236
      px      :     2.985955
      py      :     2.998692
      dz2     :     1.993887  d :     9.981922
      dxz     :     1.995097
      dyz     :     1.995146
      dx2y2   :     1.998896
      dxy     :     1.998896
      f0      :     0.005145  f :     0.037568
      f+1     :     0.005191
      f-1     :     0.005195
      f+2     :     0.005354
      f-2     :     0.005354
      f+3     :     0.005665
      f-3     :     0.005665
      g0      :     0.000336  g :     0.003358
      g+1     :     0.000341
      g-1     :     0.000342
      g+2     :     0.000358
      g-2     :     0.000358
      g+3     :     0.000385
      g-3     :     0.000385
      g+4     :     0.000427
      g-4     :     0.000427

SPIN
  0 Pbs       :     0.017790  s :     0.017790
      pz      :     0.012362  p :     1.955804
      px      :     0.965294
      py      :     0.978147
      dz2     :     0.001602  d :     0.022776
      dxz     :     0.003070
      dyz     :     0.003130
      dx2y2   :     0.007487
      dxy     :     0.007487
      f0      :     0.000240  f :     0.003398
      f+1     :     0.000296
      f-1     :     0.000301
      f+2     :     0.000481
      f-2     :     0.000481
      f+3     :     0.000800
      f-3     :     0.000800
      g0      :    -0.000006  g :     0.000234
      g+1     :    -0.000002
      g-1     :    -0.000001
      g+2     :     0.000013
      g-2     :     0.000013
      g+3     :     0.000037
      g-3     :     0.000037
      g+4     :     0.000071
      g-4     :     0.000071


                      *****************************
                      * MAYER POPULATION ANALYSIS *
                      *****************************

  NA   - Mulliken gross atomic population
  ZA   - Total nuclear charge
  QA   - Mulliken gross atomic charge
  VA   - Mayer's total valence
  BVA  - Mayer's bonded valence
  FA   - Mayer's free valence

  ATOM       NA         ZA         QA         VA         BVA        FA
  0 Pb    22.0000    22.0000    -0.0000     2.5202     0.0000     2.5202





------------------------------------------------------------------------------- 
                                     TIMINGS                                   
------------------------------------------------------------------------------- 


Total execution time                   ...       12.147 sec

Fock Matrix Formation                  ...        0.581 sec (  4.8%)
Initial Guess                          ...        0.015 sec (  0.1%)
DIIS Solver                            ...        0.266 sec (  2.2%)
State Vector Update                    ...        0.014 sec (  0.1%)
Sigma-vector construction              ...        7.547 sec ( 62.1%)
  <D|H|D>(0-ext Fock)                  ...        0.004 sec (  0.1% of sigma)
  <D|H|D>(0-ext)                       ...        0.011 sec (  0.2% of sigma)
  <D|H|D>(2-ext Fock)                  ...        0.002 sec (  0.0% of sigma)
  <D|H|D>(2-ext)                       ...        0.055 sec (  0.7% of sigma)
  <D|H|D>(4-ext)                       ...        3.305 sec ( 43.8% of sigma)
  <S|H|0>                              ...        0.137 sec (  1.8% of sigma)
  <S|H|D>(1-ext)                       ...        0.001 sec (  0.0% of sigma)
  <D|H|S>(1-ext)                       ...        0.029 sec (  0.4% of sigma)
  Fock-dressing                        ...        3.015 sec ( 40.0% of sigma)
  (ik|jl)-dressing                     ...        0.014 sec (  0.2% of sigma)
  (ij|ab),(ia|jb)-dressing             ...        0.746 sec (  9.9% of sigma)
  Pair energies                        ...        0.001 sec (  0.0% of sigma)
Total Time for computing (T)           ...        0.856 sec (  7.0% of ALL)
  I/O of integral and amplitudes       ...        0.181 sec ( 21.1% of (T))
  External N**7 contributions          ...        0.220 sec ( 25.7% of (T))
  Internal N**7 contributions          ...        0.106 sec ( 12.4% of (T))
  N**6 triples energy contributions    ...        0.289 sec ( 33.7% of (T))


-------------------------   --------------------
FINAL SINGLE POINT ENERGY      -192.064605892557
-------------------------   --------------------


                            ***************************************
                            *     ORCA property calculations      *
                            ***************************************

                                    ---------------------
                                    Active property flags
                                    ---------------------
   (+) Dipole Moment


------------------------------------------------------------------------------
                       ORCA ELECTRIC PROPERTIES CALCULATION
------------------------------------------------------------------------------

Dipole Moment Calculation                       ... on
Quadrupole Moment Calculation                   ... off
Polarizability Calculation                      ... off
GBWName                                         ... 82_Pb.gbw
Electron density file                           ... 82_Pb.scfp
The origin for moment calculation is the CENTER OF MASS  = ( 0.000000,  0.000000  0.000000)

-------------
DIPOLE MOMENT
-------------
                                X             Y             Z
Electronic contribution:     -0.00000       0.00000       0.00000
Nuclear contribution   :      0.00000       0.00000       0.00000
                        -----------------------------------------
Total Dipole Moment    :     -0.00000       0.00000       0.00000
                        -----------------------------------------
Magnitude (a.u.)       :      0.00000
Magnitude (Debye)      :      0.00000



--------------------
Rotational spectrum 
--------------------
 
Rotational constants in cm-1:     0.000000     0.000000     0.000000 
Rotational constants in MHz :     0.000000     0.000000     0.000000 

 Dipole components along the rotational axes: 
x,y,z [a.u.] :    -0.000000     0.000000     0.000000 
x,y,z [Debye]:    -0.000000     0.000000     0.000000 

 

                           *** MDCI DENSITY ***

------------------------------------------------------------------------------
                       ORCA ELECTRIC PROPERTIES CALCULATION
------------------------------------------------------------------------------

Dipole Moment Calculation                       ... on
Quadrupole Moment Calculation                   ... off
Polarizability Calculation                      ... off
GBWName                                         ... 82_Pb.gbw
Electron density file                           ... 82_Pb.mdcip
The origin for moment calculation is the CENTER OF MASS  = ( 0.000000,  0.000000  0.000000)

-------------
DIPOLE MOMENT
-------------
                                X             Y             Z
Electronic contribution:     -0.00000       0.00000       0.00000
Nuclear contribution   :      0.00000       0.00000       0.00000
                        -----------------------------------------
Total Dipole Moment    :     -0.00000       0.00000       0.00000
                        -----------------------------------------
Magnitude (a.u.)       :      0.00000
Magnitude (Debye)      :      0.00000



--------------------
Rotational spectrum 
--------------------
 
Rotational constants in cm-1:     0.000000     0.000000     0.000000 
Rotational constants in MHz :     0.000000     0.000000     0.000000 

 Dipole components along the rotational axes: 
x,y,z [a.u.] :    -0.000000     0.000000     0.000000 
x,y,z [Debye]:    -0.000000     0.000000     0.000000 

 

Timings for individual modules:

Sum of individual times         ...       22.332 sec (=   0.372 min)
GTO integral calculation        ...        0.833 sec (=   0.014 min)   3.7 %
SCF iterations                  ...        8.819 sec (=   0.147 min)  39.5 %
MDCI module                     ...       12.679 sec (=   0.211 min)  56.8 %
                             ****ORCA TERMINATED NORMALLY****
TOTAL RUN TIME: 0 days 0 hours 0 minutes 22 seconds 847 msec
