
                                 *****************
                                 * O   R   C   A *
                                 *****************

           --- An Ab Initio, DFT and Semiempirical electronic structure package ---

                  #######################################################
                  #                        -***-                        #
                  #          Department of theory and spectroscopy      #
                  #               Directorship: Frank Neese             #
                  #        Max Planck Institute fuer Kohlenforschung    #
                  #                Kaiser Wilhelm Platz 1               #
                  #                 D-45470 Muelheim/Ruhr               #
                  #                      Germany                        #
                  #                                                     #
                  #                  All rights reserved                #
                  #                        -***-                        #
                  #######################################################


                         Program Version 4.2.0 -  RELEASE  -


 With contributions from (in alphabetic order):
   Daniel Aravena         : Magnetic Suceptibility
   Michael Atanasov       : Ab Initio Ligand Field Theory (pilot matlab implementation)
   Alexander A. Auer      : GIAO ZORA, VPT2
   Ute Becker             : Parallelization
   Giovanni Bistoni       : ED, misc. LED, open-shell LED, HFLED
   Martin Brehm           : Molecular dynamics
   Dmytro Bykov           : SCF Hessian
   Vijay G. Chilkuri      : MRCI spin determinant printing, contributions to CSF-ICE
   Dipayan Datta          : RHF DLPNO-CCSD density
   Achintya Kumar Dutta   : EOM-CC, STEOM-CC
   Dmitry Ganyushin       : Spin-Orbit,Spin-Spin,Magnetic field MRCI
   Miquel Garcia          : C-PCM Hessian, Gaussian charge scheme
   Yang Guo               : DLPNO-NEVPT2, CIM, IAO-localization
   Andreas Hansen         : Spin unrestricted coupled pair/coupled cluster methods
   Benjamin Helmich-Paris : CASSCF linear response (MC-RPA)
   Lee Huntington         : MR-EOM, pCC
   Robert Izsak           : Overlap fitted RIJCOSX, COSX-SCS-MP3, EOM
   Christian Kollmar      : KDIIS, OOCD, Brueckner-CCSD(T), CCSD density
   Simone Kossmann        : Meta GGA functionals, TD-DFT gradient, OOMP2, MP2 Hessian
   Martin Krupicka        : AUTO-CI
   Lucas Lang             : DCDCAS
   Dagmar Lenk            : GEPOL surface, SMD
   Dimitrios Liakos       : Extrapolation schemes; Compound Job, initial MDCI parallelization
   Dimitrios Manganas     : Further ROCIS development; embedding schemes
   Dimitrios Pantazis     : SARC Basis sets
   Taras Petrenko         : DFT Hessian,TD-DFT gradient, ASA, ECA, R-Raman, ABS, FL, XAS/XES, NRVS
   Peter Pinski           : DLPNO-MP2, DLPNO-MP2 Gradient
   Christoph Reimann      : Effective Core Potentials
   Marius Retegan         : Local ZFS, SOC
   Christoph Riplinger    : Optimizer, TS searches, QM/MM, DLPNO-CCSD(T), (RO)-DLPNO pert. Triples
   Tobias Risthaus        : Range-separated hybrids, TD-DFT gradient, RPA, STAB
   Michael Roemelt        : Original ROCIS implementation
   Masaaki Saitow         : Open-shell DLPNO-CCSD energy and density
   Barbara Sandhoefer     : DKH picture change effects
   Avijit Sen             : IP-ROCIS
   Kantharuban Sivalingam : CASSCF convergence, NEVPT2, FIC-MRCI
   Bernardo de Souza      : ESD, SOC TD-DFT
   Georgi Stoychev        : AutoAux, RI-MP2 NMR
   Willem Van den Heuvel  : Paramagnetic NMR
   Boris Wezisla          : Elementary symmetry handling
   Frank Wennmohs         : Technical directorship


 We gratefully acknowledge several colleagues who have allowed us to
 interface, adapt or use parts of their codes:
   Stefan Grimme, W. Hujo, H. Kruse,             : VdW corrections, initial TS optimization,
                  C. Bannwarth                     DFT functionals, gCP, sTDA/sTD-DF
   Ed Valeev, F. Pavosevic, A. Kumar             : LibInt (2-el integral package), F12 methods
   Garnet Chan, S. Sharma, J. Yang, R. Olivares  : DMRG
   Ulf Ekstrom                                   : XCFun DFT Library
   Mihaly Kallay                                 : mrcc  (arbitrary order and MRCC methods)
   Andreas Klamt, Michael Diedenhofen            : otool_cosmo (COSMO solvation model)
   Jiri Pittner, Ondrej Demel                    : Mk-CCSD
   Frank Weinhold                                : gennbo (NPA and NBO analysis)
   Christopher J. Cramer and Donald G. Truhlar   : smd solvation model
   Lars Goerigk                                  : TD-DFT with DH, B97 family of functionals
   V. Asgeirsson, H. Jonsson                     : NEB implementation
   FAccTs GmbH                                   : IRC, NEB, NEB-TS, Multilevel, MM, QM/MM, CI optimization
   S Lehtola, MJT Oliveira, MAL Marques          : LibXC Library


 Your calculation uses the libint2 library for the computation of 2-el integrals
 For citations please refer to: http://libint.valeyev.net

 Your ORCA version has been built with support for libXC version: 4.2.3
 For citations please refer to: https://tddft.org/programs/libxc/

 This ORCA versions uses:
   CBLAS   interface :  Fast vector & matrix operations
   LAPACKE interface :  Fast linear algebra routines
   SCALAPACK package :  Parallel linear algebra routines


----- Orbital basis set information -----
Your calculation utilizes the basis: aug-cc-pVQZ-PP 
       Ca, Sr, Ba, Ra : Obtained from the Peterson Research Group Website (tyr0.chem.wsu.edu/~kipeters) Feb. 2017
                        H. Li, H. Feng, W. Sun, Y. Zhang, Q. Fan, K. A. Peterson, Y. Xie, H. F. Schaefer III, Mol. Phys. 111, 2292 (2013)
  Cu-Zn, Ag-Cd, Au-Hg : Obtained from the ccRepo (grant-hill.group.shef.ac.uk/ccrepo) Feb. 2017
                        K. A. Peterson, C. Puzzarini, Theor. Chem. Acc. 114, 283 (2005)
  Ga-Kr, In-Xe, Tl-Rn : Obtained from the ccRepo (grant-hill.group.shef.ac.uk/ccrepo) Feb. 2017
                        K. A. Peterson, J. Chem. Phys. 119, 11099 (2003)
                        K. A. Peterson, D. Figgen, E. Goll, H. Stoll, M. Dolg, J. Chem. Phys. 119, 11113 (2003)
                 Y-Pd : Obtained from the ccRepo (grant-hill.group.shef.ac.uk/ccrepo) Feb. 2017
                        K. A. Peterson, D. Figgen, M. Dolg, H. Stoll, J. Chem. Phys. 126, 124101 (2007)
                Hf-Pt : Obtained from the ccRepo (grant-hill.group.shef.ac.uk/ccrepo) Feb. 2017
                        D. Figgen, K. A. Peterson, M. Dolg, H. Stoll, J. Chem. Phys. 130, 164108 (2009)

cite the ECPs for At [SK MCDHF RSC] as follows:
O: B. Metz and H. Stoll, private communication (KAP)
Tl: B. Metz, M. Schweizer, H. Stoll, M. Dolg, W. Liu, Theor. Chem. Acc. 104, 22 (2000)
Ga-As, In-Sb, Pb-Bi: B. Metz, H. Stoll, M. Dolg, J. Chem. Phys. 113, 2563 (2000)
Se-Kr, Te-Xe, Po-Rn: K.A. Peterson, D. Figgen, E. Goll, H. Stoll, and M. Dolg, J. Chem. Phys., in press (2003)
Cu-Zn, Ag-Cd, Au-Hg: D. Figgen, G. Rauhut, M. Dolg, and H. Stoll, Chem. Phys. 311, 227 (2005)
Y-Pd: K.A. Peterson, D. Figgen, M. Dolg, H. Stoll, J. Chem. Phys. 126, 124101 (2007)
I: K. A. Peterson, B. C. Shepler, D. Figgen, H. Stoll, J. Phys. Chem. A 110, 13877 (2006)
Hf-Pt: D. Figgen, K.A. Peterson, M. Dolg, H. Stoll, J. Chem. Phys. 130, 164108 (2009)
Ca, Sr, Ba, Ra: I.S. Lim, H. Stoll, P. Schwerdtfeger, J. Chem. Phys. 124, 034107 (2006)

ECP parameters for At [SK MCDHF RSC] have been obtained from:
cc-pVDZ-PP  EMSL  Basis Set Exchange Library   4/7/16 5:27 AM
Ca, Sr, Ba, Ra: http://www.tc.uni-koeln.de/PP/index.en.html 3/16/17 1:54 PM

================================================================================
                                        WARNINGS
                       Please study these warnings very carefully!
================================================================================


WARNING: your system is open-shell and RHF/RKS was chosen
  ===> : WILL SWITCH to UHF/UKS


WARNING: MDCI localization with Augmented Hessian Foster-Boys
  ===> : Switching off randomization!

WARNING: Post HF methods need fully converged wavefunctions
  ===> : Setting SCFConvForced true
         You can overwrite this default with %scf ConvForced false 


INFO   : the flag for use of LIBINT has been found!

================================================================================
                                       INPUT FILE
================================================================================
NAME = 85_At.in
|  1> #
|  2> # 85_At CCSD(T)/aug-cc-pVQZ-PP
|  3> #
|  4> ! CCSD(T) aug-cc-pVQZ-PP tightscf slowconv
|  5> 
|  6> *xyz 0 2
|  7>  At 0.0 0.0 0.0
|  8> *
|  9> 
| 10> %maxcore 5000 
| 11> 
| 12> %pal
| 13> nprocs 24
| 14> end
| 15> 
| 16> 
| 17>                          ****END OF INPUT****
================================================================================

                       ****************************
                       * Single Point Calculation *
                       ****************************

---------------------------------
CARTESIAN COORDINATES (ANGSTROEM)
---------------------------------
  At     0.000000    0.000000    0.000000

----------------------------
CARTESIAN COORDINATES (A.U.)
----------------------------
  NO LB      ZA    FRAG     MASS         X           Y           Z
   0 At   25.0000*   0   210.000    0.000000    0.000000    0.000000
* core charge reduced due to ECP

--------------------------------
INTERNAL COORDINATES (ANGSTROEM)
--------------------------------
 At     0   0   0     0.000000000000     0.00000000     0.00000000

---------------------------
INTERNAL COORDINATES (A.U.)
---------------------------
 At     0   0   0     0.000000000000     0.00000000     0.00000000

---------------------
BASIS SET INFORMATION
---------------------
There are 1 groups of distinct atoms

 Group   1 Type At  : 25s19p12d3f2g contracted to 7s7p5d3f2g pattern {101011111/7711111/81111/111/11}

Atom   0At   basis set group =>   1
-------------------------
ECP PARAMETER INFORMATION
-------------------------

 Group 1, Type At ECP SK MCDHF RSC (replacing 60 core electrons, lmax=5)

Atom   0At   ECP group =>   1



           ************************************************************
           *        Program running with 24 parallel MPI-processes    *
           *              working on a common directory               *
           ************************************************************
------------------------------------------------------------------------------
                           ORCA GTO INTEGRAL CALCULATION
------------------------------------------------------------------------------

                         BASIS SET STATISTICS AND STARTUP INFO

 # of primitive gaussian shells          ...   61
 # of primitive gaussian functions       ...  181
 # of contracted shells                  ...   24
 # of contracted basis functions         ...   92
 Highest angular momentum                ...    4
 Maximum contraction depth               ...   10
 Integral package used                   ... LIBINT
 Integral threshhold            Thresh   ...  2.500e-11
 Primitive cut-off              TCut     ...  2.500e-12


------------------------------ INTEGRAL EVALUATION ----------------------------


 * One electron integrals 

   ECP integrals                         ... done
 Pre-screening matrix                    ... done
 Shell pair data                         ... done (   0.000 sec)



           ************************************************************
           *        Program running with 24 parallel MPI-processes    *
           *              working on a common directory               *
           ************************************************************
-------------------------------------------------------------------------------
                                 ORCA SCF
-------------------------------------------------------------------------------

------------
SCF SETTINGS
------------
Hamiltonian:
 Ab initio Hamiltonian  Method          .... Hartree-Fock(GTOs)


General Settings:
 Integral files         IntName         .... 85_At
 Hartree-Fock type      HFTyp           .... UHF
 Total Charge           Charge          ....    0
 Multiplicity           Mult            ....    2
 Number of Electrons    NEL             ....   25
 Basis Dimension        Dim             ....   92
 Nuclear Repulsion      ENuc            ....      0.0000000000 Eh

Convergence Acceleration:
 DIIS                   CNVDIIS         .... on
   Start iteration      DIISMaxIt       ....     0
   Startup error        DIISStart       ....  0.200000
   # of expansion vecs  DIISMaxEq       ....     5
   Bias factor          DIISBfac        ....   1.050
   Max. coefficient     DIISMaxC        ....  10.000
 Newton-Raphson         CNVNR           .... off
 SOSCF                  CNVSOSCF        .... off
 Level Shifting         CNVShift        .... on
   Level shift para.    LevelShift      ....    0.2500
   Turn off err/grad.   ShiftErr        ....    0.0000
 Zerner damping         CNVZerner       .... off
 Static damping         CNVDamp         .... on
   Fraction old density DampFac         ....    0.8500
   Max. Damping (<1)    DampMax         ....    0.9800
   Min. Damping (>=0)   DampMin         ....    0.0000
   Turn off err/grad.   DampErr         ....    0.0300
 Fernandez-Rico         CNVRico         .... off

SCF Procedure:
 Maximum # iterations   MaxIter         ....   125
 SCF integral mode      SCFMode         .... Direct
   Integral package                     .... LIBINT
 Reset frequency        DirectResetFreq ....    20
 Integral Threshold     Thresh          ....  2.500e-11 Eh
 Primitive CutOff       TCut            ....  2.500e-12 Eh

Convergence Tolerance:
 Convergence Check Mode ConvCheckMode   .... Total+1el-Energy
 Convergence forced     ConvForced      .... 1
 Energy Change          TolE            ....  1.000e-08 Eh
 1-El. energy change                    ....  1.000e-05 Eh
 DIIS Error             TolErr          ....  5.000e-07


Diagonalization of the overlap matrix:
Smallest eigenvalue                        ... 9.735e-04
Time for diagonalization                   ...    0.002 sec
Threshold for overlap eigenvalues          ... 1.000e-08
Number of eigenvalues below threshold      ... 0
Time for construction of square roots      ...    0.001 sec
Total time needed                          ...    0.004 sec

-------------------
DFT GRID GENERATION
-------------------

General Integration Accuracy     IntAcc      ...  4.340
Radial Grid Type                 RadialGrid  ... Gauss-Chebyshev
Angular Grid (max. acc.)         AngularGrid ... Lebedev-110
Angular grid pruning method      GridPruning ... 3 (G Style)
Weight generation scheme         WeightScheme... Becke
Basis function cutoff            BFCut       ...    1.0000e-11
Integration weight cutoff        WCut        ...    1.0000e-14
Grids for H and He will be reduced by one unit

# of grid points (after initial pruning)     ...   3552 (   0.0 sec)
# of grid points (after weights+screening)   ...   3552 (   0.0 sec)
Grid point division into batches done        ...    0.0 sec
Reduced shell lists constructed in    0.0 sec

Total number of grid points                  ...     3552
Total number of batches                      ...       56
Average number of points per batch           ...       63
Average number of grid points per atom       ...     3552
Average number of shells per batch           ...     8.50 (35.42%)
Average number of basis functions per batch  ...    35.00 (38.04%)
Average number of large shells per batch     ...     5.50 (64.71%)
Average number of large basis fcns per batch ...    19.50 (55.71%)
Maximum spatial batch extension              ...  24.96, 38.92, 38.92 au
Average spatial batch extension              ...   1.30,  1.85,  2.08 au

Time for grid setup =    0.023 sec

------------------------------
INITIAL GUESS: MODEL POTENTIAL
------------------------------
Loading Hartree-Fock densities                     ... done
  calling /sw/apps/orca/orca_4_2_0_linux_x86-64_openmpi314/orca 85_At_atom85.inp > 85_At_atom85.out in order to generate an atomic fitting density for atom 0 (At with ECP) on-the-fly... 
    atom 0 (At), assumed electronic state with S=2: 1s2 2s2 2p6 3s2 3p6 4s2 3d10 4p6 5s2 4d10 5p6 6s2 4f14 5d10 6p5           ... done
Calculating cut-offs                               ... done
Setting up the integral package                    ... done
Initializing the effective Hamiltonian             ... done
Starting the Coulomb interaction                   ... done (   0.0 sec)
Reading the grid                                   ... done
Mapping shells                                     ... done
Starting the XC term evaluation                    ... done (   0.0 sec)
Transforming the Hamiltonian                       ... done (   0.0 sec)
Diagonalizing the Hamiltonian                      ... done (   0.0 sec)
Back transforming the eigenvectors                 ... done (   0.0 sec)
Now organizing SCF variables                       ... done
                      ------------------
                      INITIAL GUESS DONE (   1.3 sec)
                      ------------------
--------------
SCF ITERATIONS
--------------
ITER       Energy         Delta-E        Max-DP      RMS-DP      [F,P]     Damp
               ***  Starting incremental Fock matrix formation  ***
  0   -253.0269598454   0.000000000000 1.24981126  0.02901011  1.4071176 0.8500
  1   -254.6546206687  -1.627660823221 1.06646094  0.02475770  1.1266945 0.8500
                               ***Turning on DIIS***
  2   -255.8336952779  -1.179074609295 0.91165570  0.02101998  0.8709178 0.8500
  3   -261.9785022119  -6.144806933929 0.78159093  0.01768151  0.6669887 0.8500
  4   -263.3598379595  -1.381335747581 0.66467361  0.01492233  0.5418303 0.8500
  5   -263.2920768993   0.067761060157 0.56503682  0.01266889  0.4545366 0.8500
  6   -263.0014446459   0.290632253413 0.48039445  0.01077867  0.3860307 0.8500
  7   -262.3649956276   0.636449018264 0.40850514  0.00919487  0.3293288 0.8500
  8   -262.0282300003   0.336765627297 0.34727461  0.00783199  0.2803257 0.8500
  9   -261.8575416585   0.170688341823 0.29518371  0.00666349  0.2381094 0.8500
 10   -261.7519517769   0.105589881592 0.25089701  0.00566630  0.2019542 0.8500
 11   -261.6732677301   0.078684046821 0.21325418  0.00481731  0.1710995 0.8500
 12   -261.6090250335   0.064242696616 0.18126105  0.00409530  0.1448189 0.8500
 13   -261.5571828876   0.051842145853 0.15406908  0.00348140  0.1224630 0.8500
 14   -261.5158995915   0.041283296079 0.13095714  0.00295946  0.1034701 0.8500
 15   -261.4831655459   0.032734045612 0.11131271  0.00251574  0.0873551 0.8500
 16   -261.4572134695   0.025952076435 0.09461536  0.00213853  0.0736985 0.8500
 17   -261.4366183407   0.020595128782 0.08042287  0.00181788  0.0621383 0.8500
 18   -261.4202634853   0.016354855423 0.06835940  0.00154532  0.0523626 0.8500
 19   -261.4072752671   0.012988218150 0.05810554  0.00131363  0.0441039 0.8500
               *** Restarting incremental Fock matrix formation ***
                                   *** Resetting DIIS ***
 20   -261.0711700641   0.336105203049 0.04936983  0.00112490  0.0371326 0.8500
 21   -261.2430142263  -0.171844162177 0.27982636  0.00632479  0.0286323 0.0000
 22   -261.2684932832  -0.025479056886 0.00595970  0.00013294  0.0112707 0.0000
 23   -261.3415194115  -0.073026128386 0.00419518  0.00008000  0.0026596 0.0000
 24   -261.3572296313  -0.015710219753 0.00203805  0.00003467  0.0011027 0.0000
 25   -261.3599190508  -0.002689419462 0.00091692  0.00001637  0.0005360 0.0000
 26   -261.3605713035  -0.000652252786 0.00019481  0.00000620  0.0002287 0.0000
 27   -261.3609085690  -0.000337265455 0.00008217  0.00000255  0.0000909 0.0000
 28   -261.3611367156  -0.000228146636 0.00003847  0.00000118  0.0000354 0.0000
 29   -261.3612423582  -0.000105642555 0.00001817  0.00000057  0.0000137 0.0000
 30   -261.3612855589  -0.000043200710 0.00000843  0.00000025  0.0000054 0.0000
 31   -261.3613027460  -0.000017187135 0.00000373  0.00000010  0.0000021 0.0000
                            ***DIIS convergence achieved***

               *****************************************************
               *                     SUCCESS                       *
               *           SCF CONVERGED AFTER  32 CYCLES          *
               *****************************************************


----------------
TOTAL SCF ENERGY
----------------

Total Energy       :         -261.36130907 Eh           -7112.00279 eV

Components:
Nuclear Repulsion  :            0.00000000 Eh               0.00000 eV
Electronic Energy  :         -261.36130907 Eh           -7112.00279 eV
One Electron Energy:         -454.47715898 Eh          -12366.95222 eV
Two Electron Energy:          193.11584991 Eh            5254.94943 eV

Virial components:
Potential Energy   :         -344.01824788 Eh           -9361.21244 eV
Kinetic Energy     :           82.65693881 Eh            2249.20965 eV
Virial Ratio       :            4.16200083


---------------
SCF CONVERGENCE
---------------

  Last Energy change         ...   -6.3245e-06  Tolerance :   1.0000e-08
  Last MAX-Density change    ...    1.6164e-06  Tolerance :   1.0000e-07
  Last RMS-Density change    ...    3.9546e-08  Tolerance :   5.0000e-09
  Last DIIS Error            ...    8.3253e-07  Tolerance :   5.0000e-07

             **** THE GBW FILE WAS UPDATED (85_At.gbw) ****
             **** DENSITY FILE WAS UPDATED (85_At.scfp) ****
             **** ENERGY FILE WAS UPDATED (85_At.en.tmp) ****
----------------------
UHF SPIN CONTAMINATION
----------------------

Expectation value of <S**2>     :     0.759432
Ideal value S*(S+1) for S=0.5   :     0.750000
Deviation                       :     0.009432

             **** THE GBW FILE WAS UPDATED (85_At.gbw) ****
             **** DENSITY FILE WAS UPDATED (85_At.scfp) ****
----------------
ORBITAL ENERGIES
----------------
                 SPIN UP ORBITALS
  NO   OCC          E(Eh)            E(eV) 
   0   1.0000      -7.815304      -212.6652 
   1   1.0000      -5.118724      -139.2876 
   2   1.0000      -5.097337      -138.7056 
   3   1.0000      -5.097337      -138.7056 
   4   1.0000      -1.839489       -50.0550 
   5   1.0000      -1.832788       -49.8727 
   6   1.0000      -1.832788       -49.8727 
   7   1.0000      -1.813515       -49.3482 
   8   1.0000      -1.813515       -49.3482 
   9   1.0000      -0.978636       -26.6300 
  10   1.0000      -0.432410       -11.7665 
  11   1.0000      -0.377390       -10.2693 
  12   1.0000      -0.377390       -10.2693 
  13   0.0000       0.045585         1.2404 
  14   0.0000       0.052548         1.4299 
  15   0.0000       0.057014         1.5514 
  16   0.0000       0.057014         1.5514 
  17   0.0000       0.135746         3.6938 
  18   0.0000       0.138325         3.7640 
  19   0.0000       0.138325         3.7640 
  20   0.0000       0.147353         4.0097 
  21   0.0000       0.147353         4.0097 
  22   0.0000       0.239865         6.5270 
  23   0.0000       0.254374         6.9219 
  24   0.0000       0.254374         6.9219 
  25   0.0000       0.273580         7.4445 
  26   0.0000       0.375213        10.2101 
  27   0.0000       0.380558        10.3555 
  28   0.0000       0.380558        10.3555 
  29   0.0000       0.401541        10.9265 
  30   0.0000       0.401541        10.9265 
  31   0.0000       0.414010        11.2658 
  32   0.0000       0.416092        11.3224 
  33   0.0000       0.416092        11.3224 
  34   0.0000       0.422439        11.4951 
  35   0.0000       0.422439        11.4951 
  36   0.0000       0.433789        11.8040 
  37   0.0000       0.433789        11.8040 
  38   0.0000       0.836422        22.7602 
  39   0.0000       0.866522        23.5793 
  40   0.0000       0.866522        23.5793 
  41   0.0000       0.942711        25.6525 
  42   0.0000       0.946897        25.7664 
  43   0.0000       0.946897        25.7664 
  44   0.0000       0.959562        26.1110 
  45   0.0000       0.959562        26.1110 
  46   0.0000       0.982683        26.7402 
  47   0.0000       0.982683        26.7402 
  48   0.0000       1.005502        27.3611 
  49   0.0000       1.017426        27.6856 
  50   0.0000       1.019278        27.7360 
  51   0.0000       1.019278        27.7360 
  52   0.0000       1.024857        27.8878 
  53   0.0000       1.024857        27.8878 
  54   0.0000       1.034295        28.1446 
  55   0.0000       1.034295        28.1446 
  56   0.0000       1.047986        28.5171 
  57   0.0000       1.047986        28.5171 
  58   0.0000       1.069524        29.1032 
  59   0.0000       1.076244        29.2861 
  60   0.0000       1.076244        29.2861 
  61   0.0000       1.102484        30.0001 
  62   0.0000       1.102484        30.0001 
  63   0.0000       1.827517        49.7293 
  64   0.0000       1.831394        49.8348 
  65   0.0000       1.831394        49.8348 
  66   0.0000       1.843244        50.1572 
  67   0.0000       1.843244        50.1572 
  68   0.0000       1.863993        50.7218 
  69   0.0000       1.863993        50.7218 
  70   0.0000       2.297663        62.5226 
  71   0.0000       2.300384        62.5966 
  72   0.0000       2.300384        62.5966 
  73   0.0000       2.308636        62.8212 
  74   0.0000       2.308636        62.8212 
  75   0.0000       2.322698        63.2038 
  76   0.0000       2.322698        63.2038 
  77   0.0000       2.343100        63.7590 
  78   0.0000       2.343100        63.7590 
  79   0.0000       2.798815        76.1596 
  80   0.0000       2.832560        77.0779 
  81   0.0000       2.832560        77.0779 
  82   0.0000       2.885087        78.5072 
  83   0.0000       2.892904        78.7199 
  84   0.0000       2.892904        78.7199 
  85   0.0000       2.918173        79.4075 
  86   0.0000       2.918173        79.4075 
  87   0.0000       3.315564        90.2211 
  88   0.0000      34.449959       937.4310 
  89   0.0000      34.461475       937.7444 
  90   0.0000      34.461475       937.7444 
  91   0.0000      64.096126      1744.1443 

                 SPIN DOWN ORBITALS
  NO   OCC          E(Eh)            E(eV) 
   0   1.0000      -7.808100      -212.4692 
   1   1.0000      -5.101949      -138.8311 
   2   1.0000      -5.097064      -138.6982 
   3   1.0000      -5.097064      -138.6982 
   4   1.0000      -1.826294       -49.6960 
   5   1.0000      -1.822785       -49.6005 
   6   1.0000      -1.822785       -49.6005 
   7   1.0000      -1.813301       -49.3424 
   8   1.0000      -1.813301       -49.3424 
   9   1.0000      -0.897772       -24.4296 
  10   1.0000      -0.359213        -9.7747 
  11   1.0000      -0.359213        -9.7747 
  12   0.0000      -0.048047        -1.3074 
  13   0.0000       0.048703         1.3253 
  14   0.0000       0.057346         1.5605 
  15   0.0000       0.057346         1.5605 
  16   0.0000       0.060053         1.6341 
  17   0.0000       0.147191         4.0053 
  18   0.0000       0.147191         4.0053 
  19   0.0000       0.147432         4.0118 
  20   0.0000       0.147432         4.0118 
  21   0.0000       0.147439         4.0120 
  22   0.0000       0.256366         6.9761 
  23   0.0000       0.256366         6.9761 
  24   0.0000       0.265258         7.2180 
  25   0.0000       0.282873         7.6974 
  26   0.0000       0.403219        10.9721 
  27   0.0000       0.403219        10.9721 
  28   0.0000       0.413726        11.2581 
  29   0.0000       0.413726        11.2581 
  30   0.0000       0.417326        11.3560 
  31   0.0000       0.426110        11.5950 
  32   0.0000       0.426929        11.6173 
  33   0.0000       0.426929        11.6173 
  34   0.0000       0.429376        11.6839 
  35   0.0000       0.429376        11.6839 
  36   0.0000       0.433346        11.7919 
  37   0.0000       0.433346        11.7919 
  38   0.0000       0.871378        23.7114 
  39   0.0000       0.871378        23.7114 
  40   0.0000       0.875343        23.8193 
  41   0.0000       0.978602        26.6291 
  42   0.0000       0.979246        26.6466 
  43   0.0000       0.979246        26.6466 
  44   0.0000       0.980992        26.6941 
  45   0.0000       0.980992        26.6941 
  46   0.0000       0.983375        26.7590 
  47   0.0000       0.983375        26.7590 
  48   0.0000       1.019532        27.7429 
  49   0.0000       1.030888        28.0519 
  50   0.0000       1.031922        28.0800 
  51   0.0000       1.031922        28.0800 
  52   0.0000       1.035044        28.1650 
  53   0.0000       1.035044        28.1650 
  54   0.0000       1.040256        28.3068 
  55   0.0000       1.040256        28.3068 
  56   0.0000       1.047414        28.5016 
  57   0.0000       1.047414        28.5016 
  58   0.0000       1.105246        30.0753 
  59   0.0000       1.105246        30.0753 
  60   0.0000       1.107824        30.1454 
  61   0.0000       1.107824        30.1454 
  62   0.0000       1.108782        30.1715 
  63   0.0000       1.844452        50.1901 
  64   0.0000       1.846676        50.2506 
  65   0.0000       1.846676        50.2506 
  66   0.0000       1.853368        50.4327 
  67   0.0000       1.853368        50.4327 
  68   0.0000       1.864549        50.7370 
  69   0.0000       1.864549        50.7370 
  70   0.0000       2.322259        63.1919 
  71   0.0000       2.323558        63.2272 
  72   0.0000       2.323558        63.2272 
  73   0.0000       2.327456        63.3333 
  74   0.0000       2.327456        63.3333 
  75   0.0000       2.333944        63.5098 
  76   0.0000       2.333944        63.5098 
  77   0.0000       2.342998        63.7562 
  78   0.0000       2.342998        63.7562 
  79   0.0000       2.829345        76.9904 
  80   0.0000       2.836252        77.1783 
  81   0.0000       2.836252        77.1783 
  82   0.0000       2.909719        79.1775 
  83   0.0000       2.912237        79.2460 
  84   0.0000       2.912237        79.2460 
  85   0.0000       2.919753        79.4505 
  86   0.0000       2.919753        79.4505 
  87   0.0000       3.324888        90.4748 
  88   0.0000      34.456459       937.6079 
  89   0.0000      34.461863       937.7550 
  90   0.0000      34.461863       937.7550 
  91   0.0000      64.097273      1744.1755 

                    ********************************
                    * MULLIKEN POPULATION ANALYSIS *
                    ********************************

--------------------------------------------
MULLIKEN ATOMIC CHARGES AND SPIN POPULATIONS
--------------------------------------------
   0 At:   -0.000000    1.000000
Sum of atomic charges         :   -0.0000000
Sum of atomic spin populations:    1.0000000

-----------------------------------------------------
MULLIKEN REDUCED ORBITAL CHARGES AND SPIN POPULATIONS
-----------------------------------------------------
CHARGE
  0 Ats       :     3.997367  s :     3.997367
      pz      :     3.995155  p :    10.996472
      px      :     3.995252
      py      :     3.006065
      dz2     :     2.000635  d :    10.002579
      dxz     :     1.999993
      dyz     :     2.000016
      dx2y2   :     2.001918
      dxy     :     2.000016
      f0      :     0.000410  f :     0.003528
      f+1     :     0.000068
      f-1     :     0.000501
      f+2     :     0.000683
      f-2     :     0.000020
      f+3     :     0.001025
      f-3     :     0.000820
      g0      :     0.000004  g :     0.000055
      g+1     :     0.000001
      g-1     :     0.000007
      g+2     :     0.000006
      g-2     :     0.000002
      g+3     :     0.000006
      g-3     :     0.000006
      g+4     :     0.000011
      g-4     :     0.000011

SPIN
  0 Ats       :     0.000901  s :     0.000901
      pz      :     0.002791  p :     0.996806
      px      :     0.002694
      py      :     0.991321
      dz2     :    -0.000228  d :    -0.000948
      dxz     :    -0.000006
      dyz     :    -0.000021
      dx2y2   :    -0.000672
      dxy     :    -0.000021
      f0      :     0.000350  f :     0.003194
      f+1     :     0.000058
      f-1     :     0.000495
      f+2     :     0.000584
      f-2     :     0.000017
      f+3     :     0.000875
      f-3     :     0.000814
      g0      :     0.000004  g :     0.000047
      g+1     :     0.000001
      g-1     :     0.000006
      g+2     :     0.000006
      g-2     :     0.000002
      g+3     :     0.000005
      g-3     :     0.000005
      g+4     :     0.000010
      g-4     :     0.000010


                     *******************************
                     * LOEWDIN POPULATION ANALYSIS *
                     *******************************

-------------------------------------------
LOEWDIN ATOMIC CHARGES AND SPIN POPULATIONS
-------------------------------------------
   0 At:   -0.000000    1.000000

----------------------------------------------------
LOEWDIN REDUCED ORBITAL CHARGES AND SPIN POPULATIONS
----------------------------------------------------
CHARGE
  0 Ats       :     3.997367  s :     3.997367
      pz      :     3.995155  p :    10.996472
      px      :     3.995252
      py      :     3.006065
      dz2     :     2.000635  d :    10.002579
      dxz     :     1.999993
      dyz     :     2.000016
      dx2y2   :     2.001918
      dxy     :     2.000016
      f0      :     0.000410  f :     0.003528
      f+1     :     0.000068
      f-1     :     0.000501
      f+2     :     0.000683
      f-2     :     0.000020
      f+3     :     0.001025
      f-3     :     0.000820
      g0      :     0.000004  g :     0.000055
      g+1     :     0.000001
      g-1     :     0.000007
      g+2     :     0.000006
      g-2     :     0.000002
      g+3     :     0.000006
      g-3     :     0.000006
      g+4     :     0.000011
      g-4     :     0.000011

SPIN
  0 Ats       :     0.000901  s :     0.000901
      pz      :     0.002791  p :     0.996806
      px      :     0.002694
      py      :     0.991321
      dz2     :    -0.000228  d :    -0.000948
      dxz     :    -0.000006
      dyz     :    -0.000021
      dx2y2   :    -0.000672
      dxy     :    -0.000021
      f0      :     0.000350  f :     0.003194
      f+1     :     0.000058
      f-1     :     0.000495
      f+2     :     0.000584
      f-2     :     0.000017
      f+3     :     0.000875
      f-3     :     0.000814
      g0      :     0.000004  g :     0.000047
      g+1     :     0.000001
      g-1     :     0.000006
      g+2     :     0.000006
      g-2     :     0.000002
      g+3     :     0.000005
      g-3     :     0.000005
      g+4     :     0.000010
      g-4     :     0.000010


                      *****************************
                      * MAYER POPULATION ANALYSIS *
                      *****************************

  NA   - Mulliken gross atomic population
  ZA   - Total nuclear charge
  QA   - Mulliken gross atomic charge
  VA   - Mayer's total valence
  BVA  - Mayer's bonded valence
  FA   - Mayer's free valence

  ATOM       NA         ZA         QA         VA         BVA        FA
  0 At    25.0000    25.0000    -0.0000     1.0189     0.0000     1.0189

  Mayer bond orders larger than 0.100000


-------
TIMINGS
-------

Total SCF time: 0 days 0 hours 0 min 7 sec 

Total time                  ....       7.932 sec
Sum of individual times     ....       7.682 sec  ( 96.8%)

Fock matrix formation       ....       6.283 sec  ( 79.2%)
Diagonalization             ....       0.067 sec  (  0.8%)
Density matrix formation    ....       0.013 sec  (  0.2%)
Population analysis         ....       0.004 sec  (  0.1%)
Initial guess               ....       1.253 sec  ( 15.8%)
Orbital Transformation      ....       0.000 sec  (  0.0%)
Orbital Orthonormalization  ....       0.000 sec  (  0.0%)
DIIS solution               ....       0.038 sec  (  0.5%)


           ************************************************************
           *        Program running with 24 parallel MPI-processes    *
           *              working on a common directory               *
           ************************************************************


------------------------------------------------------------------------------- 
                              ORCA-MATRIX DRIVEN CI                            
------------------------------------------------------------------------------- 

--------------------------------
AUTOMATIC CHOICE OF INCORE LEVEL
--------------------------------

Memory available                           ...   2500.00 MB
Memory needed for S+T                      ...      6.43 MB
Memory needed for J+K                      ...     12.91 MB
Memory needed for DIIS                     ...     89.99 MB
Memory needed for 3-ext                    ...     33.85 MB
Memory needed for 4-ext                    ...    150.46 MB
Memory needed for triples                  ...     18.81 MB
 -> Final InCoreLevel    ... 5
 -> check shows that triples correction can be computed


Wavefunction type
-----------------
Correlation treatment                      ...      CCSD     
Single excitations                         ... ON
Orbital optimization                       ... OFF
Calculation of Z vector                    ... OFF
Calculation of Brueckner orbitals          ... OFF
Perturbative triple excitations            ... ON
Calculation of F12 correction              ... OFF
Frozen core treatment                      ... chemical core (8 el)
Reference Wavefunction                     ... UHF
  Alpha-MOs occ    :     4 ...   12 (  9 MO's/  9 electrons)
  Beta-MOs occ     :     4 ...   11 (  8 MO's/  8 electrons)
  Alpha-MOs virt   :    13 ...   91 ( 79 MO's              )
  Beta-MOs virt    :    12 ...   91 ( 80 MO's              )
Number of AO's                             ...     92
Number of electrons                        ...     25
Number of correlated electrons             ...     17

Algorithmic settings
--------------------
Integral transformation                    ... AO direct full transformation
K(C) Formation                             ... FULL-MO TRAFO
Maximum number of iterations               ...        50
Convergence tolerance (max. residuum)      ... 1.000e-05
Level shift for amplitude update           ... 2.000e-01
Maximum number of DIIS vectors             ...         7
DIIS turned on at iteration                ...         0
Damping before turning on DIIS             ...     0.500
Damping after turning on DIIS              ...     0.000
Pair specific amplitude update             ... OFF
Natural orbital iterations                 ... OFF
Perturbative natural orbital generation    ... OFF
Printlevel                                 ... 2

Memory handling:
----------------
Maximum memory for working arrays          ...   2500 MB
Data storage in matrix containers          ... UNCOMPRESSED
Data type for integral storage             ... DOUBLE
In-Core Storage of quantities:
   Amplitudes+Sigma Vector      ... YES
   J+K operators                ... YES
   DIIS vectors                 ... YES
   3-external integrals         ... YES
   4-external integrals         ... YES


Initializing the integral package          ... done
Warning: reference  - re-canonicalizations have been set to INT 1 VIRT 1

--------------------------
UNRESTRICTED FOCK OPERATOR
--------------------------

<ss|ss>:          406 b            0 skpd (  0.0%)    0.001 s ( 0.003 ms/b)
<ss|sp>:         1372 b            0 skpd (  0.0%)    0.004 s ( 0.003 ms/b)
<ss|sd>:          980 b            0 skpd (  0.0%)    0.003 s ( 0.003 ms/b)
<ss|sf>:          588 b            0 skpd (  0.0%)    0.001 s ( 0.001 ms/b)
<ss|sg>:          392 b            0 skpd (  0.0%)    0.001 s ( 0.003 ms/b)
<ss|pp>:          784 b            0 skpd (  0.0%)    0.003 s ( 0.004 ms/b)
<ss|pd>:          980 b            0 skpd (  0.0%)    0.003 s ( 0.003 ms/b)
<ss|pf>:          588 b            0 skpd (  0.0%)    0.001 s ( 0.001 ms/b)
<ss|pg>:          392 b            0 skpd (  0.0%)    0.001 s ( 0.002 ms/b)
<ss|dd>:          420 b            0 skpd (  0.0%)    0.005 s ( 0.011 ms/b)
<ss|df>:          420 b            0 skpd (  0.0%)    0.001 s ( 0.002 ms/b)
<ss|dg>:          280 b            0 skpd (  0.0%)    0.001 s ( 0.005 ms/b)
<ss|ff>:          168 b            0 skpd (  0.0%)    0.000 s ( 0.002 ms/b)
<ss|fg>:          168 b            0 skpd (  0.0%)    0.001 s ( 0.003 ms/b)
<ss|gg>:           84 b            0 skpd (  0.0%)    0.001 s ( 0.009 ms/b)
<sp|sp>:         1225 b            0 skpd (  0.0%)    0.003 s ( 0.003 ms/b)
<sp|sd>:         1715 b            0 skpd (  0.0%)    0.005 s ( 0.003 ms/b)
<sp|sf>:         1029 b            0 skpd (  0.0%)    0.001 s ( 0.001 ms/b)
<sp|sg>:          686 b            0 skpd (  0.0%)    0.001 s ( 0.002 ms/b)
<sp|pp>:         1372 b            0 skpd (  0.0%)    0.005 s ( 0.004 ms/b)
<sp|pd>:         1715 b            0 skpd (  0.0%)    0.006 s ( 0.004 ms/b)
<sp|pf>:         1029 b            0 skpd (  0.0%)    0.001 s ( 0.001 ms/b)
<sp|pg>:          686 b            0 skpd (  0.0%)    0.002 s ( 0.003 ms/b)
<sp|dd>:          735 b            0 skpd (  0.0%)    0.012 s ( 0.016 ms/b)
<sp|df>:          735 b            0 skpd (  0.0%)    0.002 s ( 0.003 ms/b)
<sp|dg>:          490 b            0 skpd (  0.0%)    0.004 s ( 0.007 ms/b)
<sp|ff>:          294 b            0 skpd (  0.0%)    0.001 s ( 0.005 ms/b)
<sp|fg>:          294 b            0 skpd (  0.0%)    0.002 s ( 0.007 ms/b)
<sp|gg>:          147 b            0 skpd (  0.0%)    0.002 s ( 0.016 ms/b)
<sd|sd>:          630 b            0 skpd (  0.0%)    0.006 s ( 0.009 ms/b)
<sd|sf>:          735 b            0 skpd (  0.0%)    0.001 s ( 0.002 ms/b)
<sd|sg>:          490 b            0 skpd (  0.0%)    0.002 s ( 0.004 ms/b)
<sd|pp>:          980 b            0 skpd (  0.0%)    0.005 s ( 0.005 ms/b)
<sd|pd>:         1225 b            0 skpd (  0.0%)    0.009 s ( 0.007 ms/b)
<sd|pf>:          735 b            0 skpd (  0.0%)    0.002 s ( 0.002 ms/b)
<sd|pg>:          490 b            0 skpd (  0.0%)    0.003 s ( 0.007 ms/b)
<sd|dd>:          525 b            0 skpd (  0.0%)    0.017 s ( 0.033 ms/b)
<sd|df>:          525 b            0 skpd (  0.0%)    0.004 s ( 0.008 ms/b)
<sd|dg>:          350 b            0 skpd (  0.0%)    0.006 s ( 0.018 ms/b)
<sd|ff>:          210 b            0 skpd (  0.0%)    0.001 s ( 0.006 ms/b)
<sd|fg>:          210 b            0 skpd (  0.0%)    0.002 s ( 0.009 ms/b)
<sd|gg>:          105 b            0 skpd (  0.0%)    0.003 s ( 0.025 ms/b)
<sf|sf>:          231 b            0 skpd (  0.0%)    0.001 s ( 0.002 ms/b)
<sf|sg>:          294 b            0 skpd (  0.0%)    0.001 s ( 0.004 ms/b)
<sf|pp>:          588 b            0 skpd (  0.0%)    0.003 s ( 0.004 ms/b)
<sf|pd>:          735 b            0 skpd (  0.0%)    0.005 s ( 0.006 ms/b)
<sf|pf>:          441 b            0 skpd (  0.0%)    0.001 s ( 0.002 ms/b)
<sf|pg>:          294 b            0 skpd (  0.0%)    0.002 s ( 0.007 ms/b)
<sf|dd>:          315 b            0 skpd (  0.0%)    0.010 s ( 0.032 ms/b)
<sf|df>:          315 b            0 skpd (  0.0%)    0.003 s ( 0.008 ms/b)
<sf|dg>:          210 b            0 skpd (  0.0%)    0.004 s ( 0.019 ms/b)
<sf|ff>:          126 b            0 skpd (  0.0%)    0.001 s ( 0.008 ms/b)
<sf|fg>:          126 b            0 skpd (  0.0%)    0.001 s ( 0.011 ms/b)
<sf|gg>:           63 b            0 skpd (  0.0%)    0.002 s ( 0.035 ms/b)
<sg|sg>:          105 b            0 skpd (  0.0%)    0.001 s ( 0.010 ms/b)
<sg|pp>:          392 b            0 skpd (  0.0%)    0.003 s ( 0.009 ms/b)
<sg|pd>:          490 b            0 skpd (  0.0%)    0.006 s ( 0.013 ms/b)
<sg|pf>:          294 b            0 skpd (  0.0%)    0.001 s ( 0.005 ms/b)
<sg|pg>:          196 b            0 skpd (  0.0%)    0.003 s ( 0.014 ms/b)
<sg|dd>:          210 b            0 skpd (  0.0%)    0.013 s ( 0.062 ms/b)
<sg|df>:          210 b            0 skpd (  0.0%)    0.003 s ( 0.016 ms/b)
<sg|dg>:          140 b            0 skpd (  0.0%)    0.006 s ( 0.040 ms/b)
<sg|ff>:           84 b            0 skpd (  0.0%)    0.001 s ( 0.012 ms/b)
<sg|fg>:           84 b            0 skpd (  0.0%)    0.002 s ( 0.019 ms/b)
<sg|gg>:           42 b            0 skpd (  0.0%)    0.003 s ( 0.060 ms/b)
<pp|pp>:          406 b            0 skpd (  0.0%)    0.004 s ( 0.009 ms/b)
<pp|pd>:          980 b            0 skpd (  0.0%)    0.007 s ( 0.007 ms/b)
<pp|pf>:          588 b            0 skpd (  0.0%)    0.002 s ( 0.003 ms/b)
<pp|pg>:          392 b            0 skpd (  0.0%)    0.003 s ( 0.007 ms/b)
<pp|dd>:          420 b            0 skpd (  0.0%)    0.014 s ( 0.034 ms/b)
<pp|df>:          420 b            0 skpd (  0.0%)    0.004 s ( 0.008 ms/b)
<pp|dg>:          280 b            0 skpd (  0.0%)    0.005 s ( 0.019 ms/b)
<pp|ff>:          168 b            0 skpd (  0.0%)    0.001 s ( 0.008 ms/b)
<pp|fg>:          168 b            0 skpd (  0.0%)    0.002 s ( 0.010 ms/b)
<pp|gg>:           84 b            0 skpd (  0.0%)    0.002 s ( 0.029 ms/b)
<pd|pd>:          630 b            0 skpd (  0.0%)    0.015 s ( 0.024 ms/b)
<pd|pf>:          735 b            0 skpd (  0.0%)    0.003 s ( 0.005 ms/b)
<pd|pg>:          490 b            0 skpd (  0.0%)    0.006 s ( 0.013 ms/b)
<pd|dd>:          525 b            0 skpd (  0.0%)    0.032 s ( 0.061 ms/b)
<pd|df>:          525 b            0 skpd (  0.0%)    0.009 s ( 0.016 ms/b)
<pd|dg>:          350 b            0 skpd (  0.0%)    0.013 s ( 0.037 ms/b)
<pd|ff>:          210 b            0 skpd (  0.0%)    0.003 s ( 0.014 ms/b)
<pd|fg>:          210 b            0 skpd (  0.0%)    0.004 s ( 0.020 ms/b)
<pd|gg>:          105 b            0 skpd (  0.0%)    0.006 s ( 0.057 ms/b)
<pf|pf>:          231 b            0 skpd (  0.0%)    0.002 s ( 0.007 ms/b)
<pf|pg>:          294 b            0 skpd (  0.0%)    0.004 s ( 0.012 ms/b)
<pf|dd>:          315 b            0 skpd (  0.0%)    0.016 s ( 0.050 ms/b)
<pf|df>:          315 b            0 skpd (  0.0%)    0.005 s ( 0.014 ms/b)
<pf|dg>:          210 b            0 skpd (  0.0%)    0.007 s ( 0.034 ms/b)
<pf|ff>:          126 b            0 skpd (  0.0%)    0.002 s ( 0.017 ms/b)
<pf|fg>:          126 b            0 skpd (  0.0%)    0.003 s ( 0.024 ms/b)
<pf|gg>:           63 b            0 skpd (  0.0%)    0.004 s ( 0.063 ms/b)
<pg|pg>:          105 b            0 skpd (  0.0%)    0.003 s ( 0.029 ms/b)
<pg|dd>:          210 b            0 skpd (  0.0%)    0.022 s ( 0.104 ms/b)
<pg|df>:          210 b            0 skpd (  0.0%)    0.006 s ( 0.027 ms/b)
<pg|dg>:          140 b            0 skpd (  0.0%)    0.009 s ( 0.065 ms/b)
<pg|ff>:           84 b            0 skpd (  0.0%)    0.002 s ( 0.023 ms/b)
<pg|fg>:           84 b            0 skpd (  0.0%)    0.003 s ( 0.038 ms/b)
<pg|gg>:           42 b            0 skpd (  0.0%)    0.005 s ( 0.119 ms/b)
<dd|dd>:          120 b            0 skpd (  0.0%)    0.030 s ( 0.246 ms/b)
<dd|df>:          225 b            0 skpd (  0.0%)    0.008 s ( 0.035 ms/b)
<dd|dg>:          150 b            0 skpd (  0.0%)    0.013 s ( 0.085 ms/b)
<dd|ff>:           90 b            0 skpd (  0.0%)    0.003 s ( 0.028 ms/b)
<dd|fg>:           90 b            0 skpd (  0.0%)    0.004 s ( 0.042 ms/b)
<dd|gg>:           45 b            0 skpd (  0.0%)    0.005 s ( 0.122 ms/b)
<df|df>:          120 b            0 skpd (  0.0%)    0.005 s ( 0.041 ms/b)
<df|dg>:          150 b            0 skpd (  0.0%)    0.009 s ( 0.063 ms/b)
<df|ff>:           90 b            0 skpd (  0.0%)    0.003 s ( 0.032 ms/b)
<df|fg>:           90 b            0 skpd (  0.0%)    0.004 s ( 0.046 ms/b)
<df|gg>:           45 b            0 skpd (  0.0%)    0.005 s ( 0.118 ms/b)
<dg|dg>:           55 b            0 skpd (  0.0%)    0.007 s ( 0.126 ms/b)
<dg|ff>:           60 b            0 skpd (  0.0%)    0.002 s ( 0.041 ms/b)
<dg|fg>:           60 b            0 skpd (  0.0%)    0.004 s ( 0.065 ms/b)
<dg|gg>:           30 b            0 skpd (  0.0%)    0.006 s ( 0.207 ms/b)
<ff|ff>:           21 b            0 skpd (  0.0%)    0.001 s ( 0.052 ms/b)
<ff|fg>:           36 b            0 skpd (  0.0%)    0.002 s ( 0.064 ms/b)
<ff|gg>:           18 b            0 skpd (  0.0%)    0.003 s ( 0.152 ms/b)
<fg|fg>:           21 b            0 skpd (  0.0%)    0.003 s ( 0.135 ms/b)
<fg|gg>:           18 b            0 skpd (  0.0%)    0.005 s ( 0.269 ms/b)
<gg|gg>:            6 b            0 skpd (  0.0%)    0.004 s ( 0.668 ms/b)
Recanonicalizing the internal orbitals
Recanonicalizing the virtual orbitals
Time needed for Fock operator              ...            0.576 sec
Reference energy                           ...   -261.361312952
Warning: for UHF the TrafoType has to be JK
Warning: for UHF the K(C)-option cannot be MO but must be AOX

-------------------------------
PARTIAL EXCHANGE TRANSFORMATION
-------------------------------

Transformation type                        ... two-operators
Generation of integrals (i,mue|j,nue)      ... ON
Generation of integrals (mue,kappa|nue,tau)... ON
Generation of integrals (i,mue|a,nue)      ... ON
Dimension of the basis                     ...   92
Number of internal alpha-MOs               ...    9 (   4-  12)
Number of internal beta-MOs                ...    8 (   4-  11)
Number of external alpha-MOs               ...   79 (  13-  91)
Number of external beta-MOs                ...   80 (  12-  91)
Pair cutoff                                ... 0.000e+00 Eh
Number of AO pairs in the trafo            ... 4278
Total Number of distinct AO pairs          ... 4278
Memory devoted for trafo                   ... 2500.0 MB 
Max. Number of MO pairs treated together   ... 38714      
Number Format for Storage                  ... Double (8 Byte)
Integral package used                      ... LIBINT

Starting integral evaluation:
    ... done with AO integral generation
Closing buffer AOK[aa] ( 0.00 GB; CompressionRatio= 0.98)
Closing buffer AOK[bb] ( 0.00 GB; CompressionRatio= 0.98)
Closing buffer AOK[ab] ( 0.00 GB; CompressionRatio= 0.98)
Closing buffer AOK[ba] ( 0.00 GB; CompressionRatio= 0.98)
Collecting buffer AOK 
Closing buffer IAAO1[aa] ( 0.00 GB; CompressionRatio= 1.00)
Closing buffer IAAO1[bb] ( 0.00 GB; CompressionRatio= 1.00)
Closing buffer IAAO1[ab] ( 0.00 GB; CompressionRatio= 1.00)
Closing buffer IAAO1[ba] ( 0.00 GB; CompressionRatio= 1.00)
Closing buffer IAAO2[aa] ( 0.00 GB; CompressionRatio= 1.00)
Closing buffer IAAO2[bb] ( 0.00 GB; CompressionRatio= 1.00)
Closing buffer IAAO2[ab] ( 0.00 GB; CompressionRatio= 1.00)
Closing buffer IAAO2[ba] ( 0.00 GB; CompressionRatio= 1.00)
Collecting buffer IAAO 
Closing buffer PRQS    ( 0.00 GB; CompressionRatio= 1.00)
Collecting buffer PRQS 
Number of alpha/alpha MO pairs in trafo    ...   45
Number of beta /beta  MO pairs in trafo    ...   36
Number of alpha/ beta MO pairs in trafo    ...   72
------------------------
SORTING OF (i,mue|j,nue)
------------------------

SORTING OF ALPHA/ALPHA PAIRS
IBATCH = 1 of  1
Closing buffer KAO[aa] ( 0.00 GB; CompressionRatio= 1.00)
Collecting buffer KAO 
SORTING OF BETA /BETA  PAIRS
IBATCH = 1 of  1
Closing buffer KAO[bb] ( 0.00 GB; CompressionRatio= 1.00)
Collecting buffer KAO 
SORTING OF ALPHA/BETA  PAIRS
IBATCH = 1 of  1
Closing buffer KAO[ab] ( 0.00 GB; CompressionRatio= 0.999822810230)
Collecting buffer KAO[ab] 
------------------------
SORTING OF (i,mue|a,nue)
------------------------

Number of alpha/alpha (i,a) pairs in trafo  ...  711
Number of beta /beta  (i,a) pairs in trafo  ...  640
Number of alpha/ beta (i,a) pairs in trafo  ...  720
Number of beta /alpha (i,a) pairs in trafo  ...  632
Setting up the alpha/alpha list             ... done
Setting up the beta /beta  list             ... done
Setting up the alpha/beta  list             ... done
Setting up the beta /alpha list             ... done
    ... Now sorting (i,mue|a,nue)integrals
    ... Integrals (i,b|a,c) will be made on the fly
SORTING OF ALPHA/ALPHA PAIRS
IBATCH = 1 of  1
Closing buffer IPAQ[aa]  0.00 GB; CompressionRatio= 1.00)
SORTING OF BETA /BETA  PAIRS
IBATCH = 1 of  1
Closing buffer IPAQ[bb]( 0.00 GB; CompressionRatio= 1.00)
SORTING OF ALPHA/BETA  PAIRS (NMatSort_ab=30)
IBATCH = 1 of  1
Closing buffer IPAQ[ab]( 0.00 GB; CompressionRatio= 1.00)
SORTING OF BETA/ALPHA  PAIRS
IBATCH = 1 of  1
Closing buffer IPAQ[ba]( 0.00 GB; CompressionRatio= 1.00)
N(AO-Batches) Done                         ...       576 
N(AO-Batches) Skipped                      ...         0 
N(IJ)-pairs Skipped                        ...         0 
TOTAL TIME for half transformation         ...     1.677 sec
AO-integral generation                     ...     0.043 sec
Half transformation                        ...     0.001 sec
K-integral sorting                         ...     0.567 sec
<ss|**>: 
------------------------------
PARTIAL COULOMB TRANSFORMATION
------------------------------

Transformation type                        ... two-operators
Dimension of the basis                     ...   92
Number of internal alpha-MOs               ...    9 (4-12)
Number of internal beta-MOs                ...    8 (4-11)
Pair cutoff                                ... 0.000e+00 Eh
Number of AO pairs included in the trafo   ... 4278
Total Number of distinct AO pairs          ... 4278
Memory devoted for trafo                   ... 2500.0 MB 
Max. Number of MO pairs treated together   ... 76596      
Max. Number of MOs treated per batch       ...  832      
Number Format for Storage                  ... Double (8 Byte)
AO-integral source                         ... DIRECT
Integral package used                      ... LIBINT

Starting integral evaluation:
        8400 b        0 skpd     0.023 s (  0.003 ms/b)
<sp|**>: <sd|**>:        14700 b        0 skpd     0.031 s (  0.002 ms/b)
<sf|**>:        10500 b        0 skpd     0.070 s (  0.007 ms/b)
        6300 b        0 skpd     0.017 s (  0.003 ms/b)
<sg|**>:         4200 b        0 skpd     0.033 s (  0.008 ms/b)
<pp|**>:         8400 b        0 skpd     0.051 s (  0.006 ms/b)
<pd|**>:        10500 b        0 skpd     0.107 s (  0.010 ms/b)
<pf|**>:         6300 b        0 skpd     0.026 s (  0.004 ms/b)
<pg|**>:         4200 b        0 skpd     0.047 s (  0.011 ms/b)
<dd|**>:         4500 b        0 skpd     0.237 s (  0.053 ms/b)
<df|**>:         4500 b        0 skpd     0.059 s (  0.013 ms/b)
<dg|**>:         3000 b        0 skpd     0.094 s (  0.031 ms/b)
<ff|**>:         1800 b        0 skpd     0.019 s (  0.011 ms/b)
<fg|**>:         1800 b        0 skpd     0.029 s (  0.016 ms/b)
<gg|**>:          900 b        0 skpd     0.045 s (  0.051 ms/b)
Closing buffer AOJ[aa] ( 0.00 GB; CompressionRatio= 0.97)
Closing buffer AOJ[bb] ( 0.00 GB; CompressionRatio= 0.00)
Collecting buffer AOJ 
    ... done with AO integral generation
Number of Alpha-MO pairs included          ...   45
Number of Beta-MO pairs included           ...   36
    ... Now sorting integrals
SORTING ALPHA/ALPHA PAIRS
IBATCH = 1 of  1
Closing buffer JAO[aa] ( 0.00 GB; CompressionRatio= 1.00)
SORTING BETA/BETA PAIRS
IBATCH = 1 of  1
Closing buffer JAO[bb] ( 0.00 GB; CompressionRatio= 1.00)
Collecting buffer JAO 
TOTAL TIME for half transformation         ...     0.928 sec
AO-integral generation                     ...     0.887 sec
Half transformation                        ...     0.008 sec
J-integral sorting                         ...     0.029 sec

-------------------------- SECOND HALF TRANSFORMATION -------------------------
Formation of (ij|kl),(ij|ka), (ij|ab)      ... ok (     0.033 sec)
Formation of (ik|jl),(ik|ja), (ia|jb)      ... ok (     0.054 sec)


-----------------------
SPIN UNRESTRICTED GUESS
-----------------------

Entering MDCI_UHF_Guess, Tailored=0
Spin-components of the MP2 energy:
EMP2(aa)=     -0.054146775
EMP2(bb)=     -0.040582858
EMP2(ab)=     -0.199144468

Initial guess performed in     0.023 sec
E(0)                                       ...   -261.361312952
E(MP2)                                     ...     -0.293874101
Initial E(tot)                             ...   -261.655187053
<T|T>                                      ...      0.085189583
Number of pairs included                   ... 136

------------------------------------------------
                  UHF COUPLED CLUSTER ITERATIONS
------------------------------------------------

Number of amplitudes to be optimized       ...       657635

Iter       E(tot)           E(Corr)          Delta-E          Residual     Time      <S|S>**1/2
  0   -261.655187053     -0.293874101     -0.000000000      0.016791678    0.88      0.000000934
                           *** Turning on DIIS ***
  1   -261.650153478     -0.288840526      0.005033575      0.004289126    0.95      0.019991604
  2   -261.655305013     -0.293992061     -0.005151535      0.002175561    0.98      0.024069575
  3   -261.656442448     -0.295129496     -0.001137435      0.000595099    1.01      0.026842553
  4   -261.656594290     -0.295281338     -0.000151842      0.000168790    0.99      0.027713897
  5   -261.656608065     -0.295295113     -0.000013775      0.000047952    0.97      0.027883210
  6   -261.656609354     -0.295296402     -0.000001288      0.000010947    1.00      0.027901674
  7   -261.656609474     -0.295296522     -0.000000120      0.000003636    1.03      0.027901713
               --- The Coupled-Cluster iterations have converged ---

----------------------
COUPLED CLUSTER ENERGY
----------------------

E(0)                                       ...   -261.361312952
E(CORR)                                    ...     -0.295296522
E(TOT)                                     ...   -261.656609474
Singles norm <S|S>**1/2                    ...      0.027901713 ( 0.012425368, 0.015476345)  
T1 diagnostic                              ...      0.006767159                              

------------------
LARGEST AMPLITUDES
------------------
  10a-> 26a   9b-> 12b       0.027201
  11a-> 28a   9b-> 12b       0.023463
  12a-> 27a   9b-> 12b       0.023463
  11b-> 26b  10b-> 27b       0.019143
  11b-> 27b  10b-> 26b       0.019143
  12a-> 30a  11a-> 29a       0.019142
  12a-> 29a  11a-> 30a       0.019142
  10a-> 17a   9b-> 12b       0.017389
  10a-> 58a   9b-> 12b       0.016887
   9b-> 30b  -1b-> -1b       0.015884
  12a-> 26a  10a-> 27a       0.015771
  12a-> 27a  10a-> 26a       0.015771
  11a-> 28a  10a-> 26a       0.015771
  11a-> 26a  10a-> 28a       0.015771
  11a-> 28a  11b-> 28b       0.015144
  12a-> 27a  10b-> 29b       0.015144

----------------------
UHF TRIPLES CORRECTION (Algorithm 1)
----------------------

Multiplier for the singles contribution    ...      1.000000000

SPIN-CASE Alpha-Alpha-Alpha:
10% done
20% done
30% done
40% done
50% done
60% done
70% done
80% done
90% done


SPIN-CASE Beta-Beta-Beta:
10% done
20% done
30% done
40% done
50% done
60% done
70% done
80% done
90% done


SPIN-CASE Alpha-Alpha-Beta:
10% done
20% done
30% done
40% done
50% done
60% done
70% done
80% done
90% done


SPIN-CASE Beta-Beta-Alpha:
10% done
20% done
30% done
40% done
50% done
60% done
70% done
80% done
90% done


Triples Correction (T)                     ...     -0.009125992
    alpha-alpha-alpha ... -0.000471761 (  5.2%)
    alpha-alpha-beta  ... -0.004739106 ( 51.9%)
    alpha-beta -beta  ... -0.003658110 ( 40.1%)
    beta -beta -beta  ... -0.000257014 (  2.8%)
Scaling of triples based on CCSD energies (Peterson et al. Molecular Physics 113, 1551 (2015))
E(T*) = f*E(T) where f = E(F12-CCSD)/E(CCSD) 
f = CCSD (with F12)/ CCSD (without F12)    ...      1.000000000
Scaled triples correction (T)              ...     -0.009125992

Final correlation energy                   ...     -0.304422513
E(CCSD)                                    ...   -261.656609474
E(CCSD(T))                                 ...   -261.665735466



        !!!!!!!!!!!!!!!!!!!!!!!!!!!!!!!!!!!!!!!!!!!!!!!!!!!!!!!!!!!!!!!!!!!!!!!!!! 
        !  Warning: Densities are linearized densities                           !
        !!!!!!!!!!!!!!!!!!!!!!!!!!!!!!!!!!!!!!!!!!!!!!!!!!!!!!!!!!!!!!!!!!!!!!!!!! 

NORM  =      1.093601969 sqrt=     1.045754258
W(HF) =      0.914409473
------------------------------------------------------------------------------
                           ORCA POPULATION ANALYSIS
------------------------------------------------------------------------------
Input electron density              ... 85_At.mdcip
Input spin density                  ... 85_At.mdcir
BaseName (.gbw .S,...)              ... 85_At

                    ********************************
                    * MULLIKEN POPULATION ANALYSIS *
                    ********************************

------------------------------------------
MULLIKEN ATOMIC CHARGES AND SPIN DENSITIES
------------------------------------------
   0 At:   -0.000000    1.000000
Sum of atomic charges       :   -0.0000000
Sum of atomic spin densities:    1.0000000

---------------------------------------------------
MULLIKEN REDUCED ORBITAL CHARGES AND SPIN DENSITIES
---------------------------------------------------
CHARGE
  0 Ats       :     3.979760  s :     3.979760
      pz      :     3.956722  p :    10.918452
      px      :     3.956815
      py      :     3.004916
      dz2     :     2.010422  d :    10.046544
      dxz     :     2.011498
      dyz     :     2.008176
      dx2y2   :     2.008271
      dxy     :     2.008177
      f0      :     0.006829  f :     0.048476
      f+1     :     0.006692
      f-1     :     0.006998
      f+2     :     0.006939
      f-2     :     0.006837
      f+3     :     0.007076
      f-3     :     0.007106
      g0      :     0.000826  g :     0.006768
      g+1     :     0.000924
      g-1     :     0.000704
      g+2     :     0.000783
      g-2     :     0.000776
      g+3     :     0.000725
      g-3     :     0.000725
      g+4     :     0.000653
      g-4     :     0.000653

SPIN
  0 Ats       :     0.006557  s :     0.006557
      pz      :     0.004238  p :     0.972213
      px      :     0.004144
      py      :     0.963831
      dz2     :     0.001085  d :     0.012996
      dxz     :    -0.000453
      dyz     :     0.004102
      dx2y2   :     0.004162
      dxy     :     0.004101
      f0      :     0.000674  f :     0.008096
      f+1     :     0.000052
      f-1     :     0.001516
      f+2     :     0.001172
      f-2     :     0.001085
      f+3     :     0.001794
      f-3     :     0.001803
      g0      :     0.000007  g :     0.000138
      g+1     :    -0.000004
      g-1     :     0.000021
      g+2     :     0.000013
      g-2     :     0.000008
      g+3     :     0.000017
      g-3     :     0.000017
      g+4     :     0.000030
      g-4     :     0.000030


                     *******************************
                     * LOEWDIN POPULATION ANALYSIS *
                     *******************************

-----------------------------------------
LOEWDIN ATOMIC CHARGES AND SPIN DENSITIES
-----------------------------------------
   0 At:   -0.000000    1.000000

--------------------------------------------------
LOEWDIN REDUCED ORBITAL CHARGES AND SPIN DENSITIES
--------------------------------------------------
CHARGE
  0 Ats       :     3.979760  s :     3.979760
      pz      :     3.956722  p :    10.918452
      px      :     3.956815
      py      :     3.004916
      dz2     :     2.010422  d :    10.046544
      dxz     :     2.011498
      dyz     :     2.008176
      dx2y2   :     2.008271
      dxy     :     2.008177
      f0      :     0.006829  f :     0.048476
      f+1     :     0.006692
      f-1     :     0.006998
      f+2     :     0.006939
      f-2     :     0.006837
      f+3     :     0.007076
      f-3     :     0.007106
      g0      :     0.000826  g :     0.006768
      g+1     :     0.000924
      g-1     :     0.000704
      g+2     :     0.000783
      g-2     :     0.000776
      g+3     :     0.000725
      g-3     :     0.000725
      g+4     :     0.000653
      g-4     :     0.000653

SPIN
  0 Ats       :     0.006557  s :     0.006557
      pz      :     0.004238  p :     0.972213
      px      :     0.004144
      py      :     0.963831
      dz2     :     0.001085  d :     0.012996
      dxz     :    -0.000453
      dyz     :     0.004102
      dx2y2   :     0.004162
      dxy     :     0.004101
      f0      :     0.000674  f :     0.008096
      f+1     :     0.000052
      f-1     :     0.001516
      f+2     :     0.001172
      f-2     :     0.001085
      f+3     :     0.001794
      f-3     :     0.001803
      g0      :     0.000007  g :     0.000138
      g+1     :    -0.000004
      g-1     :     0.000021
      g+2     :     0.000013
      g-2     :     0.000008
      g+3     :     0.000017
      g-3     :     0.000017
      g+4     :     0.000030
      g-4     :     0.000030


                      *****************************
                      * MAYER POPULATION ANALYSIS *
                      *****************************

  NA   - Mulliken gross atomic population
  ZA   - Total nuclear charge
  QA   - Mulliken gross atomic charge
  VA   - Mayer's total valence
  BVA  - Mayer's bonded valence
  FA   - Mayer's free valence

  ATOM       NA         ZA         QA         VA         BVA        FA
  0 At    25.0000    25.0000    -0.0000     1.6759     0.0000     1.6759





------------------------------------------------------------------------------- 
                                     TIMINGS                                   
------------------------------------------------------------------------------- 


Total execution time                   ...       12.737 sec

Fock Matrix Formation                  ...        0.576 sec (  4.5%)
Initial Guess                          ...        0.023 sec (  0.2%)
DIIS Solver                            ...        0.380 sec (  3.0%)
State Vector Update                    ...        0.021 sec (  0.2%)
Sigma-vector construction              ...        7.407 sec ( 58.2%)
  <0|H|D>                              ...        0.001 sec (  0.0% of sigma)
  <D|H|D>(0-ext Fock)                  ...        0.007 sec (  0.1% of sigma)
  <D|H|D>(0-ext)                       ...        0.022 sec (  0.3% of sigma)
  <D|H|D>(2-ext Fock)                  ...        0.003 sec (  0.0% of sigma)
  <D|H|D>(2-ext)                       ...        0.099 sec (  1.3% of sigma)
  <D|H|D>(4-ext)                       ...        2.623 sec ( 35.4% of sigma)
  <S|H|0>                              ...        0.219 sec (  3.0% of sigma)
  <S|H|S>                              ...        0.001 sec (  0.0% of sigma)
  <S|H|D>(1-ext)                       ...        0.002 sec (  0.0% of sigma)
  <D|H|S>(1-ext)                       ...        0.037 sec (  0.5% of sigma)
  Fock-dressing                        ...        3.023 sec ( 40.8% of sigma)
  (ik|jl)-dressing                     ...        0.027 sec (  0.4% of sigma)
  (ij|ab),(ia|jb)-dressing             ...        1.009 sec ( 13.6% of sigma)
  Pair energies                        ...        0.002 sec (  0.0% of sigma)
Total Time for computing (T)           ...        1.304 sec ( 10.2% of ALL)
  I/O of integral and amplitudes       ...        0.252 sec ( 19.3% of (T))
  External N**7 contributions          ...        0.354 sec ( 27.1% of (T))
  Internal N**7 contributions          ...        0.190 sec ( 14.6% of (T))
  N**6 triples energy contributions    ...        0.469 sec ( 35.9% of (T))


-------------------------   --------------------
FINAL SINGLE POINT ENERGY      -261.665735465525
-------------------------   --------------------


                            ***************************************
                            *     ORCA property calculations      *
                            ***************************************

                                    ---------------------
                                    Active property flags
                                    ---------------------
   (+) Dipole Moment


------------------------------------------------------------------------------
                       ORCA ELECTRIC PROPERTIES CALCULATION
------------------------------------------------------------------------------

Dipole Moment Calculation                       ... on
Quadrupole Moment Calculation                   ... off
Polarizability Calculation                      ... off
GBWName                                         ... 85_At.gbw
Electron density file                           ... 85_At.scfp
The origin for moment calculation is the CENTER OF MASS  = ( 0.000000,  0.000000  0.000000)

-------------
DIPOLE MOMENT
-------------
                                X             Y             Z
Electronic contribution:     -0.00000      -0.00000       0.00000
Nuclear contribution   :      0.00000       0.00000       0.00000
                        -----------------------------------------
Total Dipole Moment    :     -0.00000      -0.00000       0.00000
                        -----------------------------------------
Magnitude (a.u.)       :      0.00000
Magnitude (Debye)      :      0.00000



--------------------
Rotational spectrum 
--------------------
 
Rotational constants in cm-1:     0.000000     0.000000     0.000000 
Rotational constants in MHz :     0.000000     0.000000     0.000000 

 Dipole components along the rotational axes: 
x,y,z [a.u.] :    -0.000000    -0.000000     0.000000 
x,y,z [Debye]:    -0.000000    -0.000000     0.000000 

 

                           *** MDCI DENSITY ***

------------------------------------------------------------------------------
                       ORCA ELECTRIC PROPERTIES CALCULATION
------------------------------------------------------------------------------

Dipole Moment Calculation                       ... on
Quadrupole Moment Calculation                   ... off
Polarizability Calculation                      ... off
GBWName                                         ... 85_At.gbw
Electron density file                           ... 85_At.mdcip
The origin for moment calculation is the CENTER OF MASS  = ( 0.000000,  0.000000  0.000000)

-------------
DIPOLE MOMENT
-------------
                                X             Y             Z
Electronic contribution:     -0.00000      -0.00000      -0.00000
Nuclear contribution   :      0.00000       0.00000       0.00000
                        -----------------------------------------
Total Dipole Moment    :     -0.00000      -0.00000      -0.00000
                        -----------------------------------------
Magnitude (a.u.)       :      0.00000
Magnitude (Debye)      :      0.00000



--------------------
Rotational spectrum 
--------------------
 
Rotational constants in cm-1:     0.000000     0.000000     0.000000 
Rotational constants in MHz :     0.000000     0.000000     0.000000 

 Dipole components along the rotational axes: 
x,y,z [a.u.] :    -0.000000    -0.000000    -0.000000 
x,y,z [Debye]:    -0.000000    -0.000000    -0.000000 

 

Timings for individual modules:

Sum of individual times         ...       22.414 sec (=   0.374 min)
GTO integral calculation        ...        0.818 sec (=   0.014 min)   3.7 %
SCF iterations                  ...        8.317 sec (=   0.139 min)  37.1 %
MDCI module                     ...       13.278 sec (=   0.221 min)  59.2 %
                             ****ORCA TERMINATED NORMALLY****
TOTAL RUN TIME: 0 days 0 hours 0 minutes 22 seconds 936 msec
