
                                 *****************
                                 * O   R   C   A *
                                 *****************

           --- An Ab Initio, DFT and Semiempirical electronic structure package ---

                  #######################################################
                  #                        -***-                        #
                  #          Department of theory and spectroscopy      #
                  #               Directorship: Frank Neese             #
                  #        Max Planck Institute fuer Kohlenforschung    #
                  #                Kaiser Wilhelm Platz 1               #
                  #                 D-45470 Muelheim/Ruhr               #
                  #                      Germany                        #
                  #                                                     #
                  #                  All rights reserved                #
                  #                        -***-                        #
                  #######################################################


                         Program Version 4.2.0 -  RELEASE  -


 With contributions from (in alphabetic order):
   Daniel Aravena         : Magnetic Suceptibility
   Michael Atanasov       : Ab Initio Ligand Field Theory (pilot matlab implementation)
   Alexander A. Auer      : GIAO ZORA, VPT2
   Ute Becker             : Parallelization
   Giovanni Bistoni       : ED, misc. LED, open-shell LED, HFLED
   Martin Brehm           : Molecular dynamics
   Dmytro Bykov           : SCF Hessian
   Vijay G. Chilkuri      : MRCI spin determinant printing, contributions to CSF-ICE
   Dipayan Datta          : RHF DLPNO-CCSD density
   Achintya Kumar Dutta   : EOM-CC, STEOM-CC
   Dmitry Ganyushin       : Spin-Orbit,Spin-Spin,Magnetic field MRCI
   Miquel Garcia          : C-PCM Hessian, Gaussian charge scheme
   Yang Guo               : DLPNO-NEVPT2, CIM, IAO-localization
   Andreas Hansen         : Spin unrestricted coupled pair/coupled cluster methods
   Benjamin Helmich-Paris : CASSCF linear response (MC-RPA)
   Lee Huntington         : MR-EOM, pCC
   Robert Izsak           : Overlap fitted RIJCOSX, COSX-SCS-MP3, EOM
   Christian Kollmar      : KDIIS, OOCD, Brueckner-CCSD(T), CCSD density
   Simone Kossmann        : Meta GGA functionals, TD-DFT gradient, OOMP2, MP2 Hessian
   Martin Krupicka        : AUTO-CI
   Lucas Lang             : DCDCAS
   Dagmar Lenk            : GEPOL surface, SMD
   Dimitrios Liakos       : Extrapolation schemes; Compound Job, initial MDCI parallelization
   Dimitrios Manganas     : Further ROCIS development; embedding schemes
   Dimitrios Pantazis     : SARC Basis sets
   Taras Petrenko         : DFT Hessian,TD-DFT gradient, ASA, ECA, R-Raman, ABS, FL, XAS/XES, NRVS
   Peter Pinski           : DLPNO-MP2, DLPNO-MP2 Gradient
   Christoph Reimann      : Effective Core Potentials
   Marius Retegan         : Local ZFS, SOC
   Christoph Riplinger    : Optimizer, TS searches, QM/MM, DLPNO-CCSD(T), (RO)-DLPNO pert. Triples
   Tobias Risthaus        : Range-separated hybrids, TD-DFT gradient, RPA, STAB
   Michael Roemelt        : Original ROCIS implementation
   Masaaki Saitow         : Open-shell DLPNO-CCSD energy and density
   Barbara Sandhoefer     : DKH picture change effects
   Avijit Sen             : IP-ROCIS
   Kantharuban Sivalingam : CASSCF convergence, NEVPT2, FIC-MRCI
   Bernardo de Souza      : ESD, SOC TD-DFT
   Georgi Stoychev        : AutoAux, RI-MP2 NMR
   Willem Van den Heuvel  : Paramagnetic NMR
   Boris Wezisla          : Elementary symmetry handling
   Frank Wennmohs         : Technical directorship


 We gratefully acknowledge several colleagues who have allowed us to
 interface, adapt or use parts of their codes:
   Stefan Grimme, W. Hujo, H. Kruse,             : VdW corrections, initial TS optimization,
                  C. Bannwarth                     DFT functionals, gCP, sTDA/sTD-DF
   Ed Valeev, F. Pavosevic, A. Kumar             : LibInt (2-el integral package), F12 methods
   Garnet Chan, S. Sharma, J. Yang, R. Olivares  : DMRG
   Ulf Ekstrom                                   : XCFun DFT Library
   Mihaly Kallay                                 : mrcc  (arbitrary order and MRCC methods)
   Andreas Klamt, Michael Diedenhofen            : otool_cosmo (COSMO solvation model)
   Jiri Pittner, Ondrej Demel                    : Mk-CCSD
   Frank Weinhold                                : gennbo (NPA and NBO analysis)
   Christopher J. Cramer and Donald G. Truhlar   : smd solvation model
   Lars Goerigk                                  : TD-DFT with DH, B97 family of functionals
   V. Asgeirsson, H. Jonsson                     : NEB implementation
   FAccTs GmbH                                   : IRC, NEB, NEB-TS, Multilevel, MM, QM/MM, CI optimization
   S Lehtola, MJT Oliveira, MAL Marques          : LibXC Library


 Your calculation uses the libint2 library for the computation of 2-el integrals
 For citations please refer to: http://libint.valeyev.net

 Your ORCA version has been built with support for libXC version: 4.2.3
 For citations please refer to: https://tddft.org/programs/libxc/

 This ORCA versions uses:
   CBLAS   interface :  Fast vector & matrix operations
   LAPACKE interface :  Fast linear algebra routines
   SCALAPACK package :  Parallel linear algebra routines


----- Orbital basis set information -----
Your calculation utilizes the basis: aug-cc-pVQZ-PP 
       Ca, Sr, Ba, Ra : Obtained from the Peterson Research Group Website (tyr0.chem.wsu.edu/~kipeters) Feb. 2017
                        H. Li, H. Feng, W. Sun, Y. Zhang, Q. Fan, K. A. Peterson, Y. Xie, H. F. Schaefer III, Mol. Phys. 111, 2292 (2013)
  Cu-Zn, Ag-Cd, Au-Hg : Obtained from the ccRepo (grant-hill.group.shef.ac.uk/ccrepo) Feb. 2017
                        K. A. Peterson, C. Puzzarini, Theor. Chem. Acc. 114, 283 (2005)
  Ga-Kr, In-Xe, Tl-Rn : Obtained from the ccRepo (grant-hill.group.shef.ac.uk/ccrepo) Feb. 2017
                        K. A. Peterson, J. Chem. Phys. 119, 11099 (2003)
                        K. A. Peterson, D. Figgen, E. Goll, H. Stoll, M. Dolg, J. Chem. Phys. 119, 11113 (2003)
                 Y-Pd : Obtained from the ccRepo (grant-hill.group.shef.ac.uk/ccrepo) Feb. 2017
                        K. A. Peterson, D. Figgen, M. Dolg, H. Stoll, J. Chem. Phys. 126, 124101 (2007)
                Hf-Pt : Obtained from the ccRepo (grant-hill.group.shef.ac.uk/ccrepo) Feb. 2017
                        D. Figgen, K. A. Peterson, M. Dolg, H. Stoll, J. Chem. Phys. 130, 164108 (2009)

cite the ECPs for Rn [SK MCDHF RSC] as follows:
O: B. Metz and H. Stoll, private communication (KAP)
Tl: B. Metz, M. Schweizer, H. Stoll, M. Dolg, W. Liu, Theor. Chem. Acc. 104, 22 (2000)
Ga-As, In-Sb, Pb-Bi: B. Metz, H. Stoll, M. Dolg, J. Chem. Phys. 113, 2563 (2000)
Se-Kr, Te-Xe, Po-Rn: K.A. Peterson, D. Figgen, E. Goll, H. Stoll, and M. Dolg, J. Chem. Phys., in press (2003)
Cu-Zn, Ag-Cd, Au-Hg: D. Figgen, G. Rauhut, M. Dolg, and H. Stoll, Chem. Phys. 311, 227 (2005)
Y-Pd: K.A. Peterson, D. Figgen, M. Dolg, H. Stoll, J. Chem. Phys. 126, 124101 (2007)
I: K. A. Peterson, B. C. Shepler, D. Figgen, H. Stoll, J. Phys. Chem. A 110, 13877 (2006)
Hf-Pt: D. Figgen, K.A. Peterson, M. Dolg, H. Stoll, J. Chem. Phys. 130, 164108 (2009)
Ca, Sr, Ba, Ra: I.S. Lim, H. Stoll, P. Schwerdtfeger, J. Chem. Phys. 124, 034107 (2006)

ECP parameters for Rn [SK MCDHF RSC] have been obtained from:
cc-pVDZ-PP  EMSL  Basis Set Exchange Library   4/7/16 5:27 AM
Ca, Sr, Ba, Ra: http://www.tc.uni-koeln.de/PP/index.en.html 3/16/17 1:54 PM

================================================================================
                                        WARNINGS
                       Please study these warnings very carefully!
================================================================================


WARNING: MDCI localization with Augmented Hessian Foster-Boys
  ===> : Switching off randomization!

WARNING: Post HF methods need fully converged wavefunctions
  ===> : Setting SCFConvForced true
         You can overwrite this default with %scf ConvForced false 


INFO   : the flag for use of LIBINT has been found!

================================================================================
                                       INPUT FILE
================================================================================
NAME = 86_Rn.in
|  1> #
|  2> # 85_At CCSD(T)/aug-cc-pVQZ-PP
|  3> #
|  4> ! CCSD(T) aug-cc-pVQZ-PP tightscf slowconv
|  5> 
|  6> *xyz 0 1
|  7>  Rn 0.0 0.0 0.0
|  8> *
|  9> 
| 10> %maxcore 5000 
| 11> 
| 12> %pal
| 13> nprocs 24
| 14> end
| 15> 
| 16> 
| 17>                          ****END OF INPUT****
================================================================================

                       ****************************
                       * Single Point Calculation *
                       ****************************

---------------------------------
CARTESIAN COORDINATES (ANGSTROEM)
---------------------------------
  Rn     0.000000    0.000000    0.000000

----------------------------
CARTESIAN COORDINATES (A.U.)
----------------------------
  NO LB      ZA    FRAG     MASS         X           Y           Z
   0 Rn   26.0000*   0   222.000    0.000000    0.000000    0.000000
* core charge reduced due to ECP

--------------------------------
INTERNAL COORDINATES (ANGSTROEM)
--------------------------------
 Rn     0   0   0     0.000000000000     0.00000000     0.00000000

---------------------------
INTERNAL COORDINATES (A.U.)
---------------------------
 Rn     0   0   0     0.000000000000     0.00000000     0.00000000

---------------------
BASIS SET INFORMATION
---------------------
There are 1 groups of distinct atoms

 Group   1 Type Rn  : 25s19p12d3f2g contracted to 7s7p5d3f2g pattern {101011111/7711111/81111/111/11}

Atom   0Rn   basis set group =>   1
-------------------------
ECP PARAMETER INFORMATION
-------------------------

 Group 1, Type Rn ECP SK MCDHF RSC (replacing 60 core electrons, lmax=5)

Atom   0Rn   ECP group =>   1



           ************************************************************
           *        Program running with 24 parallel MPI-processes    *
           *              working on a common directory               *
           ************************************************************
------------------------------------------------------------------------------
                           ORCA GTO INTEGRAL CALCULATION
------------------------------------------------------------------------------

                         BASIS SET STATISTICS AND STARTUP INFO

 # of primitive gaussian shells          ...   61
 # of primitive gaussian functions       ...  181
 # of contracted shells                  ...   24
 # of contracted basis functions         ...   92
 Highest angular momentum                ...    4
 Maximum contraction depth               ...   10
 Integral package used                   ... LIBINT
 Integral threshhold            Thresh   ...  2.500e-11
 Primitive cut-off              TCut     ...  2.500e-12


------------------------------ INTEGRAL EVALUATION ----------------------------


 * One electron integrals 

   ECP integrals                         ... done
 Pre-screening matrix                    ... done
 Shell pair data                         ... done (   0.000 sec)



           ************************************************************
           *        Program running with 24 parallel MPI-processes    *
           *              working on a common directory               *
           ************************************************************
-------------------------------------------------------------------------------
                                 ORCA SCF
-------------------------------------------------------------------------------

------------
SCF SETTINGS
------------
Hamiltonian:
 Ab initio Hamiltonian  Method          .... Hartree-Fock(GTOs)


General Settings:
 Integral files         IntName         .... 86_Rn
 Hartree-Fock type      HFTyp           .... RHF
 Total Charge           Charge          ....    0
 Multiplicity           Mult            ....    1
 Number of Electrons    NEL             ....   26
 Basis Dimension        Dim             ....   92
 Nuclear Repulsion      ENuc            ....      0.0000000000 Eh

Convergence Acceleration:
 DIIS                   CNVDIIS         .... on
   Start iteration      DIISMaxIt       ....     0
   Startup error        DIISStart       ....  0.200000
   # of expansion vecs  DIISMaxEq       ....     5
   Bias factor          DIISBfac        ....   1.050
   Max. coefficient     DIISMaxC        ....  10.000
 Newton-Raphson         CNVNR           .... off
 SOSCF                  CNVSOSCF        .... on
   Start iteration      SOSCFMaxIt      ....   150
   Startup grad/error   SOSCFStart      ....  0.001000
 Level Shifting         CNVShift        .... on
   Level shift para.    LevelShift      ....    0.2500
   Turn off err/grad.   ShiftErr        ....    0.0000
 Zerner damping         CNVZerner       .... off
 Static damping         CNVDamp         .... on
   Fraction old density DampFac         ....    0.8500
   Max. Damping (<1)    DampMax         ....    0.9800
   Min. Damping (>=0)   DampMin         ....    0.0000
   Turn off err/grad.   DampErr         ....    0.0300
 Fernandez-Rico         CNVRico         .... off

SCF Procedure:
 Maximum # iterations   MaxIter         ....   125
 SCF integral mode      SCFMode         .... Direct
   Integral package                     .... LIBINT
 Reset frequency        DirectResetFreq ....    20
 Integral Threshold     Thresh          ....  2.500e-11 Eh
 Primitive CutOff       TCut            ....  2.500e-12 Eh

Convergence Tolerance:
 Convergence Check Mode ConvCheckMode   .... Total+1el-Energy
 Convergence forced     ConvForced      .... 1
 Energy Change          TolE            ....  1.000e-08 Eh
 1-El. energy change                    ....  1.000e-05 Eh
 Orbital Gradient       TolG            ....  1.000e-05
 Orbital Rotation angle TolX            ....  1.000e-05
 DIIS Error             TolErr          ....  5.000e-07


Diagonalization of the overlap matrix:
Smallest eigenvalue                        ... 9.490e-04
Time for diagonalization                   ...    0.003 sec
Threshold for overlap eigenvalues          ... 1.000e-08
Number of eigenvalues below threshold      ... 0
Time for construction of square roots      ...    0.001 sec
Total time needed                          ...    0.005 sec

-------------------
DFT GRID GENERATION
-------------------

General Integration Accuracy     IntAcc      ...  4.340
Radial Grid Type                 RadialGrid  ... Gauss-Chebyshev
Angular Grid (max. acc.)         AngularGrid ... Lebedev-110
Angular grid pruning method      GridPruning ... 3 (G Style)
Weight generation scheme         WeightScheme... Becke
Basis function cutoff            BFCut       ...    1.0000e-11
Integration weight cutoff        WCut        ...    1.0000e-14
Grids for H and He will be reduced by one unit

# of grid points (after initial pruning)     ...   3552 (   0.0 sec)
# of grid points (after weights+screening)   ...   3552 (   0.0 sec)
Grid point division into batches done        ...    0.0 sec
Reduced shell lists constructed in    0.0 sec

Total number of grid points                  ...     3552
Total number of batches                      ...       56
Average number of points per batch           ...       63
Average number of grid points per atom       ...     3552
Average number of shells per batch           ...     7.75 (32.29%)
Average number of basis functions per batch  ...    30.25 (32.88%)
Average number of large shells per batch     ...     5.00 (64.52%)
Average number of large basis fcns per batch ...    17.00 (56.20%)
Maximum spatial batch extension              ...  24.96, 38.92, 38.92 au
Average spatial batch extension              ...   1.30,  1.85,  2.08 au

Time for grid setup =    0.023 sec

------------------------------
INITIAL GUESS: MODEL POTENTIAL
------------------------------
Loading Hartree-Fock densities                     ... done
  calling /sw/apps/orca/orca_4_2_0_linux_x86-64_openmpi314/orca 86_Rn_atom86.inp > 86_Rn_atom86.out in order to generate an atomic fitting density for atom 0 (Rn with ECP) on-the-fly... 
    atom 0 (Rn), assumed electronic state with S=1: 1s2 2s2 2p6 3s2 3p6 4s2 3d10 4p6 5s2 4d10 5p6 6s2 4f14 5d10 6p6           ... done
Calculating cut-offs                               ... done
Setting up the integral package                    ... done
Initializing the effective Hamiltonian             ... done
Starting the Coulomb interaction                   ... done (   0.0 sec)
Reading the grid                                   ... done
Mapping shells                                     ... done
Starting the XC term evaluation                    ... done (   0.0 sec)
Transforming the Hamiltonian                       ... done (   0.0 sec)
Diagonalizing the Hamiltonian                      ... done (   0.0 sec)
Back transforming the eigenvectors                 ... done (   0.0 sec)
Now organizing SCF variables                       ... done
                      ------------------
                      INITIAL GUESS DONE (   1.2 sec)
                      ------------------
--------------
SCF ITERATIONS
--------------
ITER       Energy         Delta-E        Max-DP      RMS-DP      [F,P]     Damp
               ***  Starting incremental Fock matrix formation  ***
  0   -278.0307702343   0.000000000000 2.55704276  0.06147078  1.5144032 0.8500
  1   -279.9052731119  -1.874502877556 2.18240541  0.05242327  1.2042209 0.8500
                               ***Turning on DIIS***
  2   -281.2396136019  -1.334340490022 1.86627237  0.04447245  0.9280017 0.8500
  3   -288.0243913743  -6.784777772375 1.59670220  0.03732794  0.7105164 0.8500
  4   -289.4437623989  -1.419371024618 1.35609939  0.03146943  0.5779462 0.8500
  5   -289.3538713970   0.089891001933 1.15242607  0.02671021  0.4849668 0.8500
  6   -289.0525855839   0.301285813089 0.97981073  0.02272490  0.4116313 0.8500
  7   -288.3580993638   0.694486220088 0.83360700  0.01939246  0.3509571 0.8500
  8   -288.0440869619   0.314012401838 0.70884744  0.01651925  0.2984992 0.8500
  9   -287.9093521532   0.134734808728 0.60258012  0.01405351  0.2533556 0.8500
 10   -287.8321860867   0.077166066543 0.51219055  0.01194911  0.2147575 0.8500
 11   -287.7734670893   0.058718997376 0.43535003  0.01015785  0.1818654 0.8500
 12   -287.7229704000   0.050496689293 0.37004128  0.00863486  0.1538788 0.8500
 13   -287.6816971675   0.041273232539 0.31453192  0.00734008  0.1300890 0.8500
 14   -287.6491221165   0.032575050944 0.26735004  0.00623933  0.1098887 0.8500
 15   -287.6237340889   0.025388027585 0.22724593  0.00530358  0.0927566 0.8500
 16   -287.6040010270   0.019733061947 0.19315784  0.00450814  0.0782434 0.8500
 17   -287.5886644251   0.015336601915 0.16418334  0.00383200  0.0659620 0.8500
 18   -287.5767580193   0.011906405802 0.13955533  0.00325727  0.0555791 0.8500
 19   -287.5675401842   0.009217835047 0.11862178  0.00276876  0.0468089 0.8500
               *** Restarting incremental Fock matrix formation ***
                                   *** Resetting DIIS ***
 20   -287.2125898635   0.354950320776 0.10101753  0.00237694  0.0394066 0.8500
 21   -287.4005388119  -0.187948948458 0.08571100  0.00200107  0.0303064 0.8500
 22   -287.4857320961  -0.085193284217 0.48520527  0.01128374  0.0240243 0.0000
 23   -287.5015675983  -0.015835502207 0.00627236  0.00014753  0.0056252 0.0000
 24   -287.5335907076  -0.032023109308 0.00515291  0.00010831  0.0013456 0.0000
                      *** Initiating the SOSCF procedure ***
                           *** Shutting down DIIS ***
                      *** Re-Reading the Fockian *** 
                      *** Removing any level shift *** 
ITER      Energy       Delta-E        Grad      Rot      Max-DP    RMS-DP
 25   -287.54149361  -0.0079029003  0.000361  0.000361  0.001655  0.000038
               *** Restarting incremental Fock matrix formation ***
 26   -287.54349701  -0.0020034000  0.000141  0.000287  0.000358  0.000014
 27   -287.54349734  -0.0000003280  0.000033  0.000095  0.000222  0.000007
 28   -287.54349736  -0.0000000237  0.000007  0.000003  0.000034  0.000001
                  ***Gradient check signals convergence***
              ***Rediagonalizing the Fockian in SOSCF/NRSCF***

               *****************************************************
               *                     SUCCESS                       *
               *           SCF CONVERGED AFTER  29 CYCLES          *
               *****************************************************


----------------
TOTAL SCF ENERGY
----------------

Total Energy       :         -287.54349736 Eh           -7824.45635 eV

Components:
Nuclear Repulsion  :            0.00000000 Eh               0.00000 eV
Electronic Energy  :         -287.54349736 Eh           -7824.45635 eV
One Electron Energy:         -499.63015988 Eh          -13595.62784 eV
Two Electron Energy:          212.08666252 Eh            5771.17149 eV

Virial components:
Potential Energy   :         -377.61370841 Eh          -10275.39140 eV
Kinetic Energy     :           90.07021105 Eh            2450.93505 eV
Virial Ratio       :            4.19243726


---------------
SCF CONVERGENCE
---------------

  Last Energy change         ...   -3.2418e-10  Tolerance :   1.0000e-08
  Last MAX-Density change    ...    9.4527e-06  Tolerance :   1.0000e-07
  Last RMS-Density change    ...    2.1599e-07  Tolerance :   5.0000e-09
  Last Orbital Gradient      ...    2.2722e-06  Tolerance :   1.0000e-05
  Last Orbital Rotation      ...    1.3963e-06  Tolerance :   1.0000e-05

             **** THE GBW FILE WAS UPDATED (86_Rn.gbw) ****
             **** DENSITY FILE WAS UPDATED (86_Rn.scfp) ****
             **** ENERGY FILE WAS UPDATED (86_Rn.en.tmp) ****
             **** THE GBW FILE WAS UPDATED (86_Rn.gbw) ****
             **** DENSITY FILE WAS UPDATED (86_Rn.scfp) ****
----------------
ORBITAL ENERGIES
----------------

  NO   OCC          E(Eh)            E(eV) 
   0   2.0000      -8.326228      -226.5682 
   1   2.0000      -5.537246      -150.6761 
   2   2.0000      -5.537246      -150.6761 
   3   2.0000      -5.537246      -150.6761 
   4   2.0000      -2.087476       -56.8031 
   5   2.0000      -2.087476       -56.8031 
   6   2.0000      -2.087476       -56.8031 
   7   2.0000      -2.087476       -56.8031 
   8   2.0000      -2.087476       -56.8031 
   9   2.0000      -1.070702       -29.1353 
  10   2.0000      -0.427442       -11.6313 
  11   2.0000      -0.427442       -11.6313 
  12   2.0000      -0.427442       -11.6313 
  13   0.0000       0.050234         1.3669 
  14   0.0000       0.061692         1.6787 
  15   0.0000       0.061692         1.6787 
  16   0.0000       0.061692         1.6787 
  17   0.0000       0.158406         4.3104 
  18   0.0000       0.158406         4.3104 
  19   0.0000       0.158406         4.3104 
  20   0.0000       0.158406         4.3104 
  21   0.0000       0.158406         4.3104 
  22   0.0000       0.275749         7.5035 
  23   0.0000       0.275749         7.5035 
  24   0.0000       0.275749         7.5035 
  25   0.0000       0.296931         8.0799 
  26   0.0000       0.441760        12.0209 
  27   0.0000       0.441760        12.0209 
  28   0.0000       0.441760        12.0209 
  29   0.0000       0.441760        12.0209 
  30   0.0000       0.441760        12.0209 
  31   0.0000       0.506104        13.7718 
  32   0.0000       0.506104        13.7718 
  33   0.0000       0.506104        13.7718 
  34   0.0000       0.506104        13.7718 
  35   0.0000       0.506104        13.7718 
  36   0.0000       0.506104        13.7718 
  37   0.0000       0.506104        13.7718 
  38   0.0000       0.932699        25.3800 
  39   0.0000       0.932699        25.3800 
  40   0.0000       0.932699        25.3800 
  41   0.0000       1.084838        29.5200 
  42   0.0000       1.110353        30.2142 
  43   0.0000       1.110353        30.2142 
  44   0.0000       1.110353        30.2142 
  45   0.0000       1.110353        30.2142 
  46   0.0000       1.110353        30.2142 
  47   0.0000       1.110353        30.2142 
  48   0.0000       1.110353        30.2142 
  49   0.0000       1.147465        31.2241 
  50   0.0000       1.147465        31.2241 
  51   0.0000       1.147465        31.2241 
  52   0.0000       1.147465        31.2241 
  53   0.0000       1.147465        31.2241 
  54   0.0000       1.147465        31.2241 
  55   0.0000       1.147465        31.2241 
  56   0.0000       1.147465        31.2241 
  57   0.0000       1.147465        31.2241 
  58   0.0000       1.270913        34.5833 
  59   0.0000       1.270913        34.5833 
  60   0.0000       1.270913        34.5833 
  61   0.0000       1.270913        34.5833 
  62   0.0000       1.270913        34.5833 
  63   0.0000       2.070517        56.3416 
  64   0.0000       2.070517        56.3416 
  65   0.0000       2.070517        56.3416 
  66   0.0000       2.070517        56.3416 
  67   0.0000       2.070517        56.3416 
  68   0.0000       2.070517        56.3416 
  69   0.0000       2.070517        56.3416 
  70   0.0000       2.515046        68.4379 
  71   0.0000       2.515046        68.4379 
  72   0.0000       2.515046        68.4379 
  73   0.0000       2.515046        68.4379 
  74   0.0000       2.515046        68.4379 
  75   0.0000       2.515046        68.4379 
  76   0.0000       2.515046        68.4379 
  77   0.0000       2.515046        68.4379 
  78   0.0000       2.515046        68.4379 
  79   0.0000       2.997555        81.5676 
  80   0.0000       2.997555        81.5676 
  81   0.0000       2.997555        81.5676 
  82   0.0000       3.386317        92.1464 
  83   0.0000       3.386317        92.1464 
  84   0.0000       3.386317        92.1464 
  85   0.0000       3.386317        92.1464 
  86   0.0000       3.386317        92.1464 
  87   0.0000       3.547708        96.5380 
  88   0.0000      33.886456       922.0973 
  89   0.0000      33.886456       922.0973 
  90   0.0000      33.886456       922.0973 
  91   0.0000      61.838829      1682.7201 

                    ********************************
                    * MULLIKEN POPULATION ANALYSIS *
                    ********************************

-----------------------
MULLIKEN ATOMIC CHARGES
-----------------------
   0 Rn:   -0.000000
Sum of atomic charges:   -0.0000000

--------------------------------
MULLIKEN REDUCED ORBITAL CHARGES
--------------------------------
  0 Rns       :     4.000000  s :     4.000000
      pz      :     4.000000  p :    12.000000
      px      :     4.000000
      py      :     4.000000
      dz2     :     2.000000  d :    10.000000
      dxz     :     2.000000
      dyz     :     2.000000
      dx2y2   :     2.000000
      dxy     :     2.000000
      f0      :     0.000000  f :     0.000000
      f+1     :     0.000000
      f-1     :     0.000000
      f+2     :     0.000000
      f-2     :     0.000000
      f+3     :     0.000000
      f-3     :     0.000000
      g0      :     0.000000  g :     0.000000
      g+1     :     0.000000
      g-1     :     0.000000
      g+2     :     0.000000
      g-2     :     0.000000
      g+3     :     0.000000
      g-3     :     0.000000
      g+4     :     0.000000
      g-4     :     0.000000


                     *******************************
                     * LOEWDIN POPULATION ANALYSIS *
                     *******************************

----------------------
LOEWDIN ATOMIC CHARGES
----------------------
   0 Rn:   -0.000000

-------------------------------
LOEWDIN REDUCED ORBITAL CHARGES
-------------------------------
  0 Rns       :     4.000000  s :     4.000000
      pz      :     4.000000  p :    12.000000
      px      :     4.000000
      py      :     4.000000
      dz2     :     2.000000  d :    10.000000
      dxz     :     2.000000
      dyz     :     2.000000
      dx2y2   :     2.000000
      dxy     :     2.000000
      f0      :     0.000000  f :     0.000000
      f+1     :     0.000000
      f-1     :     0.000000
      f+2     :     0.000000
      f-2     :     0.000000
      f+3     :     0.000000
      f-3     :     0.000000
      g0      :     0.000000  g :     0.000000
      g+1     :     0.000000
      g-1     :     0.000000
      g+2     :     0.000000
      g-2     :     0.000000
      g+3     :     0.000000
      g-3     :     0.000000
      g+4     :     0.000000
      g-4     :     0.000000


                      *****************************
                      * MAYER POPULATION ANALYSIS *
                      *****************************

  NA   - Mulliken gross atomic population
  ZA   - Total nuclear charge
  QA   - Mulliken gross atomic charge
  VA   - Mayer's total valence
  BVA  - Mayer's bonded valence
  FA   - Mayer's free valence

  ATOM       NA         ZA         QA         VA         BVA        FA
  0 Rn    26.0000    26.0000    -0.0000    -0.0000     0.0000    -0.0000

  Mayer bond orders larger than 0.100000


--------------------------
ATOM BASIS FOR ELEMENT Rn
--------------------------
 NewGTO Rn
 S 25
    1      12715.600000000000         0.000047000720
    2       1913.300000000000         0.000338005174
    3        429.956000000000         0.001280019596
    4        100.978000000000         0.002782042590
    5         24.470800000000        -0.100422537361
    6         15.292200000000         0.539832264253
    7          9.554830000000        -0.573864785255
    8          5.966610000000        -0.610009338589
    9          2.389390000000         0.793265144039
   10          1.318800000000         0.651606975404
   11      12715.600000000000        -0.000000001137
   12       1913.300000000000        -0.000000007922
   13        429.956000000000        -0.000000031240
   14        100.978000000000        -0.000000060814
   15         24.470800000000         0.000002014671
   16         15.292200000000        -0.000011763032
   17          9.554830000000         0.000014951170
   18          5.966610000000         0.000011104881
   19          2.389390000000        -0.000023475893
   20          1.318800000000        -0.000025580384
   21          0.625723000000         0.084251837044
   22          0.356911000000        -0.007725596726
   23          0.177530000000         0.002425706243
   24          0.083434000000        -0.000498456119
   25          0.032000000000         0.000085950449
 S 25
    1      12715.600000000000        -0.000000001218
    2       1913.300000000000        -0.000000008760
    3        429.956000000000        -0.000000033176
    4        100.978000000000        -0.000000072105
    5         24.470800000000         0.000002602754
    6         15.292200000000        -0.000013991386
    7          9.554830000000         0.000014873442
    8          5.966610000000         0.000015810237
    9          2.389390000000        -0.000020559865
   10          1.318800000000        -0.000016888365
   11      12715.600000000000         0.000028001593
   12       1913.300000000000         0.000195011091
   13        429.956000000000         0.000769043737
   14        100.978000000000         0.001497085142
   15         24.470800000000        -0.049595820614
   16         15.292200000000         0.289574468683
   17          9.554830000000        -0.368057932196
   18          5.966610000000        -0.273372547247
   19          2.389390000000         0.577913867126
   20          1.318800000000         0.629720813491
   21          0.625723000000        -0.097173958947
   22          0.356911000000        -0.661591998900
   23          0.177530000000        -0.517336708559
   24          0.083434000000        -0.093809084765
   25          0.032000000000        -0.000176067628
 S 25
    1      12715.600000000000        -0.000000661633
    2       1913.300000000000        -0.000004758123
    3        429.956000000000        -0.000018018929
    4        100.978000000000        -0.000039163016
    5         24.470800000000         0.001413655378
    6         15.292200000000        -0.007599258129
    7          9.554830000000         0.008078336407
    8          5.966610000000         0.008587145919
    9          2.389390000000        -0.011166851249
   10          1.318800000000        -0.009172718884
   11      12715.600000000000        -0.000004897799
   12       1913.300000000000        -0.000034109670
   13        429.956000000000        -0.000134514545
   14        100.978000000000        -0.000261857314
   15         24.470800000000         0.008674876260
   16         15.292200000000        -0.050649886479
   17          9.554830000000         0.064377541874
   18          5.966610000000         0.047815985116
   19          2.389390000000        -0.101083745047
   20          1.318800000000        -0.110145372490
   21          0.625723000000        -0.250336100943
   22          0.356911000000         0.891707632013
   23          0.177530000000        -1.015100718703
   24          0.083434000000         1.797949262248
   25          0.032000000000        -1.942760634268
 S 25
    1      12715.600000000000        -0.000008668809
    2       1913.300000000000        -0.000062341646
    3        429.956000000000        -0.000236086705
    4        100.978000000000        -0.000513119698
    5         24.470800000000         0.018521924222
    6         15.292200000000        -0.099566616758
    7          9.554830000000         0.105843572028
    8          5.966610000000         0.112510070361
    9          2.389390000000        -0.146309755482
   10          1.318800000000        -0.120182334946
   11      12715.600000000000         0.000023338245
   12       1913.300000000000         0.000162534206
   13        429.956000000000         0.000640968227
   14        100.978000000000         0.001247762595
   15         24.470800000000        -0.041336199305
   16         15.292200000000         0.241349125850
   17          9.554830000000        -0.306762058829
   18          5.966610000000        -0.227845450635
   19          2.389390000000         0.481668868397
   20          1.318800000000         0.524847955542
   21          0.625723000000        -1.165172586429
   22          0.356911000000         2.441933354161
   23          0.177530000000        -5.594287502444
   24          0.083434000000         5.921977113632
   25          0.032000000000        -2.098902680718
 S 25
    1      12715.600000000000        -0.000012367044
    2       1913.300000000000        -0.000088937463
    3        429.956000000000        -0.000336804592
    4        100.978000000000        -0.000732023731
    5         24.470800000000         0.026423635924
    6         15.292200000000        -0.142043126825
    7          9.554830000000         0.150997918928
    8          5.966610000000         0.160508438608
    9          2.389390000000        -0.208727541723
   10          1.318800000000        -0.171453798478
   11      12715.600000000000        -0.000006280159
   12       1913.300000000000        -0.000043736820
   13        429.956000000000        -0.000172480074
   14        100.978000000000        -0.000335764202
   15         24.470800000000         0.011123282608
   16         15.292200000000        -0.064945364577
   17          9.554830000000         0.082547528104
   18          5.966610000000         0.061311619864
   19          2.389390000000        -0.129613729294
   20          1.318800000000        -0.141232920153
   21          0.625723000000        -3.816957880496
   22          0.356911000000        11.253138467218
   23          0.177530000000       -11.968135594011
   24          0.083434000000         6.069777732450
   25          0.032000000000        -1.314429830343
 S 25
    1      12715.600000000000        -0.000136004828
    2       1913.300000000000        -0.000978077275
    3        429.956000000000        -0.003703961277
    4        100.978000000000        -0.008050328337
    5         24.470800000000         0.290590230743
    6         15.292200000000        -1.562099368863
    7          9.554830000000         1.660578439303
    8          5.966610000000         1.765169045849
    9          2.389390000000        -2.295451870699
   10          1.318800000000        -1.885539106177
   11      12715.600000000000         0.000209955315
   12       1913.300000000000         0.001462188804
   13        429.956000000000         0.005766272771
   14        100.978000000000         0.011225110973
   15         24.470800000000        -0.371868355708
   16         15.292200000000         2.171222901257
   17          9.554830000000        -2.759690158483
   18          5.966610000000        -2.049741256049
   19          2.389390000000         4.333185273422
   20          1.318800000000         4.721632600647
   21          0.625723000000       -14.650887329583
   22          0.356911000000        18.146875757468
   23          0.177530000000       -10.573680932698
   24          0.083434000000         3.901953351743
   25          0.032000000000        -0.751760950181
 S 25
    1      12715.600000000000         0.000213667706
    2       1913.300000000000         0.001536589033
    3        429.956000000000         0.005819035392
    4        100.978000000000         0.012647309736
    5         24.470800000000        -0.456526057143
    6         15.292200000000         2.454105438814
    7          9.554830000000        -2.608819042310
    8          5.966610000000        -2.773134054204
    9          2.389390000000         3.606224439179
   10          1.318800000000         2.962239066094
   11      12715.600000000000        -0.000091606049
   12       1913.300000000000        -0.000637970700
   13        429.956000000000        -0.002515894709
   14        100.978000000000        -0.004897651989
   15         24.470800000000         0.162250671413
   16         15.292200000000        -0.947330871556
   17          9.554830000000         1.204086269330
   18          5.966610000000         0.894326957141
   19          2.389390000000        -1.890621262011
   20          1.318800000000        -2.060105539669
   21          0.625723000000        -3.887153419748
   22          0.356911000000         4.178526963777
   23          0.177530000000        -2.296977632693
   24          0.083434000000         0.864666271871
   25          0.032000000000        -0.174590942103
 P 19
    1        131.708000000000        -0.000585008247
    2         21.401600000000         0.014438203531
    3         13.382600000000        -0.170097397813
    4          8.368800000000         0.422509955998
    5          5.229450000000         0.001719024233
    6          2.476850000000        -0.601166474467
    7          1.301800000000        -0.492786946672
    8        131.708000000000         0.000000010147
    9         21.401600000000        -0.000000189329
   10         13.382600000000         0.000002833863
   11          8.368800000000        -0.000007906500
   12          5.229450000000         0.000001026522
   13          2.476850000000         0.000012573290
   14          1.301800000000         0.000012144720
   15          0.645710000000        -0.102083505450
   16          0.312897000000        -0.003103344818
   17          0.142853000000        -0.001288904542
   18          0.062556000000         0.000319350174
   19          0.025500000000        -0.000084780794
 P 19
    1        131.708000000000         0.000000015878
    2         21.401600000000        -0.000000391879
    3         13.382600000000         0.000004616753
    4          8.368800000000        -0.000011467689
    5          5.229450000000        -0.000000046657
    6          2.476850000000         0.000016316752
    7          1.301800000000         0.000013375135
    8        131.708000000000        -0.000234027536
    9         21.401600000000         0.004366513763
   10         13.382600000000        -0.065357689973
   11          8.368800000000         0.182348455085
   12          5.229450000000        -0.023674785571
   13          2.476850000000        -0.289979118888
   14          1.301800000000        -0.280094955919
   15          0.645710000000         0.127188327776
   16          0.312897000000         0.494393736091
   17          0.142853000000         0.456468045959
   18          0.062556000000         0.132805623329
   19          0.025500000000         0.001026609999
 P 19
    1        131.708000000000        -0.000004428977
    2         21.401600000000         0.000109308675
    3         13.382600000000        -0.001287772485
    4          8.368800000000         0.003198736154
    5          5.229450000000         0.000013014380
    6          2.476850000000        -0.004551307985
    7          1.301800000000        -0.003730788826
    8        131.708000000000        -0.000030572410
    9         21.401600000000         0.000570423688
   10         13.382600000000        -0.008538064134
   11          8.368800000000         0.023821264259
   12          5.229450000000        -0.003092778182
   13          2.476850000000        -0.037881698628
   14          1.301800000000        -0.036590471576
   15          0.645710000000        -0.040896770935
   16          0.312897000000         0.274310537419
   17          0.142853000000        -0.329104579041
   18          0.062556000000         0.986122423437
   19          0.025500000000        -1.549470898389
 P 19
    1        131.708000000000         0.000036824420
    2         21.401600000000        -0.000908839268
    3         13.382600000000         0.010707093452
    4          8.368800000000        -0.026595666021
    5          5.229450000000        -0.000108207141
    6          2.476850000000         0.037841529060
    7          1.301800000000         0.031019380413
    8        131.708000000000        -0.000157059036
    9         21.401600000000         0.002930426294
   10         13.382600000000        -0.043862427469
   11          8.368800000000         0.122376508236
   12          5.229450000000        -0.015888467989
   13          2.476850000000        -0.194608898740
   14          1.301800000000        -0.187975503626
   15          0.645710000000         0.311488041388
   16          0.312897000000        -0.467641916725
   17          0.142853000000         2.127498236622
   18          0.062556000000        -3.120022871254
   19          0.025500000000         1.311292133587
 P 19
    1        131.708000000000        -0.000036520933
    2         21.401600000000         0.000901349102
    3         13.382600000000        -0.010618851333
    4          8.368800000000         0.026376478812
    5          5.229450000000         0.000107315356
    6          2.476850000000        -0.037529659482
    7          1.301800000000        -0.030763735324
    8        131.708000000000        -0.000142788915
    9         21.401600000000         0.002664172660
   10         13.382600000000        -0.039877160637
   11          8.368800000000         0.111257583282
   12          5.229450000000        -0.014444868349
   13          2.476850000000        -0.176927059539
   14          1.301800000000        -0.170896363616
   15          0.645710000000        -0.738684183649
   16          0.312897000000         3.647324647230
   17          0.142853000000        -4.575014676759
   18          0.062556000000         2.603584676575
   19          0.025500000000        -0.742679780193
 P 19
    1        131.708000000000         0.000888214398
    2         21.401600000000        -0.021921435004
    3         13.382600000000         0.258257825667
    4          8.368800000000        -0.641494249540
    5          5.229450000000        -0.002609983846
    6          2.476850000000         0.912747335090
    7          1.301800000000         0.748195369247
    8        131.708000000000        -0.001524993029
    9         21.401600000000         0.028453502409
   10         13.382600000000        -0.425890147136
   11          8.368800000000         1.188236769042
   12          5.229450000000        -0.154271944346
   13          2.476850000000        -1.889590186862
   14          1.301800000000        -1.825182041121
   15          0.645710000000         4.880141037874
   16          0.312897000000        -5.469804027068
   17          0.142853000000         3.370551989131
   18          0.062556000000        -1.448517008624
   19          0.025500000000         0.388316219055
 P 19
    1        131.708000000000        -0.010719464244
    2         21.401600000000         0.264560042304
    3         13.382600000000        -3.116798752996
    4          8.368800000000         7.741908582473
    5          5.229450000000         0.031498733393
    6          2.476850000000       -11.015541343094
    7          1.301800000000        -9.029636905855
    8        131.708000000000         0.007631780530
    9         21.401600000000        -0.142394674324
   10         13.382600000000         2.131354092325
   11          8.368800000000        -5.946494224809
   12          5.229450000000         0.772049182456
   13          2.476850000000         9.456395750559
   14          1.301800000000         9.134067173750
   15          0.645710000000         0.993455249638
   16          0.312897000000        -0.986582068920
   17          0.142853000000         0.591789480974
   18          0.062556000000        -0.265280471575
   19          0.025500000000         0.074573987332
 D 12
    1        183.730000000000        -0.000128999152
    2         54.689700000000        -0.000948993759
    3         16.425500000000        -0.010099933581
    4          7.305000000000         0.087308425842
    5          4.274770000000        -0.071451530120
    6          2.611420000000        -0.295376057547
    7          1.566740000000        -0.358728640927
    8          0.960979000000        -0.256118315714
    9          0.596535000000        -0.137050796219
   10          0.342028000000        -0.051385796792
   11          0.151600000000        -0.005698520966
   12          0.059700000000         0.000058633834
 D 12
    1        183.730000000000        -0.000012266081
    2         54.689700000000        -0.000090236516
    3         16.425500000000        -0.000960367557
    4          7.305000000000         0.008301854562
    5          4.274770000000        -0.006794077497
    6          2.611420000000        -0.028086282019
    7          1.566740000000        -0.034110258837
    8          0.960979000000        -0.024353399883
    9          0.596535000000        -0.095421404924
   10          0.342028000000         0.262270432482
   11          0.151600000000        -0.278721783181
   12          0.059700000000         1.122510256726
 D 12
    1        183.730000000000        -0.000044660337
    2         54.689700000000        -0.000328547749
    3         16.425500000000        -0.003496662025
    4          7.305000000000         0.030226739083
    5          4.274770000000        -0.024736979704
    6          2.611420000000        -0.102261092635
    7          1.566740000000        -0.124194164840
    8          0.960979000000        -0.088669809687
    9          0.596535000000         0.286097111119
   10          0.342028000000        -0.508455887355
   11          0.151600000000         1.729715366378
   12          0.059700000000        -1.016864519335
 D 12
    1        183.730000000000        -0.000053631071
    2         54.689700000000        -0.000394541755
    3         16.425500000000        -0.004199021836
    4          7.305000000000         0.036298257179
    5          4.274770000000        -0.029705792896
    6          2.611420000000        -0.122801848710
    7          1.566740000000        -0.149140524986
    8          0.960979000000        -0.106480541853
    9          0.596535000000        -0.945326796867
   10          0.342028000000         2.894066802044
   11          0.151600000000        -2.141440419275
   12          0.059700000000         0.670133647138
 D 12
    1        183.730000000000        -0.000211153520
    2         54.689700000000        -0.001553369691
    3         16.425500000000        -0.016532174799
    4          7.305000000000         0.142911648466
    5          4.274770000000        -0.116956134032
    6          2.611420000000        -0.483489180961
    7          1.566740000000        -0.587188475023
    8          0.960979000000        -0.419229763312
    9          0.596535000000         4.048999505488
   10          0.342028000000        -3.880424907399
   11          0.151600000000         1.490452313330
   12          0.059700000000        -0.385486273267
 F 3
    1          0.594000000000         0.263537475652
    2          0.268400000000        -0.617332870558
    3          0.153300000000         1.394772428434
 F 3
    1          0.594000000000         0.207908455358
    2          0.268400000000         1.541375109652
    3          0.153300000000        -1.245678598888
 F 3
    1          0.594000000000         1.665285031633
    2          0.268400000000        -2.370528345389
    3          0.153300000000         1.184266178227
 G 2
    1          0.476300000000         0.291960562697
    2          0.249100000000        -1.201152117946
 G 2
    1          0.476300000000         1.490900531305
    2          0.249100000000        -0.930192965985
 end
  // -----------------------------------------------
  // The basis set
  // -----------------------------------------------
  BAS[ATNO] = new BFNGauss[NSH];
  // Basis function   1 L = s
  InitBFNGauss(BAS[ATNO][  0]);
  BAS[ATNO][  0].l  = 0;
  BAS[ATNO][  0].ng = 25;
  BAS[ATNO][  0].a[  0] =     12715.600000000000;     BAS[ATNO][  0].d[  0] =         0.000047000720;
  BAS[ATNO][  0].a[  1] =      1913.300000000000;     BAS[ATNO][  0].d[  1] =         0.000338005174;
  BAS[ATNO][  0].a[  2] =       429.956000000000;     BAS[ATNO][  0].d[  2] =         0.001280019596;
  BAS[ATNO][  0].a[  3] =       100.978000000000;     BAS[ATNO][  0].d[  3] =         0.002782042590;
  BAS[ATNO][  0].a[  4] =        24.470800000000;     BAS[ATNO][  0].d[  4] =        -0.100422537361;
  BAS[ATNO][  0].a[  5] =        15.292200000000;     BAS[ATNO][  0].d[  5] =         0.539832264253;
  BAS[ATNO][  0].a[  6] =         9.554830000000;     BAS[ATNO][  0].d[  6] =        -0.573864785255;
  BAS[ATNO][  0].a[  7] =         5.966610000000;     BAS[ATNO][  0].d[  7] =        -0.610009338589;
  BAS[ATNO][  0].a[  8] =         2.389390000000;     BAS[ATNO][  0].d[  8] =         0.793265144039;
  BAS[ATNO][  0].a[  9] =         1.318800000000;     BAS[ATNO][  0].d[  9] =         0.651606975404;
  BAS[ATNO][  0].a[ 10] =     12715.600000000000;     BAS[ATNO][  0].d[ 10] =        -0.000000001137;
  BAS[ATNO][  0].a[ 11] =      1913.300000000000;     BAS[ATNO][  0].d[ 11] =        -0.000000007922;
  BAS[ATNO][  0].a[ 12] =       429.956000000000;     BAS[ATNO][  0].d[ 12] =        -0.000000031240;
  BAS[ATNO][  0].a[ 13] =       100.978000000000;     BAS[ATNO][  0].d[ 13] =        -0.000000060814;
  BAS[ATNO][  0].a[ 14] =        24.470800000000;     BAS[ATNO][  0].d[ 14] =         0.000002014671;
  BAS[ATNO][  0].a[ 15] =        15.292200000000;     BAS[ATNO][  0].d[ 15] =        -0.000011763032;
  BAS[ATNO][  0].a[ 16] =         9.554830000000;     BAS[ATNO][  0].d[ 16] =         0.000014951170;
  BAS[ATNO][  0].a[ 17] =         5.966610000000;     BAS[ATNO][  0].d[ 17] =         0.000011104881;
  BAS[ATNO][  0].a[ 18] =         2.389390000000;     BAS[ATNO][  0].d[ 18] =        -0.000023475893;
  BAS[ATNO][  0].a[ 19] =         1.318800000000;     BAS[ATNO][  0].d[ 19] =        -0.000025580384;
  BAS[ATNO][  0].a[ 20] =         0.625723000000;     BAS[ATNO][  0].d[ 20] =         0.084251837044;
  BAS[ATNO][  0].a[ 21] =         0.356911000000;     BAS[ATNO][  0].d[ 21] =        -0.007725596726;
  BAS[ATNO][  0].a[ 22] =         0.177530000000;     BAS[ATNO][  0].d[ 22] =         0.002425706243;
  BAS[ATNO][  0].a[ 23] =         0.083434000000;     BAS[ATNO][  0].d[ 23] =        -0.000498456119;
  BAS[ATNO][  0].a[ 24] =         0.032000000000;     BAS[ATNO][  0].d[ 24] =         0.000085950449;

  // Basis function   2 L = s
  InitBFNGauss(BAS[ATNO][  1]);
  BAS[ATNO][  1].l  = 0;
  BAS[ATNO][  1].ng = 25;
  BAS[ATNO][  1].a[  0] =     12715.600000000000;     BAS[ATNO][  1].d[  0] =         0.000000001218;
  BAS[ATNO][  1].a[  1] =      1913.300000000000;     BAS[ATNO][  1].d[  1] =         0.000000008760;
  BAS[ATNO][  1].a[  2] =       429.956000000000;     BAS[ATNO][  1].d[  2] =         0.000000033176;
  BAS[ATNO][  1].a[  3] =       100.978000000000;     BAS[ATNO][  1].d[  3] =         0.000000072105;
  BAS[ATNO][  1].a[  4] =        24.470800000000;     BAS[ATNO][  1].d[  4] =        -0.000002602754;
  BAS[ATNO][  1].a[  5] =        15.292200000000;     BAS[ATNO][  1].d[  5] =         0.000013991386;
  BAS[ATNO][  1].a[  6] =         9.554830000000;     BAS[ATNO][  1].d[  6] =        -0.000014873442;
  BAS[ATNO][  1].a[  7] =         5.966610000000;     BAS[ATNO][  1].d[  7] =        -0.000015810237;
  BAS[ATNO][  1].a[  8] =         2.389390000000;     BAS[ATNO][  1].d[  8] =         0.000020559865;
  BAS[ATNO][  1].a[  9] =         1.318800000000;     BAS[ATNO][  1].d[  9] =         0.000016888365;
  BAS[ATNO][  1].a[ 10] =     12715.600000000000;     BAS[ATNO][  1].d[ 10] =        -0.000028001593;
  BAS[ATNO][  1].a[ 11] =      1913.300000000000;     BAS[ATNO][  1].d[ 11] =        -0.000195011091;
  BAS[ATNO][  1].a[ 12] =       429.956000000000;     BAS[ATNO][  1].d[ 12] =        -0.000769043737;
  BAS[ATNO][  1].a[ 13] =       100.978000000000;     BAS[ATNO][  1].d[ 13] =        -0.001497085142;
  BAS[ATNO][  1].a[ 14] =        24.470800000000;     BAS[ATNO][  1].d[ 14] =         0.049595820614;
  BAS[ATNO][  1].a[ 15] =        15.292200000000;     BAS[ATNO][  1].d[ 15] =        -0.289574468683;
  BAS[ATNO][  1].a[ 16] =         9.554830000000;     BAS[ATNO][  1].d[ 16] =         0.368057932196;
  BAS[ATNO][  1].a[ 17] =         5.966610000000;     BAS[ATNO][  1].d[ 17] =         0.273372547247;
  BAS[ATNO][  1].a[ 18] =         2.389390000000;     BAS[ATNO][  1].d[ 18] =        -0.577913867126;
  BAS[ATNO][  1].a[ 19] =         1.318800000000;     BAS[ATNO][  1].d[ 19] =        -0.629720813491;
  BAS[ATNO][  1].a[ 20] =         0.625723000000;     BAS[ATNO][  1].d[ 20] =         0.097173958947;
  BAS[ATNO][  1].a[ 21] =         0.356911000000;     BAS[ATNO][  1].d[ 21] =         0.661591998900;
  BAS[ATNO][  1].a[ 22] =         0.177530000000;     BAS[ATNO][  1].d[ 22] =         0.517336708559;
  BAS[ATNO][  1].a[ 23] =         0.083434000000;     BAS[ATNO][  1].d[ 23] =         0.093809084765;
  BAS[ATNO][  1].a[ 24] =         0.032000000000;     BAS[ATNO][  1].d[ 24] =         0.000176067628;

  // Basis function   3 L = s
  InitBFNGauss(BAS[ATNO][  2]);
  BAS[ATNO][  2].l  = 0;
  BAS[ATNO][  2].ng = 25;
  BAS[ATNO][  2].a[  0] =     12715.600000000000;     BAS[ATNO][  2].d[  0] =         0.000000661633;
  BAS[ATNO][  2].a[  1] =      1913.300000000000;     BAS[ATNO][  2].d[  1] =         0.000004758123;
  BAS[ATNO][  2].a[  2] =       429.956000000000;     BAS[ATNO][  2].d[  2] =         0.000018018929;
  BAS[ATNO][  2].a[  3] =       100.978000000000;     BAS[ATNO][  2].d[  3] =         0.000039163016;
  BAS[ATNO][  2].a[  4] =        24.470800000000;     BAS[ATNO][  2].d[  4] =        -0.001413655378;
  BAS[ATNO][  2].a[  5] =        15.292200000000;     BAS[ATNO][  2].d[  5] =         0.007599258129;
  BAS[ATNO][  2].a[  6] =         9.554830000000;     BAS[ATNO][  2].d[  6] =        -0.008078336407;
  BAS[ATNO][  2].a[  7] =         5.966610000000;     BAS[ATNO][  2].d[  7] =        -0.008587145919;
  BAS[ATNO][  2].a[  8] =         2.389390000000;     BAS[ATNO][  2].d[  8] =         0.011166851249;
  BAS[ATNO][  2].a[  9] =         1.318800000000;     BAS[ATNO][  2].d[  9] =         0.009172718884;
  BAS[ATNO][  2].a[ 10] =     12715.600000000000;     BAS[ATNO][  2].d[ 10] =         0.000004897799;
  BAS[ATNO][  2].a[ 11] =      1913.300000000000;     BAS[ATNO][  2].d[ 11] =         0.000034109670;
  BAS[ATNO][  2].a[ 12] =       429.956000000000;     BAS[ATNO][  2].d[ 12] =         0.000134514545;
  BAS[ATNO][  2].a[ 13] =       100.978000000000;     BAS[ATNO][  2].d[ 13] =         0.000261857314;
  BAS[ATNO][  2].a[ 14] =        24.470800000000;     BAS[ATNO][  2].d[ 14] =        -0.008674876260;
  BAS[ATNO][  2].a[ 15] =        15.292200000000;     BAS[ATNO][  2].d[ 15] =         0.050649886479;
  BAS[ATNO][  2].a[ 16] =         9.554830000000;     BAS[ATNO][  2].d[ 16] =        -0.064377541874;
  BAS[ATNO][  2].a[ 17] =         5.966610000000;     BAS[ATNO][  2].d[ 17] =        -0.047815985116;
  BAS[ATNO][  2].a[ 18] =         2.389390000000;     BAS[ATNO][  2].d[ 18] =         0.101083745047;
  BAS[ATNO][  2].a[ 19] =         1.318800000000;     BAS[ATNO][  2].d[ 19] =         0.110145372490;
  BAS[ATNO][  2].a[ 20] =         0.625723000000;     BAS[ATNO][  2].d[ 20] =         0.250336100943;
  BAS[ATNO][  2].a[ 21] =         0.356911000000;     BAS[ATNO][  2].d[ 21] =        -0.891707632013;
  BAS[ATNO][  2].a[ 22] =         0.177530000000;     BAS[ATNO][  2].d[ 22] =         1.015100718703;
  BAS[ATNO][  2].a[ 23] =         0.083434000000;     BAS[ATNO][  2].d[ 23] =        -1.797949262248;
  BAS[ATNO][  2].a[ 24] =         0.032000000000;     BAS[ATNO][  2].d[ 24] =         1.942760634268;

  // Basis function   4 L = s
  InitBFNGauss(BAS[ATNO][  3]);
  BAS[ATNO][  3].l  = 0;
  BAS[ATNO][  3].ng = 25;
  BAS[ATNO][  3].a[  0] =     12715.600000000000;     BAS[ATNO][  3].d[  0] =        -0.000008668809;
  BAS[ATNO][  3].a[  1] =      1913.300000000000;     BAS[ATNO][  3].d[  1] =        -0.000062341646;
  BAS[ATNO][  3].a[  2] =       429.956000000000;     BAS[ATNO][  3].d[  2] =        -0.000236086705;
  BAS[ATNO][  3].a[  3] =       100.978000000000;     BAS[ATNO][  3].d[  3] =        -0.000513119698;
  BAS[ATNO][  3].a[  4] =        24.470800000000;     BAS[ATNO][  3].d[  4] =         0.018521924222;
  BAS[ATNO][  3].a[  5] =        15.292200000000;     BAS[ATNO][  3].d[  5] =        -0.099566616758;
  BAS[ATNO][  3].a[  6] =         9.554830000000;     BAS[ATNO][  3].d[  6] =         0.105843572028;
  BAS[ATNO][  3].a[  7] =         5.966610000000;     BAS[ATNO][  3].d[  7] =         0.112510070361;
  BAS[ATNO][  3].a[  8] =         2.389390000000;     BAS[ATNO][  3].d[  8] =        -0.146309755482;
  BAS[ATNO][  3].a[  9] =         1.318800000000;     BAS[ATNO][  3].d[  9] =        -0.120182334946;
  BAS[ATNO][  3].a[ 10] =     12715.600000000000;     BAS[ATNO][  3].d[ 10] =         0.000023338245;
  BAS[ATNO][  3].a[ 11] =      1913.300000000000;     BAS[ATNO][  3].d[ 11] =         0.000162534206;
  BAS[ATNO][  3].a[ 12] =       429.956000000000;     BAS[ATNO][  3].d[ 12] =         0.000640968227;
  BAS[ATNO][  3].a[ 13] =       100.978000000000;     BAS[ATNO][  3].d[ 13] =         0.001247762595;
  BAS[ATNO][  3].a[ 14] =        24.470800000000;     BAS[ATNO][  3].d[ 14] =        -0.041336199305;
  BAS[ATNO][  3].a[ 15] =        15.292200000000;     BAS[ATNO][  3].d[ 15] =         0.241349125850;
  BAS[ATNO][  3].a[ 16] =         9.554830000000;     BAS[ATNO][  3].d[ 16] =        -0.306762058829;
  BAS[ATNO][  3].a[ 17] =         5.966610000000;     BAS[ATNO][  3].d[ 17] =        -0.227845450635;
  BAS[ATNO][  3].a[ 18] =         2.389390000000;     BAS[ATNO][  3].d[ 18] =         0.481668868397;
  BAS[ATNO][  3].a[ 19] =         1.318800000000;     BAS[ATNO][  3].d[ 19] =         0.524847955542;
  BAS[ATNO][  3].a[ 20] =         0.625723000000;     BAS[ATNO][  3].d[ 20] =        -1.165172586429;
  BAS[ATNO][  3].a[ 21] =         0.356911000000;     BAS[ATNO][  3].d[ 21] =         2.441933354161;
  BAS[ATNO][  3].a[ 22] =         0.177530000000;     BAS[ATNO][  3].d[ 22] =        -5.594287502444;
  BAS[ATNO][  3].a[ 23] =         0.083434000000;     BAS[ATNO][  3].d[ 23] =         5.921977113632;
  BAS[ATNO][  3].a[ 24] =         0.032000000000;     BAS[ATNO][  3].d[ 24] =        -2.098902680718;

  // Basis function   5 L = s
  InitBFNGauss(BAS[ATNO][  4]);
  BAS[ATNO][  4].l  = 0;
  BAS[ATNO][  4].ng = 25;
  BAS[ATNO][  4].a[  0] =     12715.600000000000;     BAS[ATNO][  4].d[  0] =         0.000012367044;
  BAS[ATNO][  4].a[  1] =      1913.300000000000;     BAS[ATNO][  4].d[  1] =         0.000088937463;
  BAS[ATNO][  4].a[  2] =       429.956000000000;     BAS[ATNO][  4].d[  2] =         0.000336804592;
  BAS[ATNO][  4].a[  3] =       100.978000000000;     BAS[ATNO][  4].d[  3] =         0.000732023731;
  BAS[ATNO][  4].a[  4] =        24.470800000000;     BAS[ATNO][  4].d[  4] =        -0.026423635924;
  BAS[ATNO][  4].a[  5] =        15.292200000000;     BAS[ATNO][  4].d[  5] =         0.142043126825;
  BAS[ATNO][  4].a[  6] =         9.554830000000;     BAS[ATNO][  4].d[  6] =        -0.150997918928;
  BAS[ATNO][  4].a[  7] =         5.966610000000;     BAS[ATNO][  4].d[  7] =        -0.160508438608;
  BAS[ATNO][  4].a[  8] =         2.389390000000;     BAS[ATNO][  4].d[  8] =         0.208727541723;
  BAS[ATNO][  4].a[  9] =         1.318800000000;     BAS[ATNO][  4].d[  9] =         0.171453798478;
  BAS[ATNO][  4].a[ 10] =     12715.600000000000;     BAS[ATNO][  4].d[ 10] =         0.000006280159;
  BAS[ATNO][  4].a[ 11] =      1913.300000000000;     BAS[ATNO][  4].d[ 11] =         0.000043736820;
  BAS[ATNO][  4].a[ 12] =       429.956000000000;     BAS[ATNO][  4].d[ 12] =         0.000172480074;
  BAS[ATNO][  4].a[ 13] =       100.978000000000;     BAS[ATNO][  4].d[ 13] =         0.000335764202;
  BAS[ATNO][  4].a[ 14] =        24.470800000000;     BAS[ATNO][  4].d[ 14] =        -0.011123282608;
  BAS[ATNO][  4].a[ 15] =        15.292200000000;     BAS[ATNO][  4].d[ 15] =         0.064945364577;
  BAS[ATNO][  4].a[ 16] =         9.554830000000;     BAS[ATNO][  4].d[ 16] =        -0.082547528104;
  BAS[ATNO][  4].a[ 17] =         5.966610000000;     BAS[ATNO][  4].d[ 17] =        -0.061311619864;
  BAS[ATNO][  4].a[ 18] =         2.389390000000;     BAS[ATNO][  4].d[ 18] =         0.129613729294;
  BAS[ATNO][  4].a[ 19] =         1.318800000000;     BAS[ATNO][  4].d[ 19] =         0.141232920153;
  BAS[ATNO][  4].a[ 20] =         0.625723000000;     BAS[ATNO][  4].d[ 20] =         3.816957880496;
  BAS[ATNO][  4].a[ 21] =         0.356911000000;     BAS[ATNO][  4].d[ 21] =       -11.253138467218;
  BAS[ATNO][  4].a[ 22] =         0.177530000000;     BAS[ATNO][  4].d[ 22] =        11.968135594011;
  BAS[ATNO][  4].a[ 23] =         0.083434000000;     BAS[ATNO][  4].d[ 23] =        -6.069777732450;
  BAS[ATNO][  4].a[ 24] =         0.032000000000;     BAS[ATNO][  4].d[ 24] =         1.314429830343;

  // Basis function   6 L = s
  InitBFNGauss(BAS[ATNO][  5]);
  BAS[ATNO][  5].l  = 0;
  BAS[ATNO][  5].ng = 25;
  BAS[ATNO][  5].a[  0] =     12715.600000000000;     BAS[ATNO][  5].d[  0] =        -0.000136004828;
  BAS[ATNO][  5].a[  1] =      1913.300000000000;     BAS[ATNO][  5].d[  1] =        -0.000978077275;
  BAS[ATNO][  5].a[  2] =       429.956000000000;     BAS[ATNO][  5].d[  2] =        -0.003703961277;
  BAS[ATNO][  5].a[  3] =       100.978000000000;     BAS[ATNO][  5].d[  3] =        -0.008050328337;
  BAS[ATNO][  5].a[  4] =        24.470800000000;     BAS[ATNO][  5].d[  4] =         0.290590230743;
  BAS[ATNO][  5].a[  5] =        15.292200000000;     BAS[ATNO][  5].d[  5] =        -1.562099368863;
  BAS[ATNO][  5].a[  6] =         9.554830000000;     BAS[ATNO][  5].d[  6] =         1.660578439303;
  BAS[ATNO][  5].a[  7] =         5.966610000000;     BAS[ATNO][  5].d[  7] =         1.765169045849;
  BAS[ATNO][  5].a[  8] =         2.389390000000;     BAS[ATNO][  5].d[  8] =        -2.295451870699;
  BAS[ATNO][  5].a[  9] =         1.318800000000;     BAS[ATNO][  5].d[  9] =        -1.885539106177;
  BAS[ATNO][  5].a[ 10] =     12715.600000000000;     BAS[ATNO][  5].d[ 10] =         0.000209955315;
  BAS[ATNO][  5].a[ 11] =      1913.300000000000;     BAS[ATNO][  5].d[ 11] =         0.001462188804;
  BAS[ATNO][  5].a[ 12] =       429.956000000000;     BAS[ATNO][  5].d[ 12] =         0.005766272771;
  BAS[ATNO][  5].a[ 13] =       100.978000000000;     BAS[ATNO][  5].d[ 13] =         0.011225110973;
  BAS[ATNO][  5].a[ 14] =        24.470800000000;     BAS[ATNO][  5].d[ 14] =        -0.371868355708;
  BAS[ATNO][  5].a[ 15] =        15.292200000000;     BAS[ATNO][  5].d[ 15] =         2.171222901257;
  BAS[ATNO][  5].a[ 16] =         9.554830000000;     BAS[ATNO][  5].d[ 16] =        -2.759690158483;
  BAS[ATNO][  5].a[ 17] =         5.966610000000;     BAS[ATNO][  5].d[ 17] =        -2.049741256049;
  BAS[ATNO][  5].a[ 18] =         2.389390000000;     BAS[ATNO][  5].d[ 18] =         4.333185273422;
  BAS[ATNO][  5].a[ 19] =         1.318800000000;     BAS[ATNO][  5].d[ 19] =         4.721632600647;
  BAS[ATNO][  5].a[ 20] =         0.625723000000;     BAS[ATNO][  5].d[ 20] =       -14.650887329583;
  BAS[ATNO][  5].a[ 21] =         0.356911000000;     BAS[ATNO][  5].d[ 21] =        18.146875757468;
  BAS[ATNO][  5].a[ 22] =         0.177530000000;     BAS[ATNO][  5].d[ 22] =       -10.573680932698;
  BAS[ATNO][  5].a[ 23] =         0.083434000000;     BAS[ATNO][  5].d[ 23] =         3.901953351743;
  BAS[ATNO][  5].a[ 24] =         0.032000000000;     BAS[ATNO][  5].d[ 24] =        -0.751760950181;

  // Basis function   7 L = s
  InitBFNGauss(BAS[ATNO][  6]);
  BAS[ATNO][  6].l  = 0;
  BAS[ATNO][  6].ng = 25;
  BAS[ATNO][  6].a[  0] =     12715.600000000000;     BAS[ATNO][  6].d[  0] =         0.000213667706;
  BAS[ATNO][  6].a[  1] =      1913.300000000000;     BAS[ATNO][  6].d[  1] =         0.001536589033;
  BAS[ATNO][  6].a[  2] =       429.956000000000;     BAS[ATNO][  6].d[  2] =         0.005819035392;
  BAS[ATNO][  6].a[  3] =       100.978000000000;     BAS[ATNO][  6].d[  3] =         0.012647309736;
  BAS[ATNO][  6].a[  4] =        24.470800000000;     BAS[ATNO][  6].d[  4] =        -0.456526057143;
  BAS[ATNO][  6].a[  5] =        15.292200000000;     BAS[ATNO][  6].d[  5] =         2.454105438814;
  BAS[ATNO][  6].a[  6] =         9.554830000000;     BAS[ATNO][  6].d[  6] =        -2.608819042310;
  BAS[ATNO][  6].a[  7] =         5.966610000000;     BAS[ATNO][  6].d[  7] =        -2.773134054204;
  BAS[ATNO][  6].a[  8] =         2.389390000000;     BAS[ATNO][  6].d[  8] =         3.606224439179;
  BAS[ATNO][  6].a[  9] =         1.318800000000;     BAS[ATNO][  6].d[  9] =         2.962239066094;
  BAS[ATNO][  6].a[ 10] =     12715.600000000000;     BAS[ATNO][  6].d[ 10] =        -0.000091606049;
  BAS[ATNO][  6].a[ 11] =      1913.300000000000;     BAS[ATNO][  6].d[ 11] =        -0.000637970700;
  BAS[ATNO][  6].a[ 12] =       429.956000000000;     BAS[ATNO][  6].d[ 12] =        -0.002515894709;
  BAS[ATNO][  6].a[ 13] =       100.978000000000;     BAS[ATNO][  6].d[ 13] =        -0.004897651989;
  BAS[ATNO][  6].a[ 14] =        24.470800000000;     BAS[ATNO][  6].d[ 14] =         0.162250671413;
  BAS[ATNO][  6].a[ 15] =        15.292200000000;     BAS[ATNO][  6].d[ 15] =        -0.947330871556;
  BAS[ATNO][  6].a[ 16] =         9.554830000000;     BAS[ATNO][  6].d[ 16] =         1.204086269330;
  BAS[ATNO][  6].a[ 17] =         5.966610000000;     BAS[ATNO][  6].d[ 17] =         0.894326957141;
  BAS[ATNO][  6].a[ 18] =         2.389390000000;     BAS[ATNO][  6].d[ 18] =        -1.890621262011;
  BAS[ATNO][  6].a[ 19] =         1.318800000000;     BAS[ATNO][  6].d[ 19] =        -2.060105539669;
  BAS[ATNO][  6].a[ 20] =         0.625723000000;     BAS[ATNO][  6].d[ 20] =        -3.887153419748;
  BAS[ATNO][  6].a[ 21] =         0.356911000000;     BAS[ATNO][  6].d[ 21] =         4.178526963777;
  BAS[ATNO][  6].a[ 22] =         0.177530000000;     BAS[ATNO][  6].d[ 22] =        -2.296977632693;
  BAS[ATNO][  6].a[ 23] =         0.083434000000;     BAS[ATNO][  6].d[ 23] =         0.864666271871;
  BAS[ATNO][  6].a[ 24] =         0.032000000000;     BAS[ATNO][  6].d[ 24] =        -0.174590942103;

  // Basis function   8 L = p
  InitBFNGauss(BAS[ATNO][  7]);
  BAS[ATNO][  7].l  = 1;
  BAS[ATNO][  7].ng = 19;
  BAS[ATNO][  7].a[  0] =       131.708000000000;     BAS[ATNO][  7].d[  0] =         0.000585008247;
  BAS[ATNO][  7].a[  1] =        21.401600000000;     BAS[ATNO][  7].d[  1] =        -0.014438203531;
  BAS[ATNO][  7].a[  2] =        13.382600000000;     BAS[ATNO][  7].d[  2] =         0.170097397813;
  BAS[ATNO][  7].a[  3] =         8.368800000000;     BAS[ATNO][  7].d[  3] =        -0.422509955998;
  BAS[ATNO][  7].a[  4] =         5.229450000000;     BAS[ATNO][  7].d[  4] =        -0.001719024233;
  BAS[ATNO][  7].a[  5] =         2.476850000000;     BAS[ATNO][  7].d[  5] =         0.601166474467;
  BAS[ATNO][  7].a[  6] =         1.301800000000;     BAS[ATNO][  7].d[  6] =         0.492786946672;
  BAS[ATNO][  7].a[  7] =       131.708000000000;     BAS[ATNO][  7].d[  7] =        -0.000000010147;
  BAS[ATNO][  7].a[  8] =        21.401600000000;     BAS[ATNO][  7].d[  8] =         0.000000189329;
  BAS[ATNO][  7].a[  9] =        13.382600000000;     BAS[ATNO][  7].d[  9] =        -0.000002833863;
  BAS[ATNO][  7].a[ 10] =         8.368800000000;     BAS[ATNO][  7].d[ 10] =         0.000007906500;
  BAS[ATNO][  7].a[ 11] =         5.229450000000;     BAS[ATNO][  7].d[ 11] =        -0.000001026522;
  BAS[ATNO][  7].a[ 12] =         2.476850000000;     BAS[ATNO][  7].d[ 12] =        -0.000012573290;
  BAS[ATNO][  7].a[ 13] =         1.301800000000;     BAS[ATNO][  7].d[ 13] =        -0.000012144720;
  BAS[ATNO][  7].a[ 14] =         0.645710000000;     BAS[ATNO][  7].d[ 14] =         0.102083505450;
  BAS[ATNO][  7].a[ 15] =         0.312897000000;     BAS[ATNO][  7].d[ 15] =         0.003103344818;
  BAS[ATNO][  7].a[ 16] =         0.142853000000;     BAS[ATNO][  7].d[ 16] =         0.001288904542;
  BAS[ATNO][  7].a[ 17] =         0.062556000000;     BAS[ATNO][  7].d[ 17] =        -0.000319350174;
  BAS[ATNO][  7].a[ 18] =         0.025500000000;     BAS[ATNO][  7].d[ 18] =         0.000084780794;

  // Basis function   9 L = p
  InitBFNGauss(BAS[ATNO][  8]);
  BAS[ATNO][  8].l  = 1;
  BAS[ATNO][  8].ng = 19;
  BAS[ATNO][  8].a[  0] =       131.708000000000;     BAS[ATNO][  8].d[  0] =         0.000000015878;
  BAS[ATNO][  8].a[  1] =        21.401600000000;     BAS[ATNO][  8].d[  1] =        -0.000000391879;
  BAS[ATNO][  8].a[  2] =        13.382600000000;     BAS[ATNO][  8].d[  2] =         0.000004616753;
  BAS[ATNO][  8].a[  3] =         8.368800000000;     BAS[ATNO][  8].d[  3] =        -0.000011467689;
  BAS[ATNO][  8].a[  4] =         5.229450000000;     BAS[ATNO][  8].d[  4] =        -0.000000046657;
  BAS[ATNO][  8].a[  5] =         2.476850000000;     BAS[ATNO][  8].d[  5] =         0.000016316752;
  BAS[ATNO][  8].a[  6] =         1.301800000000;     BAS[ATNO][  8].d[  6] =         0.000013375135;
  BAS[ATNO][  8].a[  7] =       131.708000000000;     BAS[ATNO][  8].d[  7] =        -0.000234027536;
  BAS[ATNO][  8].a[  8] =        21.401600000000;     BAS[ATNO][  8].d[  8] =         0.004366513763;
  BAS[ATNO][  8].a[  9] =        13.382600000000;     BAS[ATNO][  8].d[  9] =        -0.065357689973;
  BAS[ATNO][  8].a[ 10] =         8.368800000000;     BAS[ATNO][  8].d[ 10] =         0.182348455085;
  BAS[ATNO][  8].a[ 11] =         5.229450000000;     BAS[ATNO][  8].d[ 11] =        -0.023674785571;
  BAS[ATNO][  8].a[ 12] =         2.476850000000;     BAS[ATNO][  8].d[ 12] =        -0.289979118888;
  BAS[ATNO][  8].a[ 13] =         1.301800000000;     BAS[ATNO][  8].d[ 13] =        -0.280094955919;
  BAS[ATNO][  8].a[ 14] =         0.645710000000;     BAS[ATNO][  8].d[ 14] =         0.127188327776;
  BAS[ATNO][  8].a[ 15] =         0.312897000000;     BAS[ATNO][  8].d[ 15] =         0.494393736091;
  BAS[ATNO][  8].a[ 16] =         0.142853000000;     BAS[ATNO][  8].d[ 16] =         0.456468045959;
  BAS[ATNO][  8].a[ 17] =         0.062556000000;     BAS[ATNO][  8].d[ 17] =         0.132805623329;
  BAS[ATNO][  8].a[ 18] =         0.025500000000;     BAS[ATNO][  8].d[ 18] =         0.001026609999;

  // Basis function  10 L = p
  InitBFNGauss(BAS[ATNO][  9]);
  BAS[ATNO][  9].l  = 1;
  BAS[ATNO][  9].ng = 19;
  BAS[ATNO][  9].a[  0] =       131.708000000000;     BAS[ATNO][  9].d[  0] =         0.000004428977;
  BAS[ATNO][  9].a[  1] =        21.401600000000;     BAS[ATNO][  9].d[  1] =        -0.000109308675;
  BAS[ATNO][  9].a[  2] =        13.382600000000;     BAS[ATNO][  9].d[  2] =         0.001287772485;
  BAS[ATNO][  9].a[  3] =         8.368800000000;     BAS[ATNO][  9].d[  3] =        -0.003198736154;
  BAS[ATNO][  9].a[  4] =         5.229450000000;     BAS[ATNO][  9].d[  4] =        -0.000013014380;
  BAS[ATNO][  9].a[  5] =         2.476850000000;     BAS[ATNO][  9].d[  5] =         0.004551307985;
  BAS[ATNO][  9].a[  6] =         1.301800000000;     BAS[ATNO][  9].d[  6] =         0.003730788826;
  BAS[ATNO][  9].a[  7] =       131.708000000000;     BAS[ATNO][  9].d[  7] =         0.000030572410;
  BAS[ATNO][  9].a[  8] =        21.401600000000;     BAS[ATNO][  9].d[  8] =        -0.000570423688;
  BAS[ATNO][  9].a[  9] =        13.382600000000;     BAS[ATNO][  9].d[  9] =         0.008538064134;
  BAS[ATNO][  9].a[ 10] =         8.368800000000;     BAS[ATNO][  9].d[ 10] =        -0.023821264259;
  BAS[ATNO][  9].a[ 11] =         5.229450000000;     BAS[ATNO][  9].d[ 11] =         0.003092778182;
  BAS[ATNO][  9].a[ 12] =         2.476850000000;     BAS[ATNO][  9].d[ 12] =         0.037881698628;
  BAS[ATNO][  9].a[ 13] =         1.301800000000;     BAS[ATNO][  9].d[ 13] =         0.036590471576;
  BAS[ATNO][  9].a[ 14] =         0.645710000000;     BAS[ATNO][  9].d[ 14] =         0.040896770935;
  BAS[ATNO][  9].a[ 15] =         0.312897000000;     BAS[ATNO][  9].d[ 15] =        -0.274310537419;
  BAS[ATNO][  9].a[ 16] =         0.142853000000;     BAS[ATNO][  9].d[ 16] =         0.329104579041;
  BAS[ATNO][  9].a[ 17] =         0.062556000000;     BAS[ATNO][  9].d[ 17] =        -0.986122423437;
  BAS[ATNO][  9].a[ 18] =         0.025500000000;     BAS[ATNO][  9].d[ 18] =         1.549470898389;

  // Basis function  11 L = p
  InitBFNGauss(BAS[ATNO][ 10]);
  BAS[ATNO][ 10].l  = 1;
  BAS[ATNO][ 10].ng = 19;
  BAS[ATNO][ 10].a[  0] =       131.708000000000;     BAS[ATNO][ 10].d[  0] =        -0.000036824420;
  BAS[ATNO][ 10].a[  1] =        21.401600000000;     BAS[ATNO][ 10].d[  1] =         0.000908839268;
  BAS[ATNO][ 10].a[  2] =        13.382600000000;     BAS[ATNO][ 10].d[  2] =        -0.010707093452;
  BAS[ATNO][ 10].a[  3] =         8.368800000000;     BAS[ATNO][ 10].d[  3] =         0.026595666021;
  BAS[ATNO][ 10].a[  4] =         5.229450000000;     BAS[ATNO][ 10].d[  4] =         0.000108207141;
  BAS[ATNO][ 10].a[  5] =         2.476850000000;     BAS[ATNO][ 10].d[  5] =        -0.037841529060;
  BAS[ATNO][ 10].a[  6] =         1.301800000000;     BAS[ATNO][ 10].d[  6] =        -0.031019380413;
  BAS[ATNO][ 10].a[  7] =       131.708000000000;     BAS[ATNO][ 10].d[  7] =         0.000157059036;
  BAS[ATNO][ 10].a[  8] =        21.401600000000;     BAS[ATNO][ 10].d[  8] =        -0.002930426294;
  BAS[ATNO][ 10].a[  9] =        13.382600000000;     BAS[ATNO][ 10].d[  9] =         0.043862427469;
  BAS[ATNO][ 10].a[ 10] =         8.368800000000;     BAS[ATNO][ 10].d[ 10] =        -0.122376508236;
  BAS[ATNO][ 10].a[ 11] =         5.229450000000;     BAS[ATNO][ 10].d[ 11] =         0.015888467989;
  BAS[ATNO][ 10].a[ 12] =         2.476850000000;     BAS[ATNO][ 10].d[ 12] =         0.194608898740;
  BAS[ATNO][ 10].a[ 13] =         1.301800000000;     BAS[ATNO][ 10].d[ 13] =         0.187975503626;
  BAS[ATNO][ 10].a[ 14] =         0.645710000000;     BAS[ATNO][ 10].d[ 14] =        -0.311488041388;
  BAS[ATNO][ 10].a[ 15] =         0.312897000000;     BAS[ATNO][ 10].d[ 15] =         0.467641916725;
  BAS[ATNO][ 10].a[ 16] =         0.142853000000;     BAS[ATNO][ 10].d[ 16] =        -2.127498236622;
  BAS[ATNO][ 10].a[ 17] =         0.062556000000;     BAS[ATNO][ 10].d[ 17] =         3.120022871254;
  BAS[ATNO][ 10].a[ 18] =         0.025500000000;     BAS[ATNO][ 10].d[ 18] =        -1.311292133587;

  // Basis function  12 L = p
  InitBFNGauss(BAS[ATNO][ 11]);
  BAS[ATNO][ 11].l  = 1;
  BAS[ATNO][ 11].ng = 19;
  BAS[ATNO][ 11].a[  0] =       131.708000000000;     BAS[ATNO][ 11].d[  0] =         0.000036520933;
  BAS[ATNO][ 11].a[  1] =        21.401600000000;     BAS[ATNO][ 11].d[  1] =        -0.000901349102;
  BAS[ATNO][ 11].a[  2] =        13.382600000000;     BAS[ATNO][ 11].d[  2] =         0.010618851333;
  BAS[ATNO][ 11].a[  3] =         8.368800000000;     BAS[ATNO][ 11].d[  3] =        -0.026376478812;
  BAS[ATNO][ 11].a[  4] =         5.229450000000;     BAS[ATNO][ 11].d[  4] =        -0.000107315356;
  BAS[ATNO][ 11].a[  5] =         2.476850000000;     BAS[ATNO][ 11].d[  5] =         0.037529659482;
  BAS[ATNO][ 11].a[  6] =         1.301800000000;     BAS[ATNO][ 11].d[  6] =         0.030763735324;
  BAS[ATNO][ 11].a[  7] =       131.708000000000;     BAS[ATNO][ 11].d[  7] =         0.000142788915;
  BAS[ATNO][ 11].a[  8] =        21.401600000000;     BAS[ATNO][ 11].d[  8] =        -0.002664172660;
  BAS[ATNO][ 11].a[  9] =        13.382600000000;     BAS[ATNO][ 11].d[  9] =         0.039877160637;
  BAS[ATNO][ 11].a[ 10] =         8.368800000000;     BAS[ATNO][ 11].d[ 10] =        -0.111257583282;
  BAS[ATNO][ 11].a[ 11] =         5.229450000000;     BAS[ATNO][ 11].d[ 11] =         0.014444868349;
  BAS[ATNO][ 11].a[ 12] =         2.476850000000;     BAS[ATNO][ 11].d[ 12] =         0.176927059539;
  BAS[ATNO][ 11].a[ 13] =         1.301800000000;     BAS[ATNO][ 11].d[ 13] =         0.170896363616;
  BAS[ATNO][ 11].a[ 14] =         0.645710000000;     BAS[ATNO][ 11].d[ 14] =         0.738684183649;
  BAS[ATNO][ 11].a[ 15] =         0.312897000000;     BAS[ATNO][ 11].d[ 15] =        -3.647324647230;
  BAS[ATNO][ 11].a[ 16] =         0.142853000000;     BAS[ATNO][ 11].d[ 16] =         4.575014676759;
  BAS[ATNO][ 11].a[ 17] =         0.062556000000;     BAS[ATNO][ 11].d[ 17] =        -2.603584676575;
  BAS[ATNO][ 11].a[ 18] =         0.025500000000;     BAS[ATNO][ 11].d[ 18] =         0.742679780193;

  // Basis function  13 L = p
  InitBFNGauss(BAS[ATNO][ 12]);
  BAS[ATNO][ 12].l  = 1;
  BAS[ATNO][ 12].ng = 19;
  BAS[ATNO][ 12].a[  0] =       131.708000000000;     BAS[ATNO][ 12].d[  0] =        -0.000888214398;
  BAS[ATNO][ 12].a[  1] =        21.401600000000;     BAS[ATNO][ 12].d[  1] =         0.021921435004;
  BAS[ATNO][ 12].a[  2] =        13.382600000000;     BAS[ATNO][ 12].d[  2] =        -0.258257825667;
  BAS[ATNO][ 12].a[  3] =         8.368800000000;     BAS[ATNO][ 12].d[  3] =         0.641494249540;
  BAS[ATNO][ 12].a[  4] =         5.229450000000;     BAS[ATNO][ 12].d[  4] =         0.002609983846;
  BAS[ATNO][ 12].a[  5] =         2.476850000000;     BAS[ATNO][ 12].d[  5] =        -0.912747335090;
  BAS[ATNO][ 12].a[  6] =         1.301800000000;     BAS[ATNO][ 12].d[  6] =        -0.748195369247;
  BAS[ATNO][ 12].a[  7] =       131.708000000000;     BAS[ATNO][ 12].d[  7] =         0.001524993029;
  BAS[ATNO][ 12].a[  8] =        21.401600000000;     BAS[ATNO][ 12].d[  8] =        -0.028453502409;
[...]
<sp|dd>:          735 b            0 skpd (  0.0%)    0.012 s ( 0.016 ms/b)
<sp|df>: done
<sp|dg>: done
<sp|ff>:          294 b          293 skpd ( 99.7%)    0.000 s ( 0.023 ms/b)
<sp|fg>: done
<sp|gg>:          147 b          146 skpd ( 99.3%)    0.000 s ( 0.056 ms/b)
<sd|sd>:          630 b            0 skpd (  0.0%)    0.006 s ( 0.009 ms/b)
<sd|sf>:          735 b            0 skpd (  0.0%)    0.001 s ( 0.002 ms/b)
<sd|sg>:          490 b            0 skpd (  0.0%)    0.005 s ( 0.011 ms/b)
<sd|pp>:          980 b            0 skpd (  0.0%)    0.005 s ( 0.005 ms/b)
<sd|pd>:         1225 b           33 skpd (  2.7%)    0.009 s ( 0.007 ms/b)
<sd|pf>: done
<sd|pg>: done
<sd|dd>:          525 b            2 skpd (  0.4%)    0.017 s ( 0.033 ms/b)
<sd|df>:          525 b           12 skpd (  2.3%)    0.004 s ( 0.008 ms/b)
<sd|dg>:          350 b            9 skpd (  2.6%)    0.006 s ( 0.018 ms/b)
<sd|ff>: done
<sd|fg>: done
<sd|gg>: done
<sf|sf>:          231 b            0 skpd (  0.0%)    0.001 s ( 0.002 ms/b)
<sf|sg>:          294 b            0 skpd (  0.0%)    0.001 s ( 0.004 ms/b)
<sf|pp>:          588 b            0 skpd (  0.0%)    0.003 s ( 0.004 ms/b)
<sf|pd>: done
<sf|pf>: done
<sf|pg>: done
<sf|dd>:          315 b            2 skpd (  0.6%)    0.010 s ( 0.032 ms/b)
<sf|df>: done
<sf|dg>: done
<sf|ff>: done
<sf|fg>: done
<sf|gg>: done
<sg|sg>:          105 b            0 skpd (  0.0%)    0.001 s ( 0.011 ms/b)
<sg|pp>:          392 b            0 skpd (  0.0%)    0.003 s ( 0.009 ms/b)
<sg|pd>: done
<sg|pf>: done
<sg|pg>: done
<sg|dd>:          210 b            2 skpd (  1.0%)    0.013 s ( 0.063 ms/b)
<sg|df>: done
<sg|dg>: done
<sg|ff>: done
<sg|fg>: done
<sg|gg>: done
<pp|pp>:          406 b            0 skpd (  0.0%)    0.004 s ( 0.009 ms/b)
<pp|pd>:          980 b            0 skpd (  0.0%)    0.007 s ( 0.007 ms/b)
<pp|pf>:          588 b            0 skpd (  0.0%)    0.001 s ( 0.003 ms/b)
<pp|pg>:          392 b            0 skpd (  0.0%)    0.003 s ( 0.006 ms/b)
<pp|dd>:          420 b            0 skpd (  0.0%)    0.014 s ( 0.034 ms/b)
<pp|df>:          420 b            0 skpd (  0.0%)    0.003 s ( 0.008 ms/b)
<pp|dg>:          280 b            0 skpd (  0.0%)    0.005 s ( 0.019 ms/b)
<pp|ff>:          168 b            0 skpd (  0.0%)    0.001 s ( 0.006 ms/b)
<pp|fg>:          168 b            0 skpd (  0.0%)    0.001 s ( 0.009 ms/b)
<pp|gg>:           84 b            0 skpd (  0.0%)    0.002 s ( 0.026 ms/b)
<pd|pd>:          630 b            0 skpd (  0.0%)    0.015 s ( 0.024 ms/b)
<pd|pf>:          735 b            0 skpd (  0.0%)    0.003 s ( 0.004 ms/b)
<pd|pg>:          490 b            0 skpd (  0.0%)    0.006 s ( 0.012 ms/b)
<pd|dd>:          525 b            0 skpd (  0.0%)    0.032 s ( 0.060 ms/b)
<pd|df>:          525 b            7 skpd (  1.3%)    0.008 s ( 0.015 ms/b)
<pd|dg>:          350 b            6 skpd (  1.7%)    0.013 s ( 0.037 ms/b)
<pd|ff>: done
<pd|fg>: done
<pd|gg>: done
<pf|pf>:          231 b            0 skpd (  0.0%)    0.001 s ( 0.006 ms/b)
<pf|pg>:          294 b            0 skpd (  0.0%)    0.003 s ( 0.011 ms/b)
<pf|dd>:          315 b            0 skpd (  0.0%)    0.016 s ( 0.050 ms/b)
<pf|df>: done
<pf|dg>: done
<pf|ff>: done
<pf|fg>: done
<pf|gg>: done
<pg|pg>:          105 b            0 skpd (  0.0%)    0.003 s ( 0.028 ms/b)
<pg|dd>:          210 b            0 skpd (  0.0%)    0.022 s ( 0.103 ms/b)
<pg|df>: done
<pg|dg>: done
<pg|ff>: done
<pg|fg>: done
<pg|gg>: done
<dd|dd>:          120 b            0 skpd (  0.0%)    0.029 s ( 0.245 ms/b)
<dd|df>:          225 b            0 skpd (  0.0%)    0.008 s ( 0.034 ms/b)
<dd|dg>:          150 b            0 skpd (  0.0%)    0.012 s ( 0.083 ms/b)
<dd|ff>:           90 b            0 skpd (  0.0%)    0.003 s ( 0.029 ms/b)
<dd|fg>:           90 b            0 skpd (  0.0%)    0.003 s ( 0.038 ms/b)
<dd|gg>:           45 b            0 skpd (  0.0%)    0.005 s ( 0.112 ms/b)
<df|df>:          120 b            1 skpd (  0.8%)    0.005 s ( 0.038 ms/b)
<df|dg>:          150 b            0 skpd (  0.0%)    0.009 s ( 0.059 ms/b)
<df|ff>: done
<df|fg>: done
<df|gg>: done
<dg|dg>:           55 b            0 skpd (  0.0%)    0.007 s ( 0.125 ms/b)
<dg|ff>: done
<dg|fg>: done
<dg|gg>: done
<ff|ff>: done
<ff|fg>: done
<ff|gg>: done
<fg|fg>: done
<fg|gg>: done
<gg|gg>: done
Recanonicalizing the internal orbitals
Recanonicalizing the virtual orbitals
Time needed for Fock operator              ...            0.398 sec
Reference energy                           ...   -287.543497360

------------------------------
PARTIAL COULOMB TRANSFORMATION
------------------------------

Transformation type                        ... one-operator
Dimension of the basis                     ...   92
Number of internal MOs                     ...   88 (4-91)
Pair cutoff                                ... 0.000e+00 Eh
Number of AO pairs included in the trafo   ... 4278
Total Number of distinct AO pairs          ... 4278
Memory devoted for trafo                   ... 2500.0 MB 
Max. Number of MO pairs treated together   ... 76596      
Max. Number of MOs treated per batch       ...  832      
Number Format for Storage                  ... Double (8 Byte)
AO-integral source                         ... DIRECT
Integral package used                      ... LIBINT

Starting integral evaluation:
<ss|**>: <sp|**>:         8400 b        0 skpd     0.023 s (  0.003 ms/b)
       14700 b        0 skpd     0.031 s (  0.002 ms/b)
<sd|**>:        10500 b        0 skpd     0.071 s (  0.007 ms/b)
<sf|**>:         6300 b        0 skpd     0.018 s (  0.003 ms/b)
<sg|**>:         4200 b        0 skpd     0.034 s (  0.008 ms/b)
<pp|**>:         8400 b        0 skpd     0.051 s (  0.006 ms/b)
<pd|**>:        10500 b        0 skpd     0.108 s (  0.010 ms/b)
<pf|**>:         6300 b        0 skpd     0.028 s (  0.004 ms/b)
<pg|**>:         4200 b        0 skpd     0.050 s (  0.012 ms/b)
<dd|**>:         4500 b        0 skpd     0.235 s (  0.052 ms/b)
<df|**>:         4500 b        0 skpd     0.061 s (  0.014 ms/b)
<dg|**>:         3000 b        0 skpd     0.097 s (  0.032 ms/b)
<ff|**>:         1800 b        0 skpd     0.022 s (  0.012 ms/b)
<fg|**>:         1800 b        0 skpd     0.033 s (  0.018 ms/b)
<gg|**>:          900 b        0 skpd     0.049 s (  0.055 ms/b)
Closing buffer AOJ ( 0.01 GB; CompressionRatio= 1.00)
Collecting buffer AOJ 
    ... done with AO integral generation
Number of MO pairs included in the trafo   ... 3916
    ... Now sorting integrals
IBATCH = 1 of  1
Closing buffer JAO ( 0.01 GB; CompressionRatio= 1.00)
Collecting buffer JAO 
TOTAL TIME for half transformation         ...     1.009 sec
AO-integral generation                     ...     0.902 sec
Half transformation                        ...     0.018 sec
J-integral sorting                         ...     0.061 sec

-------------------------- SECOND HALF TRANSFORMATION -------------------------
Formation of (pq|rs)                       ... ok (     0.046 sec)
Integral sorting                           ... ok (     0.478 sec)

------------------
CLOSED SHELL GUESS
------------------

Initial guess performed in     0.007 sec
E(0)                                       ...   -287.543497360
E(MP2)                                     ...     -0.342188920
Initial E(tot)                             ...   -287.885686280
<T|T>                                      ...      0.093624564
Number of pairs included                   ... 45
Total number of pairs                      ... 45

------------------------------------------------
                  RHF COUPLED CLUSTER ITERATIONS
------------------------------------------------

Number of amplitudes to be optimized       ... 281556

Iter       E(tot)           E(Corr)          Delta-E          Residual     Time
  0   -287.885686280     -0.342188920      0.000000000      0.014768825    0.10
                           *** Turning on DIIS ***
  1   -287.875466412     -0.331969052      0.010219868      0.002031362    0.39
  2   -287.880891402     -0.337394042     -0.005424990      0.001208123    0.41
  3   -287.881751307     -0.338253947     -0.000859905      0.000299436    0.41
  4   -287.881824685     -0.338327325     -0.000073378      0.000102511    0.40
  5   -287.881834063     -0.338336703     -0.000009377      0.000023561    0.40
  6   -287.881834882     -0.338337522     -0.000000820      0.000005010    0.40
               --- The Coupled-Cluster iterations have converged ---

----------------------
COUPLED CLUSTER ENERGY
----------------------

E(0)                                       ...   -287.543497360
E(CORR)                                    ...     -0.338337522
E(TOT)                                     ...   -287.881834882
Singles Norm <S|S>**1/2                    ...      0.019726636  
T1 diagnostic                              ...      0.004649613  

------------------
LARGEST AMPLITUDES
------------------
  11-> 30  11-> 30       0.021948
  10-> 27  10-> 27       0.020658
  12-> 29  12-> 29       0.019168
  11-> 26  11-> 26       0.019021
  10-> 28  10-> 28       0.018506
  12-> 28  12-> 28       0.018458
  10-> 26  10-> 26       0.018420
  12-> 30  12-> 30       0.016446
  11-> 29  11-> 29       0.014906
  12-> 27  12-> 27       0.013135
  12-> 24  12-> 24       0.012681
  12-> 40  12-> 40       0.012362
  10-> 27  10-> 21       0.012251
  10-> 21  10-> 27       0.012251
  10-> 20  10-> 26       0.011879
  10-> 26  10-> 20       0.011879


        !!!!!!!!!!!!!!!!!!!!!!!!!!!!!!!!!!!!!!!!!!!!!!!!!!!!!!!!!!!!!!!!!!!!!!!!!! 
        !  Warning: Densities are linearized densities !                         !
        !!!!!!!!!!!!!!!!!!!!!!!!!!!!!!!!!!!!!!!!!!!!!!!!!!!!!!!!!!!!!!!!!!!!!!!!!! 

Trace of internal density part =     -0.191044527
Trace of external density part =      0.191044527
----------------------
RHF TRIPLES CORRECTION (Algorithm 1)
----------------------

Multiplier for the singles contribution    ...      1.000000000

10% done
20% done
30% done
40% done
50% done
60% done
70% done
80% done

Triples Correction (T)                     ...     -0.010190515
Scaling of triples based on CCSD energies (Peterson et al. Molecular Physics 113, 1551 (2015))
E(T*) = f*E(T) where f = E(F12-CCSD)/E(CCSD) 
f = CCSD (with F12)/ CCSD (without F12)    ...      1.000000000
Scaled triples correction (T)              ...     -0.010190515

Final correlation energy                   ...     -0.348528037
E(CCSD)                                    ...   -287.881834882
E(CCSD(T))                                 ...   -287.892025397

NORM  =      1.095911404 sqrt=     1.046857872
W(HF) =      0.912482520
------------------------------------------------------------------------------
                           ORCA POPULATION ANALYSIS
------------------------------------------------------------------------------
Input electron density              ... 86_Rn.mdcip
BaseName (.gbw .S,...)              ... 86_Rn

                    ********************************
                    * MULLIKEN POPULATION ANALYSIS *
                    ********************************

-----------------------
MULLIKEN ATOMIC CHARGES
-----------------------
   0 Rn:   -0.000000
Sum of atomic charges:   -0.0000000

--------------------------------
MULLIKEN REDUCED ORBITAL CHARGES
--------------------------------
  0 Rns       :     3.987991  s :     3.987991
      pz      :     3.964869  p :    11.894606
      px      :     3.964869
      py      :     3.964869
      dz2     :     2.012192  d :    10.060960
      dxz     :     2.012192
      dyz     :     2.012192
      dx2y2   :     2.012192
      dxy     :     2.012192
      f0      :     0.006840  f :     0.047879
      f+1     :     0.006840
      f-1     :     0.006840
      f+2     :     0.006840
      f-2     :     0.006840
      f+3     :     0.006840
      f-3     :     0.006840
      g0      :     0.000951  g :     0.008563
      g+1     :     0.000951
      g-1     :     0.000951
      g+2     :     0.000951
      g-2     :     0.000951
      g+3     :     0.000951
      g-3     :     0.000951
      g+4     :     0.000951
      g-4     :     0.000951


                     *******************************
                     * LOEWDIN POPULATION ANALYSIS *
                     *******************************

----------------------
LOEWDIN ATOMIC CHARGES
----------------------
   0 Rn:   -0.000000

-------------------------------
LOEWDIN REDUCED ORBITAL CHARGES
-------------------------------
  0 Rns       :     3.987991  s :     3.987991
      pz      :     3.964869  p :    11.894606
      px      :     3.964869
      py      :     3.964869
      dz2     :     2.012192  d :    10.060960
      dxz     :     2.012192
      dyz     :     2.012192
      dx2y2   :     2.012192
      dxy     :     2.012192
      f0      :     0.006840  f :     0.047879
      f+1     :     0.006840
      f-1     :     0.006840
      f+2     :     0.006840
      f-2     :     0.006840
      f+3     :     0.006840
      f-3     :     0.006840
      g0      :     0.000951  g :     0.008563
      g+1     :     0.000951
      g-1     :     0.000951
      g+2     :     0.000951
      g-2     :     0.000951
      g+3     :     0.000951
      g-3     :     0.000951
      g+4     :     0.000951
      g-4     :     0.000951


                      *****************************
                      * MAYER POPULATION ANALYSIS *
                      *****************************

  NA   - Mulliken gross atomic population
  ZA   - Total nuclear charge
  QA   - Mulliken gross atomic charge
  VA   - Mayer's total valence
  BVA  - Mayer's bonded valence
  FA   - Mayer's free valence

  ATOM       NA         ZA         QA         VA         BVA        FA
  0 Rn    26.0000    26.0000    -0.0000     0.7525     0.0000     0.7525





------------------------------------------------------------------------------- 
                                     TIMINGS                                   
------------------------------------------------------------------------------- 


Total execution time                   ...        5.012 sec

Fock Matrix Formation                  ...        0.398 sec (  7.9%)
Initial Guess                          ...        0.007 sec (  0.1%)
DIIS Solver                            ...        0.097 sec (  1.9%)
State Vector Update                    ...        0.005 sec (  0.1%)
Sigma-vector construction              ...        2.412 sec ( 48.1%)
  <D|H|D>(0-ext)                       ...        0.009 sec (  0.4% of sigma)
  <D|H|D>(2-ext)                       ...        0.021 sec (  0.9% of sigma)
  <D|H|D>(4-ext)                       ...        0.131 sec (  5.5% of sigma)
  <D|H|D>(4-ext-corr)                  ...        0.113 sec (  4.7% of sigma)
  <S|H|0>                              ...        0.002 sec (  0.1% of sigma)
  <S|H|S>                              ...        0.002 sec (  0.1% of sigma)
  <S|H|D>(1-ext)                       ...        0.007 sec (  0.3% of sigma)
  <D|H|S>(1-ext)                       ...        0.005 sec (  0.2% of sigma)
  <S|H|D>(3-ext)                       ...        0.091 sec (  3.8% of sigma)
  Fock-dressing                        ...        1.716 sec ( 71.1% of sigma)
  (ik|jl)-dressing                     ...        0.011 sec (  0.4% of sigma)
  (ij|ab),(ia|jb)-dressing             ...        0.239 sec (  9.9% of sigma)
Total Time for computing (T)           ...        0.253 sec (  5.0% of ALL)
  I/O of integral and amplitudes       ...        0.087 sec ( 34.3% of (T))
  N**6 sorting step                    ...        0.064 sec ( 25.4% of (T))
  External N**7 contributions          ...        0.056 sec ( 22.1% of (T))
  Internal N**7 contributions          ...        0.022 sec (  8.8% of (T))
  N**6 triples energy contributions    ...        0.024 sec (  9.4% of (T))
One-particle density matrix            ...        0.001 sec (  0.0%)


-------------------------   --------------------
FINAL SINGLE POINT ENERGY      -287.892025397216
-------------------------   --------------------


                            ***************************************
                            *     ORCA property calculations      *
                            ***************************************

                                    ---------------------
                                    Active property flags
                                    ---------------------
   (+) Dipole Moment


------------------------------------------------------------------------------
                       ORCA ELECTRIC PROPERTIES CALCULATION
------------------------------------------------------------------------------

Dipole Moment Calculation                       ... on
Quadrupole Moment Calculation                   ... off
Polarizability Calculation                      ... off
GBWName                                         ... 86_Rn.gbw
Electron density file                           ... 86_Rn.scfp
The origin for moment calculation is the CENTER OF MASS  = ( 0.000000,  0.000000  0.000000)

-------------
DIPOLE MOMENT
-------------
                                X             Y             Z
Electronic contribution:      0.00000      -0.00000       0.00000
Nuclear contribution   :      0.00000       0.00000       0.00000
                        -----------------------------------------
Total Dipole Moment    :      0.00000      -0.00000       0.00000
                        -----------------------------------------
Magnitude (a.u.)       :      0.00000
Magnitude (Debye)      :      0.00000



--------------------
Rotational spectrum 
--------------------
 
Rotational constants in cm-1:     0.000000     0.000000     0.000000 
Rotational constants in MHz :     0.000000     0.000000     0.000000 

 Dipole components along the rotational axes: 
x,y,z [a.u.] :     0.000000    -0.000000     0.000000 
x,y,z [Debye]:     0.000000    -0.000000     0.000000 

 

                           *** MDCI DENSITY ***

------------------------------------------------------------------------------
                       ORCA ELECTRIC PROPERTIES CALCULATION
------------------------------------------------------------------------------

Dipole Moment Calculation                       ... on
Quadrupole Moment Calculation                   ... off
Polarizability Calculation                      ... off
GBWName                                         ... 86_Rn.gbw
Electron density file                           ... 86_Rn.mdcip
The origin for moment calculation is the CENTER OF MASS  = ( 0.000000,  0.000000  0.000000)

-------------
DIPOLE MOMENT
-------------
                                X             Y             Z
Electronic contribution:      0.00000      -0.00000       0.00000
Nuclear contribution   :      0.00000       0.00000       0.00000
                        -----------------------------------------
Total Dipole Moment    :      0.00000      -0.00000       0.00000
                        -----------------------------------------
Magnitude (a.u.)       :      0.00000
Magnitude (Debye)      :      0.00000



--------------------
Rotational spectrum 
--------------------
 
Rotational constants in cm-1:     0.000000     0.000000     0.000000 
Rotational constants in MHz :     0.000000     0.000000     0.000000 

 Dipole components along the rotational axes: 
x,y,z [a.u.] :     0.000000    -0.000000     0.000000 
x,y,z [Debye]:     0.000000    -0.000000     0.000000 

 

Timings for individual modules:

Sum of individual times         ...       13.096 sec (=   0.218 min)
GTO integral calculation        ...        0.840 sec (=   0.014 min)   6.4 %
SCF iterations                  ...        6.747 sec (=   0.112 min)  51.5 %
MDCI module                     ...        5.509 sec (=   0.092 min)  42.1 %
                             ****ORCA TERMINATED NORMALLY****
TOTAL RUN TIME: 0 days 0 hours 0 minutes 13 seconds 625 msec
