
                                 *****************
                                 * O   R   C   A *
                                 *****************

           --- An Ab Initio, DFT and Semiempirical electronic structure package ---

                  #######################################################
                  #                        -***-                        #
                  #          Department of theory and spectroscopy      #
                  #               Directorship: Frank Neese             #
                  #        Max Planck Institute fuer Kohlenforschung    #
                  #                Kaiser Wilhelm Platz 1               #
                  #                 D-45470 Muelheim/Ruhr               #
                  #                      Germany                        #
                  #                                                     #
                  #                  All rights reserved                #
                  #                        -***-                        #
                  #######################################################


                         Program Version 4.2.0 -  RELEASE  -


 With contributions from (in alphabetic order):
   Daniel Aravena         : Magnetic Suceptibility
   Michael Atanasov       : Ab Initio Ligand Field Theory (pilot matlab implementation)
   Alexander A. Auer      : GIAO ZORA, VPT2
   Ute Becker             : Parallelization
   Giovanni Bistoni       : ED, misc. LED, open-shell LED, HFLED
   Martin Brehm           : Molecular dynamics
   Dmytro Bykov           : SCF Hessian
   Vijay G. Chilkuri      : MRCI spin determinant printing, contributions to CSF-ICE
   Dipayan Datta          : RHF DLPNO-CCSD density
   Achintya Kumar Dutta   : EOM-CC, STEOM-CC
   Dmitry Ganyushin       : Spin-Orbit,Spin-Spin,Magnetic field MRCI
   Miquel Garcia          : C-PCM Hessian, Gaussian charge scheme
   Yang Guo               : DLPNO-NEVPT2, CIM, IAO-localization
   Andreas Hansen         : Spin unrestricted coupled pair/coupled cluster methods
   Benjamin Helmich-Paris : CASSCF linear response (MC-RPA)
   Lee Huntington         : MR-EOM, pCC
   Robert Izsak           : Overlap fitted RIJCOSX, COSX-SCS-MP3, EOM
   Christian Kollmar      : KDIIS, OOCD, Brueckner-CCSD(T), CCSD density
   Simone Kossmann        : Meta GGA functionals, TD-DFT gradient, OOMP2, MP2 Hessian
   Martin Krupicka        : AUTO-CI
   Lucas Lang             : DCDCAS
   Dagmar Lenk            : GEPOL surface, SMD
   Dimitrios Liakos       : Extrapolation schemes; Compound Job, initial MDCI parallelization
   Dimitrios Manganas     : Further ROCIS development; embedding schemes
   Dimitrios Pantazis     : SARC Basis sets
   Taras Petrenko         : DFT Hessian,TD-DFT gradient, ASA, ECA, R-Raman, ABS, FL, XAS/XES, NRVS
   Peter Pinski           : DLPNO-MP2, DLPNO-MP2 Gradient
   Christoph Reimann      : Effective Core Potentials
   Marius Retegan         : Local ZFS, SOC
   Christoph Riplinger    : Optimizer, TS searches, QM/MM, DLPNO-CCSD(T), (RO)-DLPNO pert. Triples
   Tobias Risthaus        : Range-separated hybrids, TD-DFT gradient, RPA, STAB
   Michael Roemelt        : Original ROCIS implementation
   Masaaki Saitow         : Open-shell DLPNO-CCSD energy and density
   Barbara Sandhoefer     : DKH picture change effects
   Avijit Sen             : IP-ROCIS
   Kantharuban Sivalingam : CASSCF convergence, NEVPT2, FIC-MRCI
   Bernardo de Souza      : ESD, SOC TD-DFT
   Georgi Stoychev        : AutoAux, RI-MP2 NMR
   Willem Van den Heuvel  : Paramagnetic NMR
   Boris Wezisla          : Elementary symmetry handling
   Frank Wennmohs         : Technical directorship


 We gratefully acknowledge several colleagues who have allowed us to
 interface, adapt or use parts of their codes:
   Stefan Grimme, W. Hujo, H. Kruse,             : VdW corrections, initial TS optimization,
                  C. Bannwarth                     DFT functionals, gCP, sTDA/sTD-DF
   Ed Valeev, F. Pavosevic, A. Kumar             : LibInt (2-el integral package), F12 methods
   Garnet Chan, S. Sharma, J. Yang, R. Olivares  : DMRG
   Ulf Ekstrom                                   : XCFun DFT Library
   Mihaly Kallay                                 : mrcc  (arbitrary order and MRCC methods)
   Andreas Klamt, Michael Diedenhofen            : otool_cosmo (COSMO solvation model)
   Jiri Pittner, Ondrej Demel                    : Mk-CCSD
   Frank Weinhold                                : gennbo (NPA and NBO analysis)
   Christopher J. Cramer and Donald G. Truhlar   : smd solvation model
   Lars Goerigk                                  : TD-DFT with DH, B97 family of functionals
   V. Asgeirsson, H. Jonsson                     : NEB implementation
   FAccTs GmbH                                   : IRC, NEB, NEB-TS, Multilevel, MM, QM/MM, CI optimization
   S Lehtola, MJT Oliveira, MAL Marques          : LibXC Library


 Your calculation uses the libint2 library for the computation of 2-el integrals
 For citations please refer to: http://libint.valeyev.net

 Your ORCA version has been built with support for libXC version: 4.2.3
 For citations please refer to: https://tddft.org/programs/libxc/

 This ORCA versions uses:
   CBLAS   interface :  Fast vector & matrix operations
   LAPACKE interface :  Fast linear algebra routines
   SCALAPACK package :  Parallel linear algebra routines


----- Orbital basis set information -----
Your calculation utilizes the basis: aug-cc-pV5Z 
          H : Obtained from the ccRepo (grant-hill.group.shef.ac.uk/ccrepo) Feb. 2017
              T. H. Dunning, Jr., J. Chem. Phys. 90, 1007 (1989)
              Diffuse s exponent - S. Mielke, unpublished
         He : Obtained from the ccRepo (grant-hill.group.shef.ac.uk/ccrepo) Feb. 2017
              D. E. Woon, T. H. Dunning, Jr., J. Chem. Phys. 100, 2975 (1994)
  Li-Be, Na : Obtained from the ccRepo (grant-hill.group.shef.ac.uk/ccrepo) Feb. 2017
              B. P. Prascher, D. E. Woon, K. A. Peterson, T. H. Dunning, Jr., A. K. Wilson, Theor. Chem. Acc. 128, 69 (2011)
        B-F : Obtained from the ccRepo (grant-hill.group.shef.ac.uk/ccrepo) Feb. 2017
              R. A. Kendall, T. H. Dunning, Jr., R. J. Harrison, J. Chem. Phys. 96, 6796 (1992)
              T. H. Dunning, Jr., J. Chem. Phys. 90, 1007 (1989)
         Ne : Obtained from the ccRepo (grant-hill.group.shef.ac.uk/ccrepo) Feb. 2017
              T. H. Dunning, Jr., J. Chem. Phys. 90, 1007 (1989)
         Mg : Obtained from the Peterson Research Group Website (tyr0.chem.wsu.edu/~kipeters) Feb. 2017
              B. P. Prascher, D. E. Woon, K. A. Peterson, T. H. Dunning, Jr., A. K. Wilson, Theor. Chem. Acc. 128, 69 (2011)
      Al-Ar : Obtained from the ccRepo (grant-hill.group.shef.ac.uk/ccrepo) Feb. 2017
              D. E. Woon, T. H. Dunning, Jr., J. Chem. Phys. 98, 1358 (1993)
      Sc-Zn : Obtained from the ccRepo (grant-hill.group.shef.ac.uk/ccrepo) Feb. 2017
              N. B. Balabanov, K. A. Peterson, J. Chem. Phys. 123, 064107 (2005)
              N. B. Balabanov, K. A. Peterson, J. Chem. Phys. 125, 074110 (2006)
      Ga-Kr : Obtained from the ccRepo (grant-hill.group.shef.ac.uk/ccrepo) Feb. 2017
              A. K. Wilson, D. E. Woon, K. A. Peterson, T. H. Dunning, Jr., J. Chem. Phys. 110, 7667 (1999)

================================================================================
                                        WARNINGS
                       Please study these warnings very carefully!
================================================================================


WARNING: your system is open-shell and RHF/RKS was chosen
  ===> : WILL SWITCH to UHF/UKS


WARNING: No MP2 level density has been requested!
         To caclulate MP2 level properties use
         %mp2 Density relaxed end
         or
         %mp2 Density unrelaxed end

WARNING: Post HF methods need fully converged wavefunctions
  ===> : Setting SCFConvForced true
         You can overwrite this default with %scf ConvForced false 


INFO   : the flag for use of LIBINT has been found!

================================================================================
                                       INPUT FILE
================================================================================
NAME = 01_H.in
|  1> #
|  2> # 01_H CCSD(T)/aug-cc-pV5Z
|  3> #
|  4> ! MP2 aug-cc-pV5Z tightscf
|  5> 
|  6> *xyz 0 2
|  7>  H 0.0 0.0 0.0
|  8> *
|  9> 
| 10> 
| 11>                          ****END OF INPUT****
================================================================================

                       ****************************
                       * Single Point Calculation *
                       ****************************

---------------------------------
CARTESIAN COORDINATES (ANGSTROEM)
---------------------------------
  H      0.000000    0.000000    0.000000

----------------------------
CARTESIAN COORDINATES (A.U.)
----------------------------
  NO LB      ZA    FRAG     MASS         X           Y           Z
   0 H     1.0000    0     1.008    0.000000    0.000000    0.000000

--------------------------------
INTERNAL COORDINATES (ANGSTROEM)
--------------------------------
 H      0   0   0     0.000000000000     0.00000000     0.00000000

---------------------------
INTERNAL COORDINATES (A.U.)
---------------------------
 H      0   0   0     0.000000000000     0.00000000     0.00000000

---------------------
BASIS SET INFORMATION
---------------------
There are 1 groups of distinct atoms

 Group   1 Type H   : 9s5p4d3f2g contracted to 6s5p4d3f2g pattern {411111/11111/1111/111/11}

Atom   0H    basis set group =>   1
------------------------------------------------------------------------------
                           ORCA GTO INTEGRAL CALCULATION
------------------------------------------------------------------------------

                         BASIS SET STATISTICS AND STARTUP INFO

 # of primitive gaussian shells          ...   23
 # of primitive gaussian functions       ...   83
 # of contracted shells                  ...   20
 # of contracted basis functions         ...   80
 Highest angular momentum                ...    4
 Maximum contraction depth               ...    4
 Integral package used                   ... LIBINT
 Integral threshhold            Thresh   ...  2.500e-11
 Primitive cut-off              TCut     ...  2.500e-12


------------------------------ INTEGRAL EVALUATION ----------------------------


 * One electron integrals 
 Pre-screening matrix                    ... done
 Shell pair data                         ... done (   0.000 sec)

-------------------------------------------------------------------------------
                                 ORCA SCF
-------------------------------------------------------------------------------

------------
SCF SETTINGS
------------
Hamiltonian:
 Ab initio Hamiltonian  Method          .... Hartree-Fock(GTOs)


General Settings:
 Integral files         IntName         .... 01_H
 Hartree-Fock type      HFTyp           .... UHF
 Total Charge           Charge          ....    0
 Multiplicity           Mult            ....    2
 Number of Electrons    NEL             ....    1
 Basis Dimension        Dim             ....   80
 Nuclear Repulsion      ENuc            ....      0.0000000000 Eh

Convergence Acceleration:
 DIIS                   CNVDIIS         .... on
   Start iteration      DIISMaxIt       ....    12
   Startup error        DIISStart       ....  0.200000
   # of expansion vecs  DIISMaxEq       ....     5
   Bias factor          DIISBfac        ....   1.050
   Max. coefficient     DIISMaxC        ....  10.000
 Newton-Raphson         CNVNR           .... off
 SOSCF                  CNVSOSCF        .... off
 Level Shifting         CNVShift        .... on
   Level shift para.    LevelShift      ....    0.2500
   Turn off err/grad.   ShiftErr        ....    0.0010
 Zerner damping         CNVZerner       .... off
 Static damping         CNVDamp         .... on
   Fraction old density DampFac         ....    0.7000
   Max. Damping (<1)    DampMax         ....    0.9800
   Min. Damping (>=0)   DampMin         ....    0.0000
   Turn off err/grad.   DampErr         ....    0.1000
 Fernandez-Rico         CNVRico         .... off

SCF Procedure:
 Maximum # iterations   MaxIter         ....   125
 SCF integral mode      SCFMode         .... Direct
   Integral package                     .... LIBINT
 Reset frequency        DirectResetFreq ....    20
 Integral Threshold     Thresh          ....  2.500e-11 Eh
 Primitive CutOff       TCut            ....  2.500e-12 Eh

Convergence Tolerance:
 Convergence Check Mode ConvCheckMode   .... Total+1el-Energy
 Convergence forced     ConvForced      .... 1
 Energy Change          TolE            ....  1.000e-08 Eh
 1-El. energy change                    ....  1.000e-05 Eh
 DIIS Error             TolErr          ....  5.000e-07


Diagonalization of the overlap matrix:
Smallest eigenvalue                        ... 1.098e-02
Time for diagonalization                   ...    0.022 sec
Threshold for overlap eigenvalues          ... 1.000e-08
Number of eigenvalues below threshold      ... 0
Time for construction of square roots      ...    0.004 sec
Total time needed                          ...    0.026 sec

-------------------
DFT GRID GENERATION
-------------------

General Integration Accuracy     IntAcc      ...  4.340
Radial Grid Type                 RadialGrid  ... Gauss-Chebyshev
Angular Grid (max. acc.)         AngularGrid ... Lebedev-110
Angular grid pruning method      GridPruning ... 3 (G Style)
Weight generation scheme         WeightScheme... Becke
Basis function cutoff            BFCut       ...    1.0000e-11
Integration weight cutoff        WCut        ...    1.0000e-14
Grids for H and He will be reduced by one unit

# of grid points (after initial pruning)     ...    794 (   0.0 sec)
# of grid points (after weights+screening)   ...    794 (   0.0 sec)
Grid point division into batches done        ...    0.0 sec
Reduced shell lists constructed in    0.0 sec

Total number of grid points                  ...      794
Total number of batches                      ...       13
Average number of points per batch           ...       61
Average number of grid points per atom       ...      794
Average number of shells per batch           ...    18.57 (92.86%)
Average number of basis functions per batch  ...    74.29 (92.86%)
Average number of large shells per batch     ...    18.29 (98.46%)
Average number of large basis fcns per batch ...    73.71 (99.23%)
Maximum spatial batch extension              ...  17.62, 21.59, 21.59 au
Average spatial batch extension              ...   6.10,  8.93,  9.49 au

Time for grid setup =    0.008 sec

------------------------------
INITIAL GUESS: MODEL POTENTIAL
------------------------------
Loading Hartree-Fock densities                     ... done
Calculating cut-offs                               ... done
Setting up the integral package                    ... done
Initializing the effective Hamiltonian             ... done
Starting the Coulomb interaction                   ... done (   0.0 sec)
Reading the grid                                   ... done
Mapping shells                                     ... done
Starting the XC term evaluation                    ... done (   0.0 sec)
Transforming the Hamiltonian                       ... done (   0.0 sec)
Diagonalizing the Hamiltonian                      ... done (   0.0 sec)
Back transforming the eigenvectors                 ... done (   0.0 sec)
Now organizing SCF variables                       ... done
                      ------------------
                      INITIAL GUESS DONE (   0.1 sec)
                      ------------------
--------------
SCF ITERATIONS
--------------
ITER       Energy         Delta-E        Max-DP      RMS-DP      [F,P]     Damp
               ***  Starting incremental Fock matrix formation  ***
  0     -0.4944546363   0.000000000000 0.00814919  0.00011359  0.0470143 0.7000
  1     -0.4954588499  -0.001004213602 0.00842736  0.00012169  0.0403019 0.7000
                               ***Turning on DIIS***
  2     -0.4963907923  -0.000931942331 0.02411383  0.00035848  0.0336039 0.0000
  3     -0.4997414936  -0.003350701362 0.01103798  0.00019529  0.0143400 0.0000
  4     -0.5000269687  -0.000285475079 0.00402269  0.00006602  0.0036946 0.0000
  5     -0.5000026901   0.000024278614 0.00198852  0.00002448  0.0012680 0.0000
  6     -0.4999912259   0.000011464218 0.00119726  0.00001341  0.0004751 0.0000
  7     -0.4999943570  -0.000003131179 0.00011040  0.00000129  0.0000399 0.0000
  8     -0.4999947811  -0.000000424040 0.00000442  0.00000008  0.0000019 0.0000
                 **** Energy Check signals convergence ****

               *****************************************************
               *                     SUCCESS                       *
               *           SCF CONVERGED AFTER   9 CYCLES          *
               *****************************************************


----------------
TOTAL SCF ENERGY
----------------

Total Energy       :           -0.49999478 Eh             -13.60555 eV

Components:
Nuclear Repulsion  :            0.00000000 Eh               0.00000 eV
Electronic Energy  :           -0.49999478 Eh             -13.60555 eV
One Electron Energy:           -0.49999478 Eh             -13.60555 eV
Two Electron Energy:            0.00000000 Eh               0.00000 eV

Virial components:
Potential Energy   :           -0.99997520 Eh             -27.21071 eV
Kinetic Energy     :            0.49998041 Eh              13.60516 eV
Virial Ratio       :            2.00002875


---------------
SCF CONVERGENCE
---------------

  Last Energy change         ...   -3.4431e-09  Tolerance :   1.0000e-08
  Last MAX-Density change    ...    8.5740e-07  Tolerance :   1.0000e-07
  Last RMS-Density change    ...    1.2490e-08  Tolerance :   5.0000e-09
  Last DIIS Error            ...    1.6550e-07  Tolerance :   5.0000e-07

             **** THE GBW FILE WAS UPDATED (01_H.gbw) ****
             **** DENSITY FILE WAS UPDATED (01_H.scfp) ****
             **** ENERGY FILE WAS UPDATED (01_H.en.tmp) ****
----------------------
UHF SPIN CONTAMINATION
----------------------

Expectation value of <S**2>     :     0.750000
Ideal value S*(S+1) for S=0.5   :     0.750000
Deviation                       :     0.000000

             **** THE GBW FILE WAS UPDATED (01_H.gbw) ****
             **** DENSITY FILE WAS UPDATED (01_H.scfp) ****
----------------
ORBITAL ENERGIES
----------------
                 SPIN UP ORBITALS
  NO   OCC          E(Eh)            E(eV) 
   0   1.0000      -0.499995       -13.6055 
   1   0.0000       0.041364         1.1256 
   2   0.0000       0.150871         4.1054 
   3   0.0000       0.150871         4.1054 
   4   0.0000       0.150871         4.1054 
   5   0.0000       0.262158         7.1337 
   6   0.0000       0.496403        13.5078 
   7   0.0000       0.496403        13.5078 
   8   0.0000       0.496403        13.5078 
   9   0.0000       0.496403        13.5078 
  10   0.0000       0.496403        13.5078 
  11   0.0000       0.624891        17.0041 
  12   0.0000       0.624891        17.0041 
  13   0.0000       0.624891        17.0041 
  14   0.0000       0.987901        26.8821 
  15   0.0000       1.168996        31.8100 
  16   0.0000       1.168996        31.8100 
  17   0.0000       1.168996        31.8100 
  18   0.0000       1.168996        31.8100 
  19   0.0000       1.168996        31.8100 
  20   0.0000       1.168996        31.8100 
  21   0.0000       1.168996        31.8100 
  22   0.0000       1.803781        49.0834 
  23   0.0000       1.803781        49.0834 
  24   0.0000       1.803781        49.0834 
  25   0.0000       1.803781        49.0834 
  26   0.0000       1.803781        49.0834 
  27   0.0000       2.008393        54.6511 
  28   0.0000       2.008393        54.6511 
  29   0.0000       2.008393        54.6511 
  30   0.0000       2.925805        79.6152 
  31   0.0000       2.925805        79.6152 
  32   0.0000       2.925805        79.6152 
  33   0.0000       2.925805        79.6152 
  34   0.0000       2.925805        79.6152 
  35   0.0000       2.925805        79.6152 
  36   0.0000       2.925805        79.6152 
  37   0.0000       2.925805        79.6152 
  38   0.0000       2.925805        79.6152 
  39   0.0000       3.170515        86.2741 
  40   0.0000       4.140511       112.6690 
  41   0.0000       4.140511       112.6690 
  42   0.0000       4.140511       112.6690 
  43   0.0000       4.140511       112.6690 
  44   0.0000       4.140511       112.6690 
  45   0.0000       4.140511       112.6690 
  46   0.0000       4.140511       112.6690 
  47   0.0000       5.125807       139.4803 
  48   0.0000       5.125807       139.4803 
  49   0.0000       5.125807       139.4803 
  50   0.0000       5.125807       139.4803 
  51   0.0000       5.125807       139.4803 
  52   0.0000       5.812589       158.1686 
  53   0.0000       5.812589       158.1686 
  54   0.0000       5.812589       158.1686 
  55   0.0000      12.797536       348.2387 
  56   0.0000      12.848520       349.6260 
  57   0.0000      12.848520       349.6260 
  58   0.0000      12.848520       349.6260 
  59   0.0000      12.848520       349.6260 
  60   0.0000      12.848520       349.6260 
  61   0.0000      12.848520       349.6260 
  62   0.0000      12.848520       349.6260 
  63   0.0000      13.122860       357.0912 
  64   0.0000      13.122860       357.0912 
  65   0.0000      13.122860       357.0912 
  66   0.0000      13.122860       357.0912 
  67   0.0000      13.122860       357.0912 
  68   0.0000      13.122860       357.0912 
  69   0.0000      13.122860       357.0912 
  70   0.0000      13.122860       357.0912 
  71   0.0000      13.122860       357.0912 
  72   0.0000      13.844753       376.7349 
  73   0.0000      13.844753       376.7349 
  74   0.0000      13.844753       376.7349 
  75   0.0000      13.844753       376.7349 
  76   0.0000      13.844753       376.7349 
  77   0.0000      16.710981       454.7289 
  78   0.0000      16.710981       454.7289 
  79   0.0000      16.710981       454.7289 

                 SPIN DOWN ORBITALS
  NO   OCC          E(Eh)            E(eV) 
   0   0.0000       0.012807         0.3485 
   1   0.0000       0.090208         2.4547 
   2   0.0000       0.165944         4.5156 
   3   0.0000       0.165944         4.5156 
   4   0.0000       0.165944         4.5156 
   5   0.0000       0.349165         9.5013 
   6   0.0000       0.505498        13.7553 
   7   0.0000       0.505498        13.7553 
   8   0.0000       0.505498        13.7553 
   9   0.0000       0.505498        13.7553 
  10   0.0000       0.505498        13.7553 
  11   0.0000       0.683810        18.6074 
  12   0.0000       0.683810        18.6074 
  13   0.0000       0.683810        18.6074 
  14   0.0000       1.087743        29.5990 
  15   0.0000       1.177097        32.0304 
  16   0.0000       1.177097        32.0304 
  17   0.0000       1.177097        32.0304 
  18   0.0000       1.177097        32.0304 
  19   0.0000       1.177097        32.0304 
  20   0.0000       1.177097        32.0304 
  21   0.0000       1.177097        32.0304 
  22   0.0000       1.834806        49.9276 
  23   0.0000       1.834806        49.9276 
  24   0.0000       1.834806        49.9276 
  25   0.0000       1.834806        49.9276 
  26   0.0000       1.834806        49.9276 
  27   0.0000       2.080026        56.6004 
  28   0.0000       2.080026        56.6004 
  29   0.0000       2.080026        56.6004 
  30   0.0000       2.935949        79.8912 
  31   0.0000       2.935949        79.8912 
  32   0.0000       2.935949        79.8912 
  33   0.0000       2.935949        79.8912 
  34   0.0000       2.935949        79.8912 
  35   0.0000       2.935949        79.8912 
  36   0.0000       2.935949        79.8912 
  37   0.0000       2.935949        79.8912 
  38   0.0000       2.935949        79.8912 
  39   0.0000       3.259080        88.6841 
  40   0.0000       4.163371       113.2911 
  41   0.0000       4.163371       113.2911 
  42   0.0000       4.163371       113.2911 
  43   0.0000       4.163371       113.2911 
  44   0.0000       4.163371       113.2911 
  45   0.0000       4.163371       113.2911 
  46   0.0000       4.163371       113.2911 
  47   0.0000       5.163552       140.5074 
  48   0.0000       5.163552       140.5074 
  49   0.0000       5.163552       140.5074 
  50   0.0000       5.163552       140.5074 
  51   0.0000       5.163552       140.5074 
  52   0.0000       5.871008       159.7582 
  53   0.0000       5.871008       159.7582 
  54   0.0000       5.871008       159.7582 
  55   0.0000      12.856709       349.8488 
  56   0.0000      12.874706       350.3386 
  57   0.0000      12.874706       350.3386 
  58   0.0000      12.874706       350.3386 
  59   0.0000      12.874706       350.3386 
  60   0.0000      12.874706       350.3386 
  61   0.0000      12.874706       350.3386 
  62   0.0000      12.874706       350.3386 
  63   0.0000      13.142786       357.6334 
  64   0.0000      13.142786       357.6334 
  65   0.0000      13.142786       357.6334 
  66   0.0000      13.142786       357.6334 
  67   0.0000      13.142786       357.6334 
  68   0.0000      13.142786       357.6334 
  69   0.0000      13.142786       357.6334 
  70   0.0000      13.142786       357.6334 
  71   0.0000      13.142786       357.6334 
  72   0.0000      13.877887       377.6365 
  73   0.0000      13.877887       377.6365 
  74   0.0000      13.877887       377.6365 
  75   0.0000      13.877887       377.6365 
  76   0.0000      13.877887       377.6365 
  77   0.0000      16.750689       455.8094 
  78   0.0000      16.750689       455.8094 
  79   0.0000      16.750689       455.8094 

                    ********************************
                    * MULLIKEN POPULATION ANALYSIS *
                    ********************************

--------------------------------------------
MULLIKEN ATOMIC CHARGES AND SPIN POPULATIONS
--------------------------------------------
   0 H :   -0.000000    1.000000
Sum of atomic charges         :   -0.0000000
Sum of atomic spin populations:    1.0000000

-----------------------------------------------------
MULLIKEN REDUCED ORBITAL CHARGES AND SPIN POPULATIONS
-----------------------------------------------------
CHARGE
  0 H s       :     1.000000  s :     1.000000
      pz      :     0.000000  p :     0.000000
      px      :     0.000000
      py      :     0.000000
      dz2     :     0.000000  d :     0.000000
      dxz     :     0.000000
      dyz     :     0.000000
      dx2y2   :     0.000000
      dxy     :     0.000000
      f0      :     0.000000  f :     0.000000
      f+1     :     0.000000
      f-1     :     0.000000
      f+2     :     0.000000
      f-2     :     0.000000
      f+3     :     0.000000
      f-3     :     0.000000
      g0      :     0.000000  g :     0.000000
      g+1     :     0.000000
      g-1     :     0.000000
      g+2     :     0.000000
      g-2     :     0.000000
      g+3     :     0.000000
      g-3     :     0.000000
      g+4     :     0.000000
      g-4     :     0.000000

SPIN
  0 H s       :     1.000000  s :     1.000000
      pz      :     0.000000  p :     0.000000
      px      :     0.000000
      py      :     0.000000
      dz2     :     0.000000  d :     0.000000
      dxz     :     0.000000
      dyz     :     0.000000
      dx2y2   :     0.000000
      dxy     :     0.000000
      f0      :     0.000000  f :     0.000000
      f+1     :     0.000000
      f-1     :     0.000000
      f+2     :     0.000000
      f-2     :     0.000000
      f+3     :     0.000000
      f-3     :     0.000000
      g0      :     0.000000  g :     0.000000
      g+1     :     0.000000
      g-1     :     0.000000
      g+2     :     0.000000
      g-2     :     0.000000
      g+3     :     0.000000
      g-3     :     0.000000
      g+4     :     0.000000
      g-4     :     0.000000


                     *******************************
                     * LOEWDIN POPULATION ANALYSIS *
                     *******************************

-------------------------------------------
LOEWDIN ATOMIC CHARGES AND SPIN POPULATIONS
-------------------------------------------
   0 H :   -0.000000    1.000000

----------------------------------------------------
LOEWDIN REDUCED ORBITAL CHARGES AND SPIN POPULATIONS
----------------------------------------------------
CHARGE
  0 H s       :     1.000000  s :     1.000000
      pz      :     0.000000  p :     0.000000
      px      :     0.000000
      py      :     0.000000
      dz2     :     0.000000  d :     0.000000
      dxz     :     0.000000
      dyz     :     0.000000
      dx2y2   :     0.000000
      dxy     :     0.000000
      f0      :     0.000000  f :     0.000000
      f+1     :     0.000000
      f-1     :     0.000000
      f+2     :     0.000000
      f-2     :     0.000000
      f+3     :     0.000000
      f-3     :     0.000000
      g0      :     0.000000  g :     0.000000
      g+1     :     0.000000
      g-1     :     0.000000
      g+2     :     0.000000
      g-2     :     0.000000
      g+3     :     0.000000
      g-3     :     0.000000
      g+4     :     0.000000
      g-4     :     0.000000

SPIN
  0 H s       :     1.000000  s :     1.000000
      pz      :     0.000000  p :     0.000000
      px      :     0.000000
      py      :     0.000000
      dz2     :     0.000000  d :     0.000000
      dxz     :     0.000000
      dyz     :     0.000000
      dx2y2   :     0.000000
      dxy     :     0.000000
      f0      :     0.000000  f :     0.000000
      f+1     :     0.000000
      f-1     :     0.000000
      f+2     :     0.000000
      f-2     :     0.000000
      f+3     :     0.000000
      f-3     :     0.000000
      g0      :     0.000000  g :     0.000000
      g+1     :     0.000000
      g-1     :     0.000000
      g+2     :     0.000000
      g-2     :     0.000000
      g+3     :     0.000000
      g-3     :     0.000000
      g+4     :     0.000000
      g-4     :     0.000000


                      *****************************
                      * MAYER POPULATION ANALYSIS *
                      *****************************

  NA   - Mulliken gross atomic population
  ZA   - Total nuclear charge
  QA   - Mulliken gross atomic charge
  VA   - Mayer's total valence
  BVA  - Mayer's bonded valence
  FA   - Mayer's free valence

  ATOM       NA         ZA         QA         VA         BVA        FA
  0 H      1.0000     1.0000    -0.0000     1.0000     0.0000     1.0000

  Mayer bond orders larger than 0.100000


Local spin analysis not attempted because no beta electrons available
--------------------------
ATOM BASIS FOR ELEMENT H 
--------------------------
 NewGTO H 
 S 9
    1        402.000000000000         0.000278938708
    2         60.240000000000         0.002164524386
    3         13.730000000000         0.011198539330
    4          3.905000000000         0.044868141063
    5          1.283000000000         0.142417050373
    6          0.465500000000         0.330472275138
    7          0.181100000000         0.437560596929
    8          0.072790000000         0.174593740962
    9          0.020700000000         0.001378030237
 S 9
    1        402.000000000000         0.000061493342
    2         60.240000000000         0.000477179516
    3         13.730000000000         0.002468770330
    4          3.905000000000         0.009891391381
    5          1.283000000000         0.000767479318
    6          0.465500000000         0.171321219730
    7          0.181100000000        -0.248230442543
    8          0.072790000000         0.927000200625
    9          0.020700000000        -1.483101376902
 S 9
    1        402.000000000000         0.000075350177
    2         60.240000000000         0.000584706572
    3         13.730000000000         0.003025080052
    4          3.905000000000         0.012120305559
    5          1.283000000000         0.191447453318
    6          0.465500000000        -0.360147479199
    7          0.181100000000         2.282280368491
    8          0.072790000000        -3.165709712192
    9          0.020700000000         1.122367632922
 S 9
    1        402.000000000000         0.000505818286
    2         60.240000000000         0.003925077381
    3         13.730000000000         0.020307063161
    4          3.905000000000         0.081362412332
    5          1.283000000000        -0.257270283715
    6          0.465500000000         2.819507014684
    7          0.181100000000        -4.473297701479
    8          0.072790000000         2.580018781744
    9          0.020700000000        -0.585646179787
 S 9
    1        402.000000000000        -0.000143141858
    2         60.240000000000        -0.001110760299
    3         13.730000000000        -0.005746709518
    4          3.905000000000        -0.023024804013
    5          1.283000000000         2.503408115202
    6          0.465500000000        -4.197111787853
    7          0.181100000000         3.238216206925
    8          0.072790000000        -1.429460043338
    9          0.020700000000         0.302609565488
 S 9
    1        402.000000000000         0.009384945003
    2         60.240000000000         0.072825827713
    3         13.730000000000         0.376776949751
    4          3.905000000000         1.509596995885
    5          1.283000000000        -2.897915480472
    6          0.465500000000         2.615674891386
    7          0.181100000000        -1.688432048730
    8          0.072790000000         0.729406185386
    9          0.020700000000        -0.157605404100
 P 5
    1          4.516000000000         0.006956550251
    2          1.712000000000        -0.026644147245
    3          0.649000000000         0.111264827252
    4          0.246000000000        -0.218094124422
    5          0.074400000000         1.107945489847
 P 5
    1          4.516000000000        -0.022332467486
    2          1.712000000000         0.131816335703
    3          0.649000000000        -0.379919590463
    4          0.246000000000         1.615192327117
    5          0.074400000000        -0.864354726392
 P 5
    1          4.516000000000         0.094276177030
    2          1.712000000000        -0.406872721514
    3          0.649000000000         2.058496240811
    4          0.246000000000        -1.646228713492
    5          0.074400000000         0.487971912738
 P 5
    1          4.516000000000        -0.282004047945
    2          1.712000000000         2.109309714039
    3          0.649000000000        -2.089576065502
    4          0.246000000000         0.999665211898
    5          0.074400000000        -0.259392080538
 P 5
    1          4.516000000000         1.810816167562
    2          1.712000000000        -2.054342918491
    3          0.649000000000         1.241057331015
    4          0.246000000000        -0.526710581693
    5          0.074400000000         0.136501811918
 D 4
    1          2.950000000000         0.019462841246
    2          1.206000000000        -0.087521377718
    3          0.493000000000         0.237880111611
    4          0.156000000000        -1.109870810699
 D 4
    1          2.950000000000         0.085388423392
    2          1.206000000000        -0.386030608753
    3          0.493000000000         1.497934140661
    4          0.156000000000        -0.646425737811
 D 4
    1          2.950000000000        -0.285210321559
    2          1.206000000000         1.784676496883
    3          0.493000000000        -1.231179493579
    4          0.156000000000         0.341768504020
 D 4
    1          2.950000000000         1.601417817459
    2          1.206000000000        -1.487205972085
    3          0.493000000000         0.687427958989
    4          0.156000000000        -0.176719729187
 F 3
    1          2.506000000000         0.028916762721
    2          0.875000000000        -0.150412275226
    3          0.274000000000         1.063576252545
 F 3
    1          2.506000000000         0.156844503622
    2          0.875000000000        -1.231389479459
    3          0.274000000000         0.467809447835
 F 3
    1          2.506000000000         1.222332183576
    2          0.875000000000        -0.659109273448
    3          0.274000000000         0.193365723810
 G 2
    1          2.358000000000         0.046399607257
    2          0.543000000000        -1.010833401456
 G 2
    1          2.358000000000         1.033198786066
    2          0.543000000000        -0.218788687052
 end
  // -----------------------------------------------
  // The basis set
  // -----------------------------------------------
  BAS[ATNO] = new BFNGauss[NSH];
  // Basis function   1 L = s
  InitBFNGauss(BAS[ATNO][  0]);
  BAS[ATNO][  0].l  = 0;
  BAS[ATNO][  0].ng = 9;
  BAS[ATNO][  0].a[  0] =       402.000000000000;     BAS[ATNO][  0].d[  0] =         0.000278938708;
  BAS[ATNO][  0].a[  1] =        60.240000000000;     BAS[ATNO][  0].d[  1] =         0.002164524386;
  BAS[ATNO][  0].a[  2] =        13.730000000000;     BAS[ATNO][  0].d[  2] =         0.011198539330;
  BAS[ATNO][  0].a[  3] =         3.905000000000;     BAS[ATNO][  0].d[  3] =         0.044868141063;
  BAS[ATNO][  0].a[  4] =         1.283000000000;     BAS[ATNO][  0].d[  4] =         0.142417050373;
  BAS[ATNO][  0].a[  5] =         0.465500000000;     BAS[ATNO][  0].d[  5] =         0.330472275138;
  BAS[ATNO][  0].a[  6] =         0.181100000000;     BAS[ATNO][  0].d[  6] =         0.437560596929;
  BAS[ATNO][  0].a[  7] =         0.072790000000;     BAS[ATNO][  0].d[  7] =         0.174593740962;
  BAS[ATNO][  0].a[  8] =         0.020700000000;     BAS[ATNO][  0].d[  8] =         0.001378030237;

  // Basis function   2 L = s
  InitBFNGauss(BAS[ATNO][  1]);
  BAS[ATNO][  1].l  = 0;
  BAS[ATNO][  1].ng = 9;
  BAS[ATNO][  1].a[  0] =       402.000000000000;     BAS[ATNO][  1].d[  0] =        -0.000061493342;
  BAS[ATNO][  1].a[  1] =        60.240000000000;     BAS[ATNO][  1].d[  1] =        -0.000477179516;
  BAS[ATNO][  1].a[  2] =        13.730000000000;     BAS[ATNO][  1].d[  2] =        -0.002468770330;
  BAS[ATNO][  1].a[  3] =         3.905000000000;     BAS[ATNO][  1].d[  3] =        -0.009891391381;
  BAS[ATNO][  1].a[  4] =         1.283000000000;     BAS[ATNO][  1].d[  4] =        -0.000767479318;
  BAS[ATNO][  1].a[  5] =         0.465500000000;     BAS[ATNO][  1].d[  5] =        -0.171321219730;
  BAS[ATNO][  1].a[  6] =         0.181100000000;     BAS[ATNO][  1].d[  6] =         0.248230442543;
  BAS[ATNO][  1].a[  7] =         0.072790000000;     BAS[ATNO][  1].d[  7] =        -0.927000200625;
  BAS[ATNO][  1].a[  8] =         0.020700000000;     BAS[ATNO][  1].d[  8] =         1.483101376902;

  // Basis function   3 L = s
  InitBFNGauss(BAS[ATNO][  2]);
  BAS[ATNO][  2].l  = 0;
  BAS[ATNO][  2].ng = 9;
  BAS[ATNO][  2].a[  0] =       402.000000000000;     BAS[ATNO][  2].d[  0] =        -0.000075350177;
  BAS[ATNO][  2].a[  1] =        60.240000000000;     BAS[ATNO][  2].d[  1] =        -0.000584706572;
  BAS[ATNO][  2].a[  2] =        13.730000000000;     BAS[ATNO][  2].d[  2] =        -0.003025080052;
  BAS[ATNO][  2].a[  3] =         3.905000000000;     BAS[ATNO][  2].d[  3] =        -0.012120305559;
  BAS[ATNO][  2].a[  4] =         1.283000000000;     BAS[ATNO][  2].d[  4] =        -0.191447453318;
  BAS[ATNO][  2].a[  5] =         0.465500000000;     BAS[ATNO][  2].d[  5] =         0.360147479199;
  BAS[ATNO][  2].a[  6] =         0.181100000000;     BAS[ATNO][  2].d[  6] =        -2.282280368491;
  BAS[ATNO][  2].a[  7] =         0.072790000000;     BAS[ATNO][  2].d[  7] =         3.165709712192;
  BAS[ATNO][  2].a[  8] =         0.020700000000;     BAS[ATNO][  2].d[  8] =        -1.122367632922;

  // Basis function   4 L = s
  InitBFNGauss(BAS[ATNO][  3]);
  BAS[ATNO][  3].l  = 0;
  BAS[ATNO][  3].ng = 9;
  BAS[ATNO][  3].a[  0] =       402.000000000000;     BAS[ATNO][  3].d[  0] =        -0.000505818286;
  BAS[ATNO][  3].a[  1] =        60.240000000000;     BAS[ATNO][  3].d[  1] =        -0.003925077381;
  BAS[ATNO][  3].a[  2] =        13.730000000000;     BAS[ATNO][  3].d[  2] =        -0.020307063161;
  BAS[ATNO][  3].a[  3] =         3.905000000000;     BAS[ATNO][  3].d[  3] =        -0.081362412332;
  BAS[ATNO][  3].a[  4] =         1.283000000000;     BAS[ATNO][  3].d[  4] =         0.257270283715;
  BAS[ATNO][  3].a[  5] =         0.465500000000;     BAS[ATNO][  3].d[  5] =        -2.819507014684;
  BAS[ATNO][  3].a[  6] =         0.181100000000;     BAS[ATNO][  3].d[  6] =         4.473297701479;
  BAS[ATNO][  3].a[  7] =         0.072790000000;     BAS[ATNO][  3].d[  7] =        -2.580018781744;
  BAS[ATNO][  3].a[  8] =         0.020700000000;     BAS[ATNO][  3].d[  8] =         0.585646179787;

  // Basis function   5 L = s
  InitBFNGauss(BAS[ATNO][  4]);
  BAS[ATNO][  4].l  = 0;
  BAS[ATNO][  4].ng = 9;
  BAS[ATNO][  4].a[  0] =       402.000000000000;     BAS[ATNO][  4].d[  0] =         0.000143141858;
  BAS[ATNO][  4].a[  1] =        60.240000000000;     BAS[ATNO][  4].d[  1] =         0.001110760299;
  BAS[ATNO][  4].a[  2] =        13.730000000000;     BAS[ATNO][  4].d[  2] =         0.005746709518;
  BAS[ATNO][  4].a[  3] =         3.905000000000;     BAS[ATNO][  4].d[  3] =         0.023024804013;
  BAS[ATNO][  4].a[  4] =         1.283000000000;     BAS[ATNO][  4].d[  4] =        -2.503408115202;
  BAS[ATNO][  4].a[  5] =         0.465500000000;     BAS[ATNO][  4].d[  5] =         4.197111787853;
  BAS[ATNO][  4].a[  6] =         0.181100000000;     BAS[ATNO][  4].d[  6] =        -3.238216206925;
  BAS[ATNO][  4].a[  7] =         0.072790000000;     BAS[ATNO][  4].d[  7] =         1.429460043338;
  BAS[ATNO][  4].a[  8] =         0.020700000000;     BAS[ATNO][  4].d[  8] =        -0.302609565488;

  // Basis function   6 L = s
  InitBFNGauss(BAS[ATNO][  5]);
  BAS[ATNO][  5].l  = 0;
  BAS[ATNO][  5].ng = 9;
  BAS[ATNO][  5].a[  0] =       402.000000000000;     BAS[ATNO][  5].d[  0] =        -0.009384945003;
  BAS[ATNO][  5].a[  1] =        60.240000000000;     BAS[ATNO][  5].d[  1] =        -0.072825827713;
  BAS[ATNO][  5].a[  2] =        13.730000000000;     BAS[ATNO][  5].d[  2] =        -0.376776949751;
  BAS[ATNO][  5].a[  3] =         3.905000000000;     BAS[ATNO][  5].d[  3] =        -1.509596995885;
  BAS[ATNO][  5].a[  4] =         1.283000000000;     BAS[ATNO][  5].d[  4] =         2.897915480472;
  BAS[ATNO][  5].a[  5] =         0.465500000000;     BAS[ATNO][  5].d[  5] =        -2.615674891386;
  BAS[ATNO][  5].a[  6] =         0.181100000000;     BAS[ATNO][  5].d[  6] =         1.688432048730;
  BAS[ATNO][  5].a[  7] =         0.072790000000;     BAS[ATNO][  5].d[  7] =        -0.729406185386;
  BAS[ATNO][  5].a[  8] =         0.020700000000;     BAS[ATNO][  5].d[  8] =         0.157605404100;

  // Basis function   7 L = p
  InitBFNGauss(BAS[ATNO][  6]);
  BAS[ATNO][  6].l  = 1;
  BAS[ATNO][  6].ng = 5;
  BAS[ATNO][  6].a[  0] =         4.516000000000;     BAS[ATNO][  6].d[  0] =         0.006956550251;
  BAS[ATNO][  6].a[  1] =         1.712000000000;     BAS[ATNO][  6].d[  1] =        -0.026644147245;
  BAS[ATNO][  6].a[  2] =         0.649000000000;     BAS[ATNO][  6].d[  2] =         0.111264827252;
  BAS[ATNO][  6].a[  3] =         0.246000000000;     BAS[ATNO][  6].d[  3] =        -0.218094124422;
  BAS[ATNO][  6].a[  4] =         0.074400000000;     BAS[ATNO][  6].d[  4] =         1.107945489847;

  // Basis function   8 L = p
  InitBFNGauss(BAS[ATNO][  7]);
  BAS[ATNO][  7].l  = 1;
  BAS[ATNO][  7].ng = 5;
  BAS[ATNO][  7].a[  0] =         4.516000000000;     BAS[ATNO][  7].d[  0] =        -0.022332467486;
  BAS[ATNO][  7].a[  1] =         1.712000000000;     BAS[ATNO][  7].d[  1] =         0.131816335703;
  BAS[ATNO][  7].a[  2] =         0.649000000000;     BAS[ATNO][  7].d[  2] =        -0.379919590463;
  BAS[ATNO][  7].a[  3] =         0.246000000000;     BAS[ATNO][  7].d[  3] =         1.615192327117;
  BAS[ATNO][  7].a[  4] =         0.074400000000;     BAS[ATNO][  7].d[  4] =        -0.864354726392;

  // Basis function   9 L = p
  InitBFNGauss(BAS[ATNO][  8]);
  BAS[ATNO][  8].l  = 1;
  BAS[ATNO][  8].ng = 5;
  BAS[ATNO][  8].a[  0] =         4.516000000000;     BAS[ATNO][  8].d[  0] =         0.094276177030;
  BAS[ATNO][  8].a[  1] =         1.712000000000;     BAS[ATNO][  8].d[  1] =        -0.406872721514;
  BAS[ATNO][  8].a[  2] =         0.649000000000;     BAS[ATNO][  8].d[  2] =         2.058496240811;
  BAS[ATNO][  8].a[  3] =         0.246000000000;     BAS[ATNO][  8].d[  3] =        -1.646228713492;
  BAS[ATNO][  8].a[  4] =         0.074400000000;     BAS[ATNO][  8].d[  4] =         0.487971912738;

  // Basis function  10 L = p
  InitBFNGauss(BAS[ATNO][  9]);
  BAS[ATNO][  9].l  = 1;
  BAS[ATNO][  9].ng = 5;
  BAS[ATNO][  9].a[  0] =         4.516000000000;     BAS[ATNO][  9].d[  0] =        -0.282004047945;
  BAS[ATNO][  9].a[  1] =         1.712000000000;     BAS[ATNO][  9].d[  1] =         2.109309714039;
  BAS[ATNO][  9].a[  2] =         0.649000000000;     BAS[ATNO][  9].d[  2] =        -2.089576065502;
  BAS[ATNO][  9].a[  3] =         0.246000000000;     BAS[ATNO][  9].d[  3] =         0.999665211898;
  BAS[ATNO][  9].a[  4] =         0.074400000000;     BAS[ATNO][  9].d[  4] =        -0.259392080538;

  // Basis function  11 L = p
  InitBFNGauss(BAS[ATNO][ 10]);
  BAS[ATNO][ 10].l  = 1;
  BAS[ATNO][ 10].ng = 5;
  BAS[ATNO][ 10].a[  0] =         4.516000000000;     BAS[ATNO][ 10].d[  0] =        -1.810816167562;
  BAS[ATNO][ 10].a[  1] =         1.712000000000;     BAS[ATNO][ 10].d[  1] =         2.054342918491;
  BAS[ATNO][ 10].a[  2] =         0.649000000000;     BAS[ATNO][ 10].d[  2] =        -1.241057331015;
  BAS[ATNO][ 10].a[  3] =         0.246000000000;     BAS[ATNO][ 10].d[  3] =         0.526710581693;
  BAS[ATNO][ 10].a[  4] =         0.074400000000;     BAS[ATNO][ 10].d[  4] =        -0.136501811918;

  // Basis function  12 L = d
  InitBFNGauss(BAS[ATNO][ 11]);
  BAS[ATNO][ 11].l  = 2;
  BAS[ATNO][ 11].ng = 4;
  BAS[ATNO][ 11].a[  0] =         2.950000000000;     BAS[ATNO][ 11].d[  0] =        -0.019462841246;
  BAS[ATNO][ 11].a[  1] =         1.206000000000;     BAS[ATNO][ 11].d[  1] =         0.087521377718;
  BAS[ATNO][ 11].a[  2] =         0.493000000000;     BAS[ATNO][ 11].d[  2] =        -0.237880111611;
  BAS[ATNO][ 11].a[  3] =         0.156000000000;     BAS[ATNO][ 11].d[  3] =         1.109870810699;

  // Basis function  13 L = d
  InitBFNGauss(BAS[ATNO][ 12]);
  BAS[ATNO][ 12].l  = 2;
  BAS[ATNO][ 12].ng = 4;
  BAS[ATNO][ 12].a[  0] =         2.950000000000;     BAS[ATNO][ 12].d[  0] =         0.085388423392;
  BAS[ATNO][ 12].a[  1] =         1.206000000000;     BAS[ATNO][ 12].d[  1] =        -0.386030608753;
  BAS[ATNO][ 12].a[  2] =         0.493000000000;     BAS[ATNO][ 12].d[  2] =         1.497934140661;
  BAS[ATNO][ 12].a[  3] =         0.156000000000;     BAS[ATNO][ 12].d[  3] =        -0.646425737811;

  // Basis function  14 L = d
  InitBFNGauss(BAS[ATNO][ 13]);
  BAS[ATNO][ 13].l  = 2;
  BAS[ATNO][ 13].ng = 4;
  BAS[ATNO][ 13].a[  0] =         2.950000000000;     BAS[ATNO][ 13].d[  0] =        -0.285210321559;
  BAS[ATNO][ 13].a[  1] =         1.206000000000;     BAS[ATNO][ 13].d[  1] =         1.784676496883;
  BAS[ATNO][ 13].a[  2] =         0.493000000000;     BAS[ATNO][ 13].d[  2] =        -1.231179493579;
  BAS[ATNO][ 13].a[  3] =         0.156000000000;     BAS[ATNO][ 13].d[  3] =         0.341768504020;

  // Basis function  15 L = d
  InitBFNGauss(BAS[ATNO][ 14]);
  BAS[ATNO][ 14].l  = 2;
  BAS[ATNO][ 14].ng = 4;
  BAS[ATNO][ 14].a[  0] =         2.950000000000;     BAS[ATNO][ 14].d[  0] =         1.601417817459;
  BAS[ATNO][ 14].a[  1] =         1.206000000000;     BAS[ATNO][ 14].d[  1] =        -1.487205972085;
  BAS[ATNO][ 14].a[  2] =         0.493000000000;     BAS[ATNO][ 14].d[  2] =         0.687427958989;
  BAS[ATNO][ 14].a[  3] =         0.156000000000;     BAS[ATNO][ 14].d[  3] =        -0.176719729187;

  // Basis function  16 L = f
  InitBFNGauss(BAS[ATNO][ 15]);
  BAS[ATNO][ 15].l  = 3;
  BAS[ATNO][ 15].ng = 3;
  BAS[ATNO][ 15].a[  0] =         2.506000000000;     BAS[ATNO][ 15].d[  0] =         0.028916762721;
  BAS[ATNO][ 15].a[  1] =         0.875000000000;     BAS[ATNO][ 15].d[  1] =        -0.150412275226;
  BAS[ATNO][ 15].a[  2] =         0.274000000000;     BAS[ATNO][ 15].d[  2] =         1.063576252545;

  // Basis function  17 L = f
  InitBFNGauss(BAS[ATNO][ 16]);
  BAS[ATNO][ 16].l  = 3;
  BAS[ATNO][ 16].ng = 3;
  BAS[ATNO][ 16].a[  0] =         2.506000000000;     BAS[ATNO][ 16].d[  0] =        -0.156844503622;
  BAS[ATNO][ 16].a[  1] =         0.875000000000;     BAS[ATNO][ 16].d[  1] =         1.231389479459;
  BAS[ATNO][ 16].a[  2] =         0.274000000000;     BAS[ATNO][ 16].d[  2] =        -0.467809447835;

  // Basis function  18 L = f
  InitBFNGauss(BAS[ATNO][ 17]);
  BAS[ATNO][ 17].l  = 3;
  BAS[ATNO][ 17].ng = 3;
  BAS[ATNO][ 17].a[  0] =         2.506000000000;     BAS[ATNO][ 17].d[  0] =         1.222332183576;
  BAS[ATNO][ 17].a[  1] =         0.875000000000;     BAS[ATNO][ 17].d[  1] =        -0.659109273448;
  BAS[ATNO][ 17].a[  2] =         0.274000000000;     BAS[ATNO][ 17].d[  2] =         0.193365723810;

  // Basis function  19 L = g
  InitBFNGauss(BAS[ATNO][ 18]);
  BAS[ATNO][ 18].l  = 4;
  BAS[ATNO][ 18].ng = 2;
  BAS[ATNO][ 18].a[  0] =         2.358000000000;     BAS[ATNO][ 18].d[  0] =        -0.046399607257;
  BAS[ATNO][ 18].a[  1] =         0.543000000000;     BAS[ATNO][ 18].d[  1] =         1.010833401456;

  // Basis function  20 L = g
  InitBFNGauss(BAS[ATNO][ 19]);
  BAS[ATNO][ 19].l  = 4;
  BAS[ATNO][ 19].ng = 2;
  BAS[ATNO][ 19].a[  0] =         2.358000000000;     BAS[ATNO][ 19].d[  0] =         1.033198786066;
  BAS[ATNO][ 19].a[  1] =         0.543000000000;     BAS[ATNO][ 19].d[  1] =        -0.218788687052;

-------------------------------------------
RADIAL EXPECTATION VALUES <R**-3> TO <R**3>
-------------------------------------------
   0 :     0.000000     1.998831     0.999975     1.500059     3.000464     7.502963
   1 :     0.000000     0.076597     0.167296     7.163219    55.647506   462.171675
   2 :     0.000000     0.452958     0.359062     4.694614    28.741671   215.387502
   3 :     0.000000     1.693936     0.738925     2.725312    11.506219    68.472199
   4 :     0.000000     4.447505     1.416311     1.474108     4.121405    19.920240
   5 :     0.000000    38.312602     4.040543     0.659559     1.226473     5.298610
   6 :     0.037692     0.087042     0.271305     4.125858    18.554298    89.620508
   7 :     0.037692     0.087042     0.271305     4.125858    18.554298    89.620508
   8 :     0.037692     0.087042     0.271305     4.125858    18.554298    89.620508
   9 :     0.216120     0.275087     0.464719     2.774514     9.970903    44.349478
  10 :     0.216120     0.275087     0.464719     2.774514     9.970903    44.349478
  11 :     0.216120     0.275087     0.464719     2.774514     9.970903    44.349478
  12 :     0.997685     0.728305     0.741754     1.846060     4.819630    17.203326
  13 :     0.997685     0.728305     0.741754     1.846060     4.819630    17.203326
  14 :     0.997685     0.728305     0.741754     1.846060     4.819630    17.203326
  15 :     3.533430     1.843732     1.202694     1.158894     2.070992     5.808439
  16 :     3.533430     1.843732     1.202694     1.158894     2.070992     5.808439
  17 :     3.533430     1.843732     1.202694     1.158894     2.070992     5.808439
  18 :    26.108074     6.662367     2.242170     0.662540     0.776715     1.744622
  19 :    26.108074     6.662367     2.242170     0.662540     0.776715     1.744622
  20 :    26.108074     6.662367     2.242170     0.662540     0.776715     1.744622
  21 :     0.038004     0.103576     0.310220     3.429593    12.427269   236.756513
  22 :     0.038004     0.103576     0.310220     3.429593    12.427269   236.756513
  23 :     0.038004     0.103576     0.310220     3.429593    12.427269   236.756513
  24 :     0.038004     0.103576     0.310220     3.429593    12.427269   236.756513
  25 :     0.038004     0.103576     0.310220     3.429593    12.427269   236.756513
  26 :     0.218440     0.319817     0.533528     2.146305     5.441993    82.688381
  27 :     0.218440     0.319817     0.533528     2.146305     5.441993    82.688381
  28 :     0.218440     0.319817     0.533528     2.146305     5.441993    82.688381
  29 :     0.218440     0.319817     0.533528     2.146305     5.441993    82.688381
  30 :     0.218440     0.319817     0.533528     2.146305     5.441993    82.688381
  31 :     0.872714     0.819666     0.850475     1.404051     2.521174    30.118204
  32 :     0.872714     0.819666     0.850475     1.404051     2.521174    30.118204
  33 :     0.872714     0.819666     0.850475     1.404051     2.521174    30.118204
  34 :     0.872714     0.819666     0.850475     1.404051     2.521174    30.118204
  35 :     0.872714     0.819666     0.850475     1.404051     2.521174    30.118204
  36 :     5.266030     2.600940     1.484897     0.852023     1.030723     9.618124
  37 :     5.266030     2.600940     1.484897     0.852023     1.030723     9.618124
  38 :     5.266030     2.600940     1.484897     0.852023     1.030723     9.618124
  39 :     5.266030     2.600940     1.484897     0.852023     1.030723     9.618124
  40 :     5.266030     2.600940     1.484897     0.852023     1.030723     9.618124
  41 :     0.056172     0.138590     0.362789     2.891016     8.740846   192.983209
  42 :     0.056172     0.138590     0.362789     2.891016     8.740846   192.983209
  43 :     0.056172     0.138590     0.362789     2.891016     8.740846   192.983209
  44 :     0.056172     0.138590     0.362789     2.891016     8.740846   192.983209
  45 :     0.056172     0.138590     0.362789     2.891016     8.740846   192.983209
  46 :     0.056172     0.138590     0.362789     2.891016     8.740846   192.983209
  47 :     0.056172     0.138590     0.362789     2.891016     8.740846   192.983209
  48 :     0.331344     0.449170     0.646792     1.696246     3.260113    51.260238
  49 :     0.331344     0.449170     0.646792     1.696246     3.260113    51.260238
  50 :     0.331344     0.449170     0.646792     1.696246     3.260113    51.260238
  51 :     0.331344     0.449170     0.646792     1.696246     3.260113    51.260238
  52 :     0.331344     0.449170     0.646792     1.696246     3.260113    51.260238
  53 :     0.331344     0.449170     0.646792     1.696246     3.260113    51.260238
  54 :     0.331344     0.449170     0.646792     1.696246     3.260113    51.260238
  55 :     2.119507     1.500812     1.165015     0.980576     1.172224    12.947985
  56 :     2.119507     1.500812     1.165015     0.980576     1.172224    12.947985
  57 :     2.119507     1.500812     1.165015     0.980576     1.172224    12.947985
  58 :     2.119507     1.500812     1.165015     0.980576     1.172224    12.947985
  59 :     2.119507     1.500812     1.165015     0.980576     1.172224    12.947985
  60 :     2.119507     1.500812     1.165015     0.980576     1.172224    12.947985
  61 :     2.119507     1.500812     1.165015     0.980576     1.172224    12.947985
  62 :     0.121525     0.233415     0.471684     2.217910     5.131910    86.487479
  63 :     0.121525     0.233415     0.471684     2.217910     5.131910    86.487479
  64 :     0.121525     0.233415     0.471684     2.217910     5.131910    86.487479
  65 :     0.121525     0.233415     0.471684     2.217910     5.131910    86.487479
  66 :     0.121525     0.233415     0.471684     2.217910     5.131910    86.487479
  67 :     0.121525     0.233415     0.471684     2.217910     5.131910    86.487479
  68 :     0.121525     0.233415     0.471684     2.217910     5.131910    86.487479
  69 :     0.121525     0.233415     0.471684     2.217910     5.131910    86.487479
  70 :     0.121525     0.233415     0.471684     2.217910     5.131910    86.487479
  71 :     1.194074     1.055918     0.995716     1.076972     1.268665    11.860915
  72 :     1.194074     1.055918     0.995716     1.076972     1.268665    11.860915
  73 :     1.194074     1.055918     0.995716     1.076972     1.268665    11.860915
  74 :     1.194074     1.055918     0.995716     1.076972     1.268665    11.860915
  75 :     1.194074     1.055918     0.995716     1.076972     1.268665    11.860915
  76 :     1.194074     1.055918     0.995716     1.076972     1.268665    11.860915
  77 :     1.194074     1.055918     0.995716     1.076972     1.268665    11.860915
  78 :     1.194074     1.055918     0.995716     1.076972     1.268665    11.860915
  79 :     1.194074     1.055918     0.995716     1.076972     1.268665    11.860915
-------
TIMINGS
-------

Total SCF time: 0 days 0 hours 0 min 1 sec 

Total time                  ....       1.426 sec
Sum of individual times     ....       1.143 sec  ( 80.1%)

Fock matrix formation       ....       0.986 sec  ( 69.2%)
Diagonalization             ....       0.012 sec  (  0.8%)
Density matrix formation    ....       0.001 sec  (  0.0%)
Population analysis         ....       0.017 sec  (  1.2%)
Initial guess               ....       0.087 sec  (  6.1%)
Orbital Transformation      ....       0.000 sec  (  0.0%)
Orbital Orthonormalization  ....       0.000 sec  (  0.0%)
DIIS solution               ....       0.032 sec  (  2.2%)

------------------------------------------------------------------------------
                                ORCA  MP2 
------------------------------------------------------------------------------

Freezing NCore=0 chemical core electrons
Warning: Single electron - no MP2 correction

---------------------------------------
MP2 TOTAL ENERGY:       -0.499994785 Eh
---------------------------------------

-------------------------   --------------------
FINAL SINGLE POINT ENERGY        -0.499994784532
-------------------------   --------------------


                            ***************************************
                            *     ORCA property calculations      *
                            ***************************************


  WARNING: The energy has been calculated at the MP2 level but the densities
           used in the property calculations are still SCF densities
           MP2 response densities have not been calculated 
           use %mp2 Density relaxed end
           or  %mp2 Density unrelaxed end

                                    ---------------------
                                    Active property flags
                                    ---------------------
   (+) Dipole Moment


------------------------------------------------------------------------------
                       ORCA ELECTRIC PROPERTIES CALCULATION
------------------------------------------------------------------------------

Dipole Moment Calculation                       ... on
Quadrupole Moment Calculation                   ... off
Polarizability Calculation                      ... off
GBWName                                         ... 01_H.gbw
Electron density file                           ... 01_H.scfp
The origin for moment calculation is the CENTER OF MASS  = ( 0.000000,  0.000000  0.000000)

-------------
DIPOLE MOMENT
-------------
                                X             Y             Z
Electronic contribution:     -0.00000       0.00000       0.00000
Nuclear contribution   :      0.00000       0.00000       0.00000
                        -----------------------------------------
Total Dipole Moment    :     -0.00000       0.00000       0.00000
                        -----------------------------------------
Magnitude (a.u.)       :      0.00000
Magnitude (Debye)      :      0.00000



--------------------
Rotational spectrum 
--------------------
 
Rotational constants in cm-1:     0.000000     0.000000     0.000000 
Rotational constants in MHz :     0.000000     0.000000     0.000000 

 Dipole components along the rotational axes: 
x,y,z [a.u.] :    -0.000000     0.000000     0.000000 
x,y,z [Debye]:    -0.000000     0.000000     0.000000 

 

Timings for individual modules:

Sum of individual times         ...        2.169 sec (=   0.036 min)
GTO integral calculation        ...        0.378 sec (=   0.006 min)  17.4 %
SCF iterations                  ...        1.610 sec (=   0.027 min)  74.2 %
MP2 module                      ...        0.181 sec (=   0.003 min)   8.4 %
                             ****ORCA TERMINATED NORMALLY****
TOTAL RUN TIME: 0 days 0 hours 0 minutes 2 seconds 517 msec
