
                                 *****************
                                 * O   R   C   A *
                                 *****************

           --- An Ab Initio, DFT and Semiempirical electronic structure package ---

                  #######################################################
                  #                        -***-                        #
                  #          Department of theory and spectroscopy      #
                  #               Directorship: Frank Neese             #
                  #        Max Planck Institute fuer Kohlenforschung    #
                  #                Kaiser Wilhelm Platz 1               #
                  #                 D-45470 Muelheim/Ruhr               #
                  #                      Germany                        #
                  #                                                     #
                  #                  All rights reserved                #
                  #                        -***-                        #
                  #######################################################


                         Program Version 4.2.0 -  RELEASE  -


 With contributions from (in alphabetic order):
   Daniel Aravena         : Magnetic Suceptibility
   Michael Atanasov       : Ab Initio Ligand Field Theory (pilot matlab implementation)
   Alexander A. Auer      : GIAO ZORA, VPT2
   Ute Becker             : Parallelization
   Giovanni Bistoni       : ED, misc. LED, open-shell LED, HFLED
   Martin Brehm           : Molecular dynamics
   Dmytro Bykov           : SCF Hessian
   Vijay G. Chilkuri      : MRCI spin determinant printing, contributions to CSF-ICE
   Dipayan Datta          : RHF DLPNO-CCSD density
   Achintya Kumar Dutta   : EOM-CC, STEOM-CC
   Dmitry Ganyushin       : Spin-Orbit,Spin-Spin,Magnetic field MRCI
   Miquel Garcia          : C-PCM Hessian, Gaussian charge scheme
   Yang Guo               : DLPNO-NEVPT2, CIM, IAO-localization
   Andreas Hansen         : Spin unrestricted coupled pair/coupled cluster methods
   Benjamin Helmich-Paris : CASSCF linear response (MC-RPA)
   Lee Huntington         : MR-EOM, pCC
   Robert Izsak           : Overlap fitted RIJCOSX, COSX-SCS-MP3, EOM
   Christian Kollmar      : KDIIS, OOCD, Brueckner-CCSD(T), CCSD density
   Simone Kossmann        : Meta GGA functionals, TD-DFT gradient, OOMP2, MP2 Hessian
   Martin Krupicka        : AUTO-CI
   Lucas Lang             : DCDCAS
   Dagmar Lenk            : GEPOL surface, SMD
   Dimitrios Liakos       : Extrapolation schemes; Compound Job, initial MDCI parallelization
   Dimitrios Manganas     : Further ROCIS development; embedding schemes
   Dimitrios Pantazis     : SARC Basis sets
   Taras Petrenko         : DFT Hessian,TD-DFT gradient, ASA, ECA, R-Raman, ABS, FL, XAS/XES, NRVS
   Peter Pinski           : DLPNO-MP2, DLPNO-MP2 Gradient
   Christoph Reimann      : Effective Core Potentials
   Marius Retegan         : Local ZFS, SOC
   Christoph Riplinger    : Optimizer, TS searches, QM/MM, DLPNO-CCSD(T), (RO)-DLPNO pert. Triples
   Tobias Risthaus        : Range-separated hybrids, TD-DFT gradient, RPA, STAB
   Michael Roemelt        : Original ROCIS implementation
   Masaaki Saitow         : Open-shell DLPNO-CCSD energy and density
   Barbara Sandhoefer     : DKH picture change effects
   Avijit Sen             : IP-ROCIS
   Kantharuban Sivalingam : CASSCF convergence, NEVPT2, FIC-MRCI
   Bernardo de Souza      : ESD, SOC TD-DFT
   Georgi Stoychev        : AutoAux, RI-MP2 NMR
   Willem Van den Heuvel  : Paramagnetic NMR
   Boris Wezisla          : Elementary symmetry handling
   Frank Wennmohs         : Technical directorship


 We gratefully acknowledge several colleagues who have allowed us to
 interface, adapt or use parts of their codes:
   Stefan Grimme, W. Hujo, H. Kruse,             : VdW corrections, initial TS optimization,
                  C. Bannwarth                     DFT functionals, gCP, sTDA/sTD-DF
   Ed Valeev, F. Pavosevic, A. Kumar             : LibInt (2-el integral package), F12 methods
   Garnet Chan, S. Sharma, J. Yang, R. Olivares  : DMRG
   Ulf Ekstrom                                   : XCFun DFT Library
   Mihaly Kallay                                 : mrcc  (arbitrary order and MRCC methods)
   Andreas Klamt, Michael Diedenhofen            : otool_cosmo (COSMO solvation model)
   Jiri Pittner, Ondrej Demel                    : Mk-CCSD
   Frank Weinhold                                : gennbo (NPA and NBO analysis)
   Christopher J. Cramer and Donald G. Truhlar   : smd solvation model
   Lars Goerigk                                  : TD-DFT with DH, B97 family of functionals
   V. Asgeirsson, H. Jonsson                     : NEB implementation
   FAccTs GmbH                                   : IRC, NEB, NEB-TS, Multilevel, MM, QM/MM, CI optimization
   S Lehtola, MJT Oliveira, MAL Marques          : LibXC Library


 Your calculation uses the libint2 library for the computation of 2-el integrals
 For citations please refer to: http://libint.valeyev.net

 Your ORCA version has been built with support for libXC version: 4.2.3
 For citations please refer to: https://tddft.org/programs/libxc/

 This ORCA versions uses:
   CBLAS   interface :  Fast vector & matrix operations
   LAPACKE interface :  Fast linear algebra routines
   SCALAPACK package :  Parallel linear algebra routines


----- Orbital basis set information -----
Your calculation utilizes the basis: aug-cc-pV5Z 
          H : Obtained from the ccRepo (grant-hill.group.shef.ac.uk/ccrepo) Feb. 2017
              T. H. Dunning, Jr., J. Chem. Phys. 90, 1007 (1989)
              Diffuse s exponent - S. Mielke, unpublished
         He : Obtained from the ccRepo (grant-hill.group.shef.ac.uk/ccrepo) Feb. 2017
              D. E. Woon, T. H. Dunning, Jr., J. Chem. Phys. 100, 2975 (1994)
  Li-Be, Na : Obtained from the ccRepo (grant-hill.group.shef.ac.uk/ccrepo) Feb. 2017
              B. P. Prascher, D. E. Woon, K. A. Peterson, T. H. Dunning, Jr., A. K. Wilson, Theor. Chem. Acc. 128, 69 (2011)
        B-F : Obtained from the ccRepo (grant-hill.group.shef.ac.uk/ccrepo) Feb. 2017
              R. A. Kendall, T. H. Dunning, Jr., R. J. Harrison, J. Chem. Phys. 96, 6796 (1992)
              T. H. Dunning, Jr., J. Chem. Phys. 90, 1007 (1989)
         Ne : Obtained from the ccRepo (grant-hill.group.shef.ac.uk/ccrepo) Feb. 2017
              T. H. Dunning, Jr., J. Chem. Phys. 90, 1007 (1989)
         Mg : Obtained from the Peterson Research Group Website (tyr0.chem.wsu.edu/~kipeters) Feb. 2017
              B. P. Prascher, D. E. Woon, K. A. Peterson, T. H. Dunning, Jr., A. K. Wilson, Theor. Chem. Acc. 128, 69 (2011)
      Al-Ar : Obtained from the ccRepo (grant-hill.group.shef.ac.uk/ccrepo) Feb. 2017
              D. E. Woon, T. H. Dunning, Jr., J. Chem. Phys. 98, 1358 (1993)
      Sc-Zn : Obtained from the ccRepo (grant-hill.group.shef.ac.uk/ccrepo) Feb. 2017
              N. B. Balabanov, K. A. Peterson, J. Chem. Phys. 123, 064107 (2005)
              N. B. Balabanov, K. A. Peterson, J. Chem. Phys. 125, 074110 (2006)
      Ga-Kr : Obtained from the ccRepo (grant-hill.group.shef.ac.uk/ccrepo) Feb. 2017
              A. K. Wilson, D. E. Woon, K. A. Peterson, T. H. Dunning, Jr., J. Chem. Phys. 110, 7667 (1999)

================================================================================
                                        WARNINGS
                       Please study these warnings very carefully!
================================================================================


WARNING: your system is open-shell and RHF/RKS was chosen
  ===> : WILL SWITCH to UHF/UKS


WARNING: MDCI localization with Augmented Hessian Foster-Boys
  ===> : Switching off randomization!

WARNING: Post HF methods need fully converged wavefunctions
  ===> : Setting SCFConvForced true
         You can overwrite this default with %scf ConvForced false 


INFO   : the flag for use of LIBINT has been found!

================================================================================
                                       INPUT FILE
================================================================================
NAME = 08_O.in
|  1> #
|  2> # 08_O CCSD(T)/aug-cc-pV5Z
|  3> #
|  4> ! CCSD(T) aug-cc-pV5Z tightscf
|  5> 
|  6> *xyz 0 3
|  7>  O 0.0 0.0 0.0
|  8> *
|  9> 
| 10> %maxcore 5000 
| 11> 
| 12> %pal
| 13> nprocs 15
| 14> end
| 15> 
| 16> 
| 17>                          ****END OF INPUT****
================================================================================

                       ****************************
                       * Single Point Calculation *
                       ****************************

---------------------------------
CARTESIAN COORDINATES (ANGSTROEM)
---------------------------------
  O      0.000000    0.000000    0.000000

----------------------------
CARTESIAN COORDINATES (A.U.)
----------------------------
  NO LB      ZA    FRAG     MASS         X           Y           Z
   0 O     8.0000    0    15.999    0.000000    0.000000    0.000000

--------------------------------
INTERNAL COORDINATES (ANGSTROEM)
--------------------------------
 O      0   0   0     0.000000000000     0.00000000     0.00000000

---------------------------
INTERNAL COORDINATES (A.U.)
---------------------------
 O      0   0   0     0.000000000000     0.00000000     0.00000000

---------------------
BASIS SET INFORMATION
---------------------
There are 1 groups of distinct atoms

 Group   1 Type O   : 25s9p5d4f3g2h contracted to 7s6p5d4f3g2h pattern {101011111/411111/11111/1111/111/11}

Atom   0O    basis set group =>   1


           ************************************************************
           *        Program running with 15 parallel MPI-processes    *
           *              working on a common directory               *
           ************************************************************
------------------------------------------------------------------------------
                           ORCA GTO INTEGRAL CALCULATION
------------------------------------------------------------------------------

                         BASIS SET STATISTICS AND STARTUP INFO

 # of primitive gaussian shells          ...   48
 # of primitive gaussian functions       ...  154
 # of contracted shells                  ...   27
 # of contracted basis functions         ...  127
 Highest angular momentum                ...    5
 Maximum contraction depth               ...   10
 Integral package used                   ... LIBINT
 Integral threshhold            Thresh   ...  2.500e-11
 Primitive cut-off              TCut     ...  2.500e-12


------------------------------ INTEGRAL EVALUATION ----------------------------


 * One electron integrals 
 Pre-screening matrix                    ... done
 Shell pair data                         ... done (   0.000 sec)



           ************************************************************
           *        Program running with 15 parallel MPI-processes    *
           *              working on a common directory               *
           ************************************************************
-------------------------------------------------------------------------------
                                 ORCA SCF
-------------------------------------------------------------------------------

------------
SCF SETTINGS
------------
Hamiltonian:
 Ab initio Hamiltonian  Method          .... Hartree-Fock(GTOs)


General Settings:
 Integral files         IntName         .... 08_O
 Hartree-Fock type      HFTyp           .... UHF
 Total Charge           Charge          ....    0
 Multiplicity           Mult            ....    3
 Number of Electrons    NEL             ....    8
 Basis Dimension        Dim             ....  127
 Nuclear Repulsion      ENuc            ....      0.0000000000 Eh

Convergence Acceleration:
 DIIS                   CNVDIIS         .... on
   Start iteration      DIISMaxIt       ....    12
   Startup error        DIISStart       ....  0.200000
   # of expansion vecs  DIISMaxEq       ....     5
   Bias factor          DIISBfac        ....   1.050
   Max. coefficient     DIISMaxC        ....  10.000
 Newton-Raphson         CNVNR           .... off
 SOSCF                  CNVSOSCF        .... off
 Level Shifting         CNVShift        .... on
   Level shift para.    LevelShift      ....    0.2500
   Turn off err/grad.   ShiftErr        ....    0.0010
 Zerner damping         CNVZerner       .... off
 Static damping         CNVDamp         .... on
   Fraction old density DampFac         ....    0.7000
   Max. Damping (<1)    DampMax         ....    0.9800
   Min. Damping (>=0)   DampMin         ....    0.0000
   Turn off err/grad.   DampErr         ....    0.1000
 Fernandez-Rico         CNVRico         .... off

SCF Procedure:
 Maximum # iterations   MaxIter         ....   125
 SCF integral mode      SCFMode         .... Direct
   Integral package                     .... LIBINT
 Reset frequency        DirectResetFreq ....    20
 Integral Threshold     Thresh          ....  2.500e-11 Eh
 Primitive CutOff       TCut            ....  2.500e-12 Eh

Convergence Tolerance:
 Convergence Check Mode ConvCheckMode   .... Total+1el-Energy
 Convergence forced     ConvForced      .... 1
 Energy Change          TolE            ....  1.000e-08 Eh
 1-El. energy change                    ....  1.000e-05 Eh
 DIIS Error             TolErr          ....  5.000e-07


Diagonalization of the overlap matrix:
Smallest eigenvalue                        ... 1.660e-03
Time for diagonalization                   ...    0.004 sec
Threshold for overlap eigenvalues          ... 1.000e-08
Number of eigenvalues below threshold      ... 0
Time for construction of square roots      ...    0.008 sec
Total time needed                          ...    0.012 sec

-------------------
DFT GRID GENERATION
-------------------

General Integration Accuracy     IntAcc      ...  4.340
Radial Grid Type                 RadialGrid  ... Gauss-Chebyshev
Angular Grid (max. acc.)         AngularGrid ... Lebedev-110
Angular grid pruning method      GridPruning ... 3 (G Style)
Weight generation scheme         WeightScheme... Becke
Basis function cutoff            BFCut       ...    1.0000e-11
Integration weight cutoff        WCut        ...    1.0000e-14
Grids for H and He will be reduced by one unit

# of grid points (after initial pruning)     ...   1716 (   0.0 sec)
# of grid points (after weights+screening)   ...   1716 (   0.0 sec)
Grid point division into batches done        ...    0.0 sec
Reduced shell lists constructed in    0.0 sec

Total number of grid points                  ...     1716
Total number of batches                      ...       27
Average number of points per batch           ...       63
Average number of grid points per atom       ...     1716
Average number of shells per batch           ...    11.33 (41.98%)
Average number of basis functions per batch  ...    54.00 (42.52%)
Average number of large shells per batch     ...     9.33 (82.35%)
Average number of large basis fcns per batch ...    42.67 (79.01%)
Maximum spatial batch extension              ...  13.89, 25.65, 25.65 au
Average spatial batch extension              ...   1.03,  1.90,  1.90 au

Time for grid setup =    0.030 sec

------------------------------
INITIAL GUESS: MODEL POTENTIAL
------------------------------
Loading Hartree-Fock densities                     ... done
Calculating cut-offs                               ... done
Setting up the integral package                    ... done
Initializing the effective Hamiltonian             ... done
Starting the Coulomb interaction                   ... done (   0.0 sec)
Reading the grid                                   ... done
Mapping shells                                     ... done
Starting the XC term evaluation                    ... done (   0.0 sec)
Transforming the Hamiltonian                       ... done (   0.0 sec)
Diagonalizing the Hamiltonian                      ... done (   0.0 sec)
Back transforming the eigenvectors                 ... done (   0.0 sec)
Now organizing SCF variables                       ... done
                      ------------------
                      INITIAL GUESS DONE (   0.1 sec)
                      ------------------
--------------
SCF ITERATIONS
--------------
ITER       Energy         Delta-E        Max-DP      RMS-DP      [F,P]     Damp
               ***  Starting incremental Fock matrix formation  ***
  0    -74.7963812321   0.000000000000 0.00627406  0.00012689  0.2716674 0.7000
  1    -74.8018265731  -0.005445341030 0.00456506  0.00010650  0.1941011 0.7000
                               ***Turning on DIIS***
  2    -74.8060871510  -0.004260577919 0.00367141  0.00008254  0.1381810 0.7000
  3    -74.7692715993   0.036815551725 0.01198978  0.00024208  0.0984697 0.0000
  4    -74.8153472422  -0.046075642926 0.00250139  0.00005297  0.0084619 0.0000
  5    -74.8197404058  -0.004393163563 0.00165670  0.00003810  0.0034211 0.0000
  6    -74.8183615652   0.001378840632 0.00094556  0.00001760  0.0015806 0.0000
  7    -74.8189061335  -0.000544568346 0.00044098  0.00000708  0.0004330 0.0000
  8    -74.8189107600  -0.000004626503 0.00013916  0.00000228  0.0001029 0.0000
  9    -74.8188507689   0.000059991101 0.00003610  0.00000065  0.0000121 0.0000
 10    -74.8188412672   0.000009501742 0.00001596  0.00000029  0.0000041 0.0000
 11    -74.8188400724   0.000001194718 0.00000714  0.00000013  0.0000020 0.0000
                            ***DIIS convergence achieved***

               *****************************************************
               *                     SUCCESS                       *
               *           SCF CONVERGED AFTER  12 CYCLES          *
               *****************************************************


----------------
TOTAL SCF ENERGY
----------------

Total Energy       :          -74.81883861 Eh           -2035.92410 eV

Components:
Nuclear Repulsion  :            0.00000000 Eh               0.00000 eV
Electronic Energy  :          -74.81883861 Eh           -2035.92410 eV
One Electron Energy:         -103.25150682 Eh           -2809.61634 eV
Two Electron Energy:           28.43266821 Eh             773.69224 eV

Virial components:
Potential Energy   :         -149.63731504 Eh           -4071.83835 eV
Kinetic Energy     :           74.81847643 Eh            2035.91425 eV
Virial Ratio       :            2.00000484


---------------
SCF CONVERGENCE
---------------

  Last Energy change         ...    1.4615e-06  Tolerance :   1.0000e-08
  Last MAX-Density change    ...    1.3561e-06  Tolerance :   1.0000e-07
  Last RMS-Density change    ...    2.5923e-08  Tolerance :   5.0000e-09
  Last DIIS Error            ...    3.8051e-07  Tolerance :   5.0000e-07

             **** THE GBW FILE WAS UPDATED (08_O.gbw) ****
             **** DENSITY FILE WAS UPDATED (08_O.scfp) ****
             **** ENERGY FILE WAS UPDATED (08_O.en.tmp) ****
----------------------
UHF SPIN CONTAMINATION
----------------------

Expectation value of <S**2>     :     2.009377
Ideal value S*(S+1) for S=1.0   :     2.000000
Deviation                       :     0.009377

             **** THE GBW FILE WAS UPDATED (08_O.gbw) ****
             **** DENSITY FILE WAS UPDATED (08_O.scfp) ****
----------------
ORBITAL ENERGIES
----------------
                 SPIN UP ORBITALS
  NO   OCC          E(Eh)            E(eV) 
   0   1.0000     -20.707589      -563.4821 
   1   1.0000      -1.418321       -38.5945 
   2   1.0000      -0.711072       -19.3493 
   3   1.0000      -0.711072       -19.3493 
   4   1.0000      -0.611630       -16.6433 
   5   0.0000       0.104286         2.8378 
   6   0.0000       0.104286         2.8378 
   7   0.0000       0.109744         2.9863 
   8   0.0000       0.121303         3.3008 
   9   0.0000       0.391810        10.6617 
  10   0.0000       0.391810        10.6617 
  11   0.0000       0.400929        10.9098 
  12   0.0000       0.400929        10.9098 
  13   0.0000       0.404129        10.9969 
  14   0.0000       0.470575        12.8050 
  15   0.0000       0.470575        12.8050 
  16   0.0000       0.493103        13.4180 
  17   0.0000       0.722423        19.6581 
  18   0.0000       0.957958        26.0674 
  19   0.0000       0.957958        26.0674 
  20   0.0000       0.967994        26.3404 
  21   0.0000       0.967994        26.3404 
  22   0.0000       0.974163        26.5083 
  23   0.0000       0.974163        26.5083 
  24   0.0000       0.976251        26.5651 
  25   0.0000       1.209312        32.9070 
  26   0.0000       1.209312        32.9070 
  27   0.0000       1.239206        33.7205 
  28   0.0000       1.239206        33.7205 
  29   0.0000       1.249935        34.0125 
  30   0.0000       1.597387        43.4671 
  31   0.0000       1.597387        43.4671 
  32   0.0000       1.647948        44.8429 
  33   0.0000       2.573148        70.0189 
  34   0.0000       2.573148        70.0189 
  35   0.0000       2.588290        70.4310 
  36   0.0000       2.588290        70.4310 
  37   0.0000       2.599293        70.7304 
  38   0.0000       2.599293        70.7304 
  39   0.0000       2.605978        70.9123 
  40   0.0000       2.605978        70.9123 
  41   0.0000       2.608221        70.9733 
  42   0.0000       2.818123        76.6850 
  43   0.0000       2.818123        76.6850 
  44   0.0000       2.829210        76.9867 
  45   0.0000       2.845285        77.4241 
  46   0.0000       2.845285        77.4241 
  47   0.0000       2.861941        77.8774 
  48   0.0000       2.861941        77.8774 
  49   0.0000       2.867566        78.0304 
  50   0.0000       3.151568        85.7585 
  51   0.0000       3.151568        85.7585 
  52   0.0000       3.203539        87.1727 
  53   0.0000       3.203539        87.1727 
  54   0.0000       3.221901        87.6724 
  55   0.0000       4.787388       130.2714 
  56   0.0000       4.787388       130.2714 
  57   0.0000       4.860634       132.2646 
  58   0.0000       6.117036       166.4530 
  59   0.0000       6.117036       166.4530 
  60   0.0000       6.137283       167.0040 
  61   0.0000       6.137283       167.0040 
  62   0.0000       6.153165       167.4361 
  63   0.0000       6.153165       167.4361 
  64   0.0000       6.164584       167.7469 
  65   0.0000       6.164584       167.7469 
  66   0.0000       6.171466       167.9341 
  67   0.0000       6.171466       167.9341 
  68   0.0000       6.173765       167.9967 
  69   0.0000       6.976015       189.8270 
  70   0.0000       6.976015       189.8270 
  71   0.0000       7.006945       190.6687 
  72   0.0000       7.006945       190.6687 
  73   0.0000       7.029303       191.2771 
  74   0.0000       7.029303       191.2771 
  75   0.0000       7.042832       191.6452 
  76   0.0000       7.042832       191.6452 
  77   0.0000       7.047363       191.7685 
  78   0.0000       7.282463       198.1659 
  79   0.0000       7.282463       198.1659 
  80   0.0000       7.327964       199.4040 
  81   0.0000       7.327964       199.4040 
  82   0.0000       7.355709       200.1590 
  83   0.0000       7.355709       200.1590 
  84   0.0000       7.365043       200.4130 
  85   0.0000       8.212374       223.4700 
  86   0.0000       8.212374       223.4700 
  87   0.0000       8.275226       225.1803 
  88   0.0000       8.275226       225.1803 
  89   0.0000       8.296897       225.7700 
  90   0.0000      10.077963       274.2353 
  91   0.0000      15.579618       423.9430 
  92   0.0000      15.579618       423.9430 
  93   0.0000      15.646487       425.7626 
  94   0.0000      16.104406       438.2232 
  95   0.0000      16.104406       438.2232 
  96   0.0000      16.137102       439.1129 
  97   0.0000      16.137102       439.1129 
  98   0.0000      16.162695       439.8093 
  99   0.0000      16.162695       439.8093 
 100   0.0000      16.181065       440.3092 
 101   0.0000      16.181065       440.3092 
 102   0.0000      16.192123       440.6101 
 103   0.0000      16.192123       440.6101 
 104   0.0000      16.195815       440.7105 
 105   0.0000      18.937758       515.3226 
 106   0.0000      18.937758       515.3226 
 107   0.0000      18.980236       516.4785 
 108   0.0000      18.980236       516.4785 
 109   0.0000      19.010779       517.3096 
 110   0.0000      19.010779       517.3096 
 111   0.0000      19.029188       517.8105 
 112   0.0000      19.029188       517.8105 
 113   0.0000      19.032321       517.8958 
 114   0.0000      19.032321       517.8958 
 115   0.0000      19.035338       517.9779 
 116   0.0000      19.083226       519.2810 
 117   0.0000      19.083226       519.2810 
 118   0.0000      19.114066       520.1202 
 119   0.0000      19.114066       520.1202 
 120   0.0000      19.124401       520.4014 
 121   0.0000      21.908145       596.1509 
 122   0.0000      21.908145       596.1509 
 123   0.0000      21.965708       597.7173 
 124   0.0000      21.965708       597.7173 
 125   0.0000      21.985216       598.2482 
 126   0.0000      59.710086      1624.7940 

                 SPIN DOWN ORBITALS
  NO   OCC          E(Eh)            E(eV) 
   0   1.0000     -20.629231      -561.3499 
   1   1.0000      -1.075572       -29.2678 
   2   1.0000      -0.521681       -14.1957 
   3   0.0000       0.057801         1.5728 
   4   0.0000       0.057801         1.5728 
   5   0.0000       0.111682         3.0390 
   6   0.0000       0.130225         3.5436 
   7   0.0000       0.159001         4.3266 
   8   0.0000       0.159001         4.3266 
   9   0.0000       0.402787        10.9604 
  10   0.0000       0.402787        10.9604 
  11   0.0000       0.405153        11.0248 
  12   0.0000       0.405153        11.0248 
  13   0.0000       0.406162        11.0522 
  14   0.0000       0.506117        13.7721 
  15   0.0000       0.565959        15.4005 
  16   0.0000       0.565959        15.4005 
  17   0.0000       0.764260        20.7966 
  18   0.0000       0.966030        26.2870 
  19   0.0000       0.966030        26.2870 
  20   0.0000       0.972608        26.4660 
  21   0.0000       0.972608        26.4660 
  22   0.0000       0.976595        26.5745 
  23   0.0000       0.976595        26.5745 
  24   0.0000       0.977917        26.6105 
  25   0.0000       1.278046        34.7774 
  26   0.0000       1.280317        34.8392 
  27   0.0000       1.280317        34.8392 
  28   0.0000       1.289748        35.0958 
  29   0.0000       1.289748        35.0958 
  30   0.0000       1.677495        45.6469 
  31   0.0000       1.729431        47.0602 
  32   0.0000       1.729431        47.0602 
  33   0.0000       2.588058        70.4246 
  34   0.0000       2.588058        70.4246 
  35   0.0000       2.598832        70.7178 
  36   0.0000       2.598832        70.7178 
  37   0.0000       2.606542        70.9276 
  38   0.0000       2.606542        70.9276 
  39   0.0000       2.611168        71.0535 
  40   0.0000       2.611168        71.0535 
  41   0.0000       2.612710        71.0954 
  42   0.0000       2.866838        78.0106 
  43   0.0000       2.866838        78.0106 
  44   0.0000       2.877711        78.3065 
  45   0.0000       2.877711        78.3065 
  46   0.0000       2.884192        78.4829 
  47   0.0000       2.884192        78.4829 
  48   0.0000       2.886340        78.5413 
  49   0.0000       2.908608        79.1472 
  50   0.0000       3.288090        89.4735 
  51   0.0000       3.291491        89.5660 
  52   0.0000       3.291491        89.5660 
  53   0.0000       3.305233        89.9400 
  54   0.0000       3.305233        89.9400 
  55   0.0000       4.900062       133.3375 
  56   0.0000       4.919724       133.8725 
  57   0.0000       4.919724       133.8725 
  58   0.0000       6.140480       167.0910 
  59   0.0000       6.140480       167.0910 
  60   0.0000       6.155675       167.5044 
  61   0.0000       6.155675       167.5044 
  62   0.0000       6.167544       167.8274 
  63   0.0000       6.167544       167.8274 
  64   0.0000       6.176049       168.0588 
  65   0.0000       6.176049       168.0588 
  66   0.0000       6.181164       168.1980 
  67   0.0000       6.181164       168.1980 
  68   0.0000       6.182870       168.2444 
  69   0.0000       7.026481       191.2003 
  70   0.0000       7.026481       191.2003 
  71   0.0000       7.045250       191.7110 
  72   0.0000       7.045250       191.7110 
  73   0.0000       7.058662       192.0760 
  74   0.0000       7.058662       192.0760 
  75   0.0000       7.066708       192.2949 
  76   0.0000       7.066708       192.2949 
  77   0.0000       7.069389       192.3679 
  78   0.0000       7.379974       200.8193 
  79   0.0000       7.379974       200.8193 
  80   0.0000       7.397076       201.2847 
  81   0.0000       7.397076       201.2847 
  82   0.0000       7.407322       201.5635 
  83   0.0000       7.407322       201.5635 
  84   0.0000       7.410735       201.6564 
  85   0.0000       8.360234       227.4935 
  86   0.0000       8.360234       227.4935 
  87   0.0000       8.364787       227.6174 
  88   0.0000       8.364787       227.6174 
  89   0.0000       8.366421       227.6619 
  90   0.0000      10.157102       276.3888 
  91   0.0000      15.671876       426.4534 
  92   0.0000      15.671876       426.4534 
  93   0.0000      15.678513       426.6340 
  94   0.0000      16.155011       439.6002 
  95   0.0000      16.155011       439.6002 
  96   0.0000      16.178359       440.2355 
  97   0.0000      16.178359       440.2355 
  98   0.0000      16.196594       440.7317 
  99   0.0000      16.196594       440.7317 
 100   0.0000      16.209661       441.0873 
 101   0.0000      16.209661       441.0873 
 102   0.0000      16.217517       441.3011 
 103   0.0000      16.217517       441.3011 
 104   0.0000      16.220139       441.3724 
 105   0.0000      19.014932       517.4226 
 106   0.0000      19.014932       517.4226 
 107   0.0000      19.040829       518.1273 
 108   0.0000      19.040829       518.1273 
 109   0.0000      19.059379       518.6321 
 110   0.0000      19.059379       518.6321 
 111   0.0000      19.070530       518.9355 
 112   0.0000      19.070530       518.9355 
 113   0.0000      19.074251       519.0368 
 114   0.0000      19.130464       520.5664 
 115   0.0000      19.130464       520.5664 
 116   0.0000      19.154825       521.2293 
 117   0.0000      19.154825       521.2293 
 118   0.0000      19.169505       521.6287 
 119   0.0000      19.169505       521.6287 
 120   0.0000      19.174409       521.7622 
 121   0.0000      22.004944       598.7850 
 122   0.0000      22.004944       598.7850 
 123   0.0000      22.025965       599.3570 
 124   0.0000      22.025965       599.3570 
 125   0.0000      22.033055       599.5499 
 126   0.0000      59.741976      1625.6618 

                    ********************************
                    * MULLIKEN POPULATION ANALYSIS *
                    ********************************

--------------------------------------------
MULLIKEN ATOMIC CHARGES AND SPIN POPULATIONS
--------------------------------------------
   0 O :   -0.000000    2.000000
Sum of atomic charges         :   -0.0000000
Sum of atomic spin populations:    2.0000000

-----------------------------------------------------
MULLIKEN REDUCED ORBITAL CHARGES AND SPIN POPULATIONS
-----------------------------------------------------
CHARGE
  0 O s       :     3.998389  s :     3.998389
      pz      :     1.981366  p :     3.999600
      px      :     1.018342
      py      :     0.999891
      dz2     :     0.001523  d :     0.001611
      dxz     :     0.000088
      dyz     :     0.000000
      dx2y2   :     0.000000
      dxy     :     0.000000
      f0      :     0.000175  f :     0.000400
      f+1     :     0.000112
      f-1     :     0.000104
      f+2     :     0.000005
      f-2     :     0.000005
      f+3     :     0.000000
      f-3     :     0.000000
      g0      :     0.000000  g :     0.000000
      g+1     :     0.000000
      g-1     :     0.000000
      g+2     :     0.000000
      g-2     :     0.000000
      g+3     :     0.000000
      g-3     :     0.000000
      g+4     :     0.000000
      g-4     :     0.000000
      h0      :     0.000000  h :     0.000000
      h+1     :     0.000000
      h-1     :     0.000000
      h+2     :     0.000000
      h-2     :     0.000000
      h+3     :     0.000000
      h-3     :     0.000000
      h+4     :     0.000000
      h-4     :     0.000000
      h+5     :     0.000000
      h-5     :     0.000000

SPIN
  0 O s       :     0.000622  s :     0.000622
      pz      :     0.018279  p :     1.999608
      px      :     0.981438
      py      :     0.999891
      dz2     :    -0.000588  d :    -0.000622
      dxz     :    -0.000034
      dyz     :    -0.000000
      dx2y2   :    -0.000000
      dxy     :    -0.000000
      f0      :     0.000167  f :     0.000392
      f+1     :     0.000111
      f-1     :     0.000104
      f+2     :     0.000005
      f-2     :     0.000005
      f+3     :     0.000000
      f-3     :     0.000000
      g0      :     0.000000  g :     0.000000
      g+1     :     0.000000
      g-1     :     0.000000
      g+2     :     0.000000
      g-2     :     0.000000
      g+3     :     0.000000
      g-3     :     0.000000
      g+4     :     0.000000
      g-4     :     0.000000
      h0      :     0.000000  h :     0.000000
      h+1     :     0.000000
      h-1     :     0.000000
      h+2     :     0.000000
      h-2     :     0.000000
      h+3     :     0.000000
      h-3     :     0.000000
      h+4     :     0.000000
      h-4     :     0.000000
      h+5     :     0.000000
      h-5     :     0.000000


                     *******************************
                     * LOEWDIN POPULATION ANALYSIS *
                     *******************************

-------------------------------------------
LOEWDIN ATOMIC CHARGES AND SPIN POPULATIONS
-------------------------------------------
   0 O :   -0.000000    2.000000

----------------------------------------------------
LOEWDIN REDUCED ORBITAL CHARGES AND SPIN POPULATIONS
----------------------------------------------------
CHARGE
  0 O s       :     3.998389  s :     3.998389
      pz      :     1.981366  p :     3.999600
      px      :     1.018342
      py      :     0.999891
      dz2     :     0.001523  d :     0.001611
      dxz     :     0.000088
      dyz     :     0.000000
      dx2y2   :     0.000000
      dxy     :     0.000000
      f0      :     0.000175  f :     0.000400
      f+1     :     0.000112
      f-1     :     0.000104
      f+2     :     0.000005
      f-2     :     0.000005
      f+3     :     0.000000
      f-3     :     0.000000
      g0      :     0.000000  g :     0.000000
      g+1     :     0.000000
      g-1     :     0.000000
      g+2     :     0.000000
      g-2     :     0.000000
      g+3     :     0.000000
      g-3     :     0.000000
      g+4     :     0.000000
      g-4     :     0.000000
      h0      :     0.000000  h :     0.000000
      h+1     :     0.000000
      h-1     :     0.000000
      h+2     :     0.000000
      h-2     :     0.000000
      h+3     :     0.000000
      h-3     :     0.000000
      h+4     :     0.000000
      h-4     :     0.000000
      h+5     :     0.000000
      h-5     :     0.000000

SPIN
  0 O s       :     0.000622  s :     0.000622
      pz      :     0.018279  p :     1.999608
      px      :     0.981438
      py      :     0.999891
      dz2     :    -0.000588  d :    -0.000622
      dxz     :    -0.000034
      dyz     :    -0.000000
      dx2y2   :    -0.000000
      dxy     :    -0.000000
      f0      :     0.000167  f :     0.000392
      f+1     :     0.000111
      f-1     :     0.000104
      f+2     :     0.000005
      f-2     :     0.000005
      f+3     :     0.000000
      f-3     :     0.000000
      g0      :     0.000000  g :     0.000000
      g+1     :     0.000000
      g-1     :     0.000000
      g+2     :     0.000000
      g-2     :     0.000000
      g+3     :     0.000000
      g-3     :     0.000000
      g+4     :     0.000000
      g-4     :     0.000000
      h0      :     0.000000  h :     0.000000
      h+1     :     0.000000
      h-1     :     0.000000
      h+2     :     0.000000
      h-2     :     0.000000
      h+3     :     0.000000
      h-3     :     0.000000
      h+4     :     0.000000
      h-4     :     0.000000
      h+5     :     0.000000
      h-5     :     0.000000


                      *****************************
                      * MAYER POPULATION ANALYSIS *
                      *****************************

  NA   - Mulliken gross atomic population
  ZA   - Total nuclear charge
  QA   - Mulliken gross atomic charge
  VA   - Mayer's total valence
  BVA  - Mayer's bonded valence
  FA   - Mayer's free valence

  ATOM       NA         ZA         QA         VA         BVA        FA
  0 O      8.0000     8.0000    -0.0000     2.0188     0.0000     2.0188

  Mayer bond orders larger than 0.100000


-------
TIMINGS
-------

Total SCF time: 0 days 0 hours 0 min 4 sec 

Total time                  ....       4.874 sec
Sum of individual times     ....       4.405 sec  ( 90.4%)

Fock matrix formation       ....       3.957 sec  ( 81.2%)
Diagonalization             ....       0.101 sec  (  2.1%)
Density matrix formation    ....       0.015 sec  (  0.3%)
Population analysis         ....       0.052 sec  (  1.1%)
Initial guess               ....       0.112 sec  (  2.3%)
Orbital Transformation      ....       0.000 sec  (  0.0%)
Orbital Orthonormalization  ....       0.000 sec  (  0.0%)
DIIS solution               ....       0.139 sec  (  2.8%)


           ************************************************************
           *        Program running with 15 parallel MPI-processes    *
           *              working on a common directory               *
           ************************************************************


------------------------------------------------------------------------------- 
                              ORCA-MATRIX DRIVEN CI                            
------------------------------------------------------------------------------- 

--------------------------------
AUTOMATIC CHOICE OF INCORE LEVEL
--------------------------------

Memory available                           ...   2500.00 MB
Memory needed for S+T                      ...      3.41 MB
Memory needed for J+K                      ...      6.83 MB
Memory needed for DIIS                     ...     47.69 MB
Memory needed for 3-ext                    ...     55.42 MB
Memory needed for 4-ext                    ...    852.01 MB
Memory needed for triples                  ...     69.27 MB
 -> Final InCoreLevel    ... 5
 -> check shows that triples correction can be computed


Wavefunction type
-----------------
Correlation treatment                      ...      CCSD     
Single excitations                         ... ON
Orbital optimization                       ... OFF
Calculation of Z vector                    ... OFF
Calculation of Brueckner orbitals          ... OFF
Perturbative triple excitations            ... ON
Calculation of F12 correction              ... OFF
Frozen core treatment                      ... chemical core (2 el)
Reference Wavefunction                     ... UHF
  Alpha-MOs occ    :     1 ...    4 (  4 MO's/  4 electrons)
  Beta-MOs occ     :     1 ...    2 (  2 MO's/  2 electrons)
  Alpha-MOs virt   :     5 ...  126 (122 MO's              )
  Beta-MOs virt    :     3 ...  126 (124 MO's              )
Number of AO's                             ...    127
Number of electrons                        ...      8
Number of correlated electrons             ...      6

Algorithmic settings
--------------------
Integral transformation                    ... AO direct full transformation
K(C) Formation                             ... FULL-MO TRAFO
Maximum number of iterations               ...        50
Convergence tolerance (max. residuum)      ... 1.000e-05
Level shift for amplitude update           ... 2.000e-01
Maximum number of DIIS vectors             ...         7
DIIS turned on at iteration                ...         0
Damping before turning on DIIS             ...     0.500
Damping after turning on DIIS              ...     0.000
Pair specific amplitude update             ... OFF
Natural orbital iterations                 ... OFF
Perturbative natural orbital generation    ... OFF
Printlevel                                 ... 2

Memory handling:
----------------
Maximum memory for working arrays          ...   2500 MB
Data storage in matrix containers          ... UNCOMPRESSED
Data type for integral storage             ... DOUBLE
In-Core Storage of quantities:
   Amplitudes+Sigma Vector      ... YES
   J+K operators                ... YES
   DIIS vectors                 ... YES
   3-external integrals         ... YES
   4-external integrals         ... YES


Initializing the integral package          ... done
Warning: reference  - re-canonicalizations have been set to INT 1 VIRT 1

--------------------------
UNRESTRICTED FOCK OPERATOR
--------------------------

<ss|ss>:          406 b            0 skpd (  0.0%)    0.001 s ( 0.003 ms/b)
<ss|sp>:         1176 b            0 skpd (  0.0%)    0.002 s ( 0.001 ms/b)
<ss|sd>:          980 b            0 skpd (  0.0%)    0.001 s ( 0.001 ms/b)
<ss|sf>:          784 b            0 skpd (  0.0%)    0.000 s ( 0.001 ms/b)
<ss|sg>:          588 b            0 skpd (  0.0%)    0.002 s ( 0.004 ms/b)
<ss|sh>:          392 b            0 skpd (  0.0%)    0.001 s ( 0.003 ms/b)
<ss|pp>:          588 b            0 skpd (  0.0%)    0.001 s ( 0.001 ms/b)
<ss|pd>:          840 b            0 skpd (  0.0%)    0.000 s ( 0.000 ms/b)
<ss|pf>:          672 b            0 skpd (  0.0%)    0.001 s ( 0.001 ms/b)
<ss|pg>:          504 b            0 skpd (  0.0%)    0.001 s ( 0.001 ms/b)
<ss|ph>:          336 b            0 skpd (  0.0%)    0.001 s ( 0.002 ms/b)
<ss|dd>:          420 b            0 skpd (  0.0%)    0.000 s ( 0.001 ms/b)
<ss|df>:          560 b            0 skpd (  0.0%)    0.001 s ( 0.002 ms/b)
<ss|dg>:          420 b            0 skpd (  0.0%)    0.001 s ( 0.002 ms/b)
<ss|dh>:          280 b            0 skpd (  0.0%)    0.001 s ( 0.002 ms/b)
<ss|ff>:          280 b            0 skpd (  0.0%)    0.000 s ( 0.002 ms/b)
<ss|fg>:          336 b            0 skpd (  0.0%)    0.001 s ( 0.002 ms/b)
<ss|fh>:          224 b            0 skpd (  0.0%)    0.001 s ( 0.004 ms/b)
<ss|gg>:          168 b            0 skpd (  0.0%)    0.001 s ( 0.005 ms/b)
<ss|gh>:          168 b            0 skpd (  0.0%)    0.001 s ( 0.008 ms/b)
<ss|hh>:           84 b            0 skpd (  0.0%)    0.001 s ( 0.011 ms/b)
<sp|sp>:          903 b            0 skpd (  0.0%)    0.001 s ( 0.001 ms/b)
<sp|sd>:         1470 b            0 skpd (  0.0%)    0.001 s ( 0.000 ms/b)
<sp|sf>:         1176 b            0 skpd (  0.0%)    0.001 s ( 0.000 ms/b)
<sp|sg>:          882 b            0 skpd (  0.0%)    0.001 s ( 0.002 ms/b)
<sp|sh>:          588 b            0 skpd (  0.0%)    0.001 s ( 0.002 ms/b)
<sp|pp>:          882 b            0 skpd (  0.0%)    0.001 s ( 0.001 ms/b)
<sp|pd>:         1260 b            0 skpd (  0.0%)    0.000 s ( 0.000 ms/b)
<sp|pf>:         1008 b            0 skpd (  0.0%)    0.001 s ( 0.001 ms/b)
<sp|pg>:          756 b            0 skpd (  0.0%)    0.001 s ( 0.001 ms/b)
<sp|ph>:          504 b            0 skpd (  0.0%)    0.001 s ( 0.002 ms/b)
<sp|dd>:          630 b            0 skpd (  0.0%)    0.000 s ( 0.000 ms/b)
<sp|df>:          840 b            0 skpd (  0.0%)    0.001 s ( 0.001 ms/b)
<sp|dg>:          630 b            0 skpd (  0.0%)    0.001 s ( 0.001 ms/b)
<sp|dh>:          420 b            0 skpd (  0.0%)    0.001 s ( 0.002 ms/b)
<sp|ff>:          420 b            0 skpd (  0.0%)    0.001 s ( 0.001 ms/b)
<sp|fg>:          504 b            0 skpd (  0.0%)    0.001 s ( 0.002 ms/b)
<sp|fh>:          336 b            0 skpd (  0.0%)    0.001 s ( 0.003 ms/b)
<sp|gg>:          252 b            0 skpd (  0.0%)    0.001 s ( 0.004 ms/b)
<sp|gh>:          252 b            0 skpd (  0.0%)    0.001 s ( 0.005 ms/b)
<sp|hh>:          126 b            0 skpd (  0.0%)    0.002 s ( 0.013 ms/b)
<sd|sd>:          630 b            0 skpd (  0.0%)    0.000 s ( 0.001 ms/b)
<sd|sf>:          980 b            0 skpd (  0.0%)    0.001 s ( 0.001 ms/b)
<sd|sg>:          735 b            0 skpd (  0.0%)    0.001 s ( 0.001 ms/b)
<sd|sh>:          490 b            0 skpd (  0.0%)    0.001 s ( 0.003 ms/b)
<sd|pp>:          735 b            0 skpd (  0.0%)    0.001 s ( 0.001 ms/b)
<sd|pd>:         1050 b            0 skpd (  0.0%)    0.001 s ( 0.001 ms/b)
<sd|pf>:          840 b            0 skpd (  0.0%)    0.001 s ( 0.001 ms/b)
<sd|pg>:          630 b            0 skpd (  0.0%)    0.001 s ( 0.002 ms/b)
<sd|ph>:          420 b            0 skpd (  0.0%)    0.001 s ( 0.003 ms/b)
<sd|dd>:          525 b            0 skpd (  0.0%)    0.000 s ( 0.001 ms/b)
<sd|df>:          700 b            0 skpd (  0.0%)    0.001 s ( 0.001 ms/b)
<sd|dg>:          525 b            0 skpd (  0.0%)    0.001 s ( 0.001 ms/b)
<sd|dh>:          350 b            0 skpd (  0.0%)    0.001 s ( 0.003 ms/b)
<sd|ff>:          350 b            0 skpd (  0.0%)    0.001 s ( 0.002 ms/b)
<sd|fg>:          420 b            0 skpd (  0.0%)    0.001 s ( 0.002 ms/b)
<sd|fh>:          280 b            0 skpd (  0.0%)    0.001 s ( 0.005 ms/b)
<sd|gg>:          210 b            0 skpd (  0.0%)    0.001 s ( 0.007 ms/b)
<sd|gh>:          210 b            0 skpd (  0.0%)    0.002 s ( 0.009 ms/b)
<sd|hh>:          105 b            0 skpd (  0.0%)    0.003 s ( 0.026 ms/b)
<sf|sf>:          406 b            0 skpd (  0.0%)    0.001 s ( 0.002 ms/b)
<sf|sg>:          588 b            0 skpd (  0.0%)    0.002 s ( 0.003 ms/b)
<sf|sh>:          392 b            0 skpd (  0.0%)    0.003 s ( 0.007 ms/b)
<sf|pp>:          588 b            0 skpd (  0.0%)    0.001 s ( 0.002 ms/b)
<sf|pd>:          840 b            0 skpd (  0.0%)    0.001 s ( 0.001 ms/b)
<sf|pf>:          672 b            0 skpd (  0.0%)    0.001 s ( 0.002 ms/b)
<sf|pg>:          504 b            0 skpd (  0.0%)    0.002 s ( 0.004 ms/b)
<sf|ph>:          336 b            0 skpd (  0.0%)    0.002 s ( 0.007 ms/b)
<sf|dd>:          420 b            0 skpd (  0.0%)    0.000 s ( 0.001 ms/b)
<sf|df>:          560 b            0 skpd (  0.0%)    0.001 s ( 0.002 ms/b)
<sf|dg>:          420 b            0 skpd (  0.0%)    0.001 s ( 0.002 ms/b)
<sf|dh>:          280 b            0 skpd (  0.0%)    0.001 s ( 0.005 ms/b)
<sf|ff>:          280 b            0 skpd (  0.0%)    0.001 s ( 0.004 ms/b)
<sf|fg>:          336 b            0 skpd (  0.0%)    0.002 s ( 0.005 ms/b)
<sf|fh>:          224 b            0 skpd (  0.0%)    0.002 s ( 0.010 ms/b)
<sf|gg>:          168 b            0 skpd (  0.0%)    0.002 s ( 0.014 ms/b)
<sf|gh>:          168 b            2 skpd (  1.2%)    0.004 s ( 0.022 ms/b)
<sf|hh>:           84 b            3 skpd (  3.6%)    0.004 s ( 0.054 ms/b)
<sg|sg>:          231 b            0 skpd (  0.0%)    0.002 s ( 0.007 ms/b)
<sg|sh>:          294 b            0 skpd (  0.0%)    0.004 s ( 0.015 ms/b)
<sg|pp>:          441 b            0 skpd (  0.0%)    0.002 s ( 0.004 ms/b)
<sg|pd>:          630 b            0 skpd (  0.0%)    0.001 s ( 0.002 ms/b)
<sg|pf>:          504 b            1 skpd (  0.2%)    0.002 s ( 0.003 ms/b)
<sg|pg>:          378 b           15 skpd (  4.0%)    0.003 s ( 0.008 ms/b)
<sg|ph>:          252 b            3 skpd (  1.2%)    0.004 s ( 0.015 ms/b)
<sg|dd>:          315 b            0 skpd (  0.0%)    0.000 s ( 0.002 ms/b)
<sg|df>:          420 b            0 skpd (  0.0%)    0.002 s ( 0.004 ms/b)
<sg|dg>:          315 b            0 skpd (  0.0%)    0.001 s ( 0.005 ms/b)
<sg|dh>:          210 b            0 skpd (  0.0%)    0.002 s ( 0.009 ms/b)
<sg|ff>:          210 b            0 skpd (  0.0%)    0.001 s ( 0.007 ms/b)
<sg|fg>:          252 b            6 skpd (  2.4%)    0.002 s ( 0.009 ms/b)
<sg|fh>:          168 b            7 skpd (  4.2%)    0.003 s ( 0.019 ms/b)
<sg|gg>:          126 b            0 skpd (  0.0%)    0.004 s ( 0.028 ms/b)
<sg|gh>:          126 b            2 skpd (  1.6%)    0.005 s ( 0.037 ms/b)
<sg|hh>:           63 b            0 skpd (  0.0%)    0.006 s ( 0.097 ms/b)
<sh|sh>:          105 b            0 skpd (  0.0%)    0.004 s ( 0.043 ms/b)
<sh|pp>:          294 b            0 skpd (  0.0%)    0.002 s ( 0.008 ms/b)
<sh|pd>:          420 b            0 skpd (  0.0%)    0.001 s ( 0.003 ms/b)
<sh|pf>:          336 b            0 skpd (  0.0%)    0.002 s ( 0.006 ms/b)
<sh|pg>:          252 b            4 skpd (  1.6%)    0.004 s ( 0.015 ms/b)
<sh|ph>:          168 b            9 skpd (  5.4%)    0.005 s ( 0.030 ms/b)
<sh|dd>:          210 b            0 skpd (  0.0%)    0.001 s ( 0.003 ms/b)
<sh|df>:          280 b            0 skpd (  0.0%)    0.002 s ( 0.007 ms/b)
<sh|dg>:          210 b            0 skpd (  0.0%)    0.002 s ( 0.008 ms/b)
<sh|dh>:          140 b            0 skpd (  0.0%)    0.002 s ( 0.017 ms/b)
<sh|ff>:          140 b            0 skpd (  0.0%)    0.002 s ( 0.013 ms/b)
<sh|fg>:          168 b            5 skpd (  3.0%)    0.003 s ( 0.016 ms/b)
<sh|fh>:          112 b           12 skpd ( 10.7%)    0.004 s ( 0.037 ms/b)
<sh|gg>:           84 b            0 skpd (  0.0%)    0.004 s ( 0.046 ms/b)
<sh|gh>:           84 b            1 skpd (  1.2%)    0.005 s ( 0.064 ms/b)
<sh|hh>:           42 b           19 skpd ( 45.2%)    0.002 s ( 0.088 ms/b)
<pp|pp>:          231 b            0 skpd (  0.0%)    0.000 s ( 0.001 ms/b)
<pp|pd>:          630 b            0 skpd (  0.0%)    0.000 s ( 0.001 ms/b)
<pp|pf>:          504 b            0 skpd (  0.0%)    0.001 s ( 0.001 ms/b)
<pp|pg>:          378 b            0 skpd (  0.0%)    0.001 s ( 0.002 ms/b)
<pp|ph>:          252 b            0 skpd (  0.0%)    0.001 s ( 0.003 ms/b)
<pp|dd>:          315 b            0 skpd (  0.0%)    0.000 s ( 0.001 ms/b)
<pp|df>:          420 b            0 skpd (  0.0%)    0.001 s ( 0.002 ms/b)
<pp|dg>:          315 b            0 skpd (  0.0%)    0.000 s ( 0.002 ms/b)
<pp|dh>:          210 b            0 skpd (  0.0%)    0.001 s ( 0.003 ms/b)
<pp|ff>:          210 b            0 skpd (  0.0%)    0.001 s ( 0.003 ms/b)
<pp|fg>:          252 b            0 skpd (  0.0%)    0.001 s ( 0.003 ms/b)
<pp|fh>:          168 b            0 skpd (  0.0%)    0.001 s ( 0.006 ms/b)
<pp|gg>:          126 b            0 skpd (  0.0%)    0.001 s ( 0.009 ms/b)
<pp|gh>:          126 b            0 skpd (  0.0%)    0.001 s ( 0.011 ms/b)
<pp|hh>:           63 b            0 skpd (  0.0%)    0.002 s ( 0.031 ms/b)
<pd|pd>:          465 b            0 skpd (  0.0%)    0.001 s ( 0.001 ms/b)
<pd|pf>:          720 b            0 skpd (  0.0%)    0.001 s ( 0.002 ms/b)
<pd|pg>:          540 b            0 skpd (  0.0%)    0.002 s ( 0.003 ms/b)
<pd|ph>:          360 b            0 skpd (  0.0%)    0.002 s ( 0.005 ms/b)
<pd|dd>:          450 b            0 skpd (  0.0%)    0.001 s ( 0.002 ms/b)
<pd|df>:          600 b            0 skpd (  0.0%)    0.002 s ( 0.003 ms/b)
<pd|dg>:          450 b            0 skpd (  0.0%)    0.001 s ( 0.003 ms/b)
<pd|dh>:          300 b            0 skpd (  0.0%)    0.002 s ( 0.006 ms/b)
<pd|ff>:          300 b            0 skpd (  0.0%)    0.001 s ( 0.004 ms/b)
<pd|fg>:          360 b            0 skpd (  0.0%)    0.002 s ( 0.005 ms/b)
<pd|fh>:          240 b            0 skpd (  0.0%)    0.002 s ( 0.010 ms/b)
<pd|gg>:          180 b            0 skpd (  0.0%)    0.003 s ( 0.015 ms/b)
<pd|gh>:          180 b            0 skpd (  0.0%)    0.004 s ( 0.020 ms/b)
<pd|hh>:           90 b            0 skpd (  0.0%)    0.005 s ( 0.053 ms/b)
<pf|pf>:          300 b            0 skpd (  0.0%)    0.001 s ( 0.004 ms/b)
<pf|pg>:          432 b            0 skpd (  0.0%)    0.002 s ( 0.006 ms/b)
<pf|ph>:          288 b            0 skpd (  0.0%)    0.002 s ( 0.009 ms/b)
<pf|dd>:          360 b            0 skpd (  0.0%)    0.001 s ( 0.002 ms/b)
<pf|df>:          480 b            0 skpd (  0.0%)    0.002 s ( 0.005 ms/b)
<pf|dg>:          360 b            0 skpd (  0.0%)    0.001 s ( 0.004 ms/b)
<pf|dh>:          240 b            0 skpd (  0.0%)    0.002 s ( 0.009 ms/b)
<pf|ff>:          240 b            0 skpd (  0.0%)    0.002 s ( 0.008 ms/b)
<pf|fg>:          288 b            0 skpd (  0.0%)    0.003 s ( 0.009 ms/b)
<pf|fh>:          192 b            0 skpd (  0.0%)    0.003 s ( 0.018 ms/b)
<pf|gg>:          144 b            0 skpd (  0.0%)    0.004 s ( 0.024 ms/b)
<pf|gh>:          144 b            0 skpd (  0.0%)    0.005 s ( 0.033 ms/b)
<pf|hh>:           72 b            0 skpd (  0.0%)    0.006 s ( 0.089 ms/b)
<pg|pg>:          171 b            0 skpd (  0.0%)    0.002 s ( 0.010 ms/b)
<pg|ph>:          216 b            0 skpd (  0.0%)    0.003 s ( 0.015 ms/b)
<pg|dd>:          270 b            0 skpd (  0.0%)    0.001 s ( 0.003 ms/b)
<pg|df>:          360 b            0 skpd (  0.0%)    0.002 s ( 0.007 ms/b)
<pg|dg>:          270 b           13 skpd (  4.8%)    0.002 s ( 0.007 ms/b)
<pg|dh>:          180 b            2 skpd (  1.1%)    0.002 s ( 0.013 ms/b)
<pg|ff>:          180 b            0 skpd (  0.0%)    0.002 s ( 0.011 ms/b)
<pg|fg>:          216 b            0 skpd (  0.0%)    0.003 s ( 0.016 ms/b)
<pg|fh>:          144 b            0 skpd (  0.0%)    0.004 s ( 0.026 ms/b)
<pg|gg>:          108 b           22 skpd ( 20.4%)    0.004 s ( 0.047 ms/b)
<pg|gh>:          108 b            0 skpd (  0.0%)    0.006 s ( 0.054 ms/b)
<pg|hh>:           54 b            0 skpd (  0.0%)    0.008 s ( 0.140 ms/b)
<ph|ph>:           78 b            0 skpd (  0.0%)    0.002 s ( 0.024 ms/b)
<ph|dd>:          180 b            0 skpd (  0.0%)    0.001 s ( 0.004 ms/b)
<ph|df>:          240 b            0 skpd (  0.0%)    0.002 s ( 0.010 ms/b)
<ph|dg>:          180 b            2 skpd (  1.1%)    0.002 s ( 0.010 ms/b)
<ph|dh>:          120 b            2 skpd (  1.7%)    0.003 s ( 0.022 ms/b)
<ph|ff>:          120 b            0 skpd (  0.0%)    0.002 s ( 0.016 ms/b)
<ph|fg>:          144 b            0 skpd (  0.0%)    0.003 s ( 0.019 ms/b)
<ph|fh>:           96 b            0 skpd (  0.0%)    0.004 s ( 0.041 ms/b)
<ph|gg>:           72 b            0 skpd (  0.0%)    0.004 s ( 0.061 ms/b)
<ph|gh>:           72 b            0 skpd (  0.0%)    0.006 s ( 0.080 ms/b)
<ph|hh>:           36 b            0 skpd (  0.0%)    0.009 s ( 0.236 ms/b)
<dd|dd>:          120 b            0 skpd (  0.0%)    0.000 s ( 0.004 ms/b)
<dd|df>:          300 b            0 skpd (  0.0%)    0.002 s ( 0.005 ms/b)
<dd|dg>:          225 b            0 skpd (  0.0%)    0.001 s ( 0.005 ms/b)
<dd|dh>:          150 b            0 skpd (  0.0%)    0.001 s ( 0.010 ms/b)
<dd|ff>:          150 b            0 skpd (  0.0%)    0.001 s ( 0.008 ms/b)
<dd|fg>:          180 b            0 skpd (  0.0%)    0.002 s ( 0.009 ms/b)
<dd|fh>:          120 b            0 skpd (  0.0%)    0.002 s ( 0.017 ms/b)
<dd|gg>:           90 b            0 skpd (  0.0%)    0.002 s ( 0.026 ms/b)
<dd|gh>:           90 b            0 skpd (  0.0%)    0.003 s ( 0.034 ms/b)
<dd|hh>:           45 b            0 skpd (  0.0%)    0.004 s ( 0.096 ms/b)
<df|df>:          210 b            0 skpd (  0.0%)    0.002 s ( 0.010 ms/b)
<df|dg>:          300 b            0 skpd (  0.0%)    0.003 s ( 0.009 ms/b)
<df|dh>:          200 b            0 skpd (  0.0%)    0.003 s ( 0.015 ms/b)
<df|ff>:          200 b            0 skpd (  0.0%)    0.003 s ( 0.014 ms/b)
<df|fg>:          240 b            0 skpd (  0.0%)    0.004 s ( 0.016 ms/b)
<df|fh>:          160 b            0 skpd (  0.0%)    0.005 s ( 0.030 ms/b)
<df|gg>:          120 b            0 skpd (  0.0%)    0.005 s ( 0.043 ms/b)
<df|gh>:          120 b            0 skpd (  0.0%)    0.007 s ( 0.057 ms/b)
<df|hh>:           60 b            0 skpd (  0.0%)    0.010 s ( 0.161 ms/b)
<dg|dg>:          120 b            0 skpd (  0.0%)    0.003 s ( 0.021 ms/b)
<dg|dh>:          150 b            0 skpd (  0.0%)    0.003 s ( 0.022 ms/b)
<dg|ff>:          150 b            0 skpd (  0.0%)    0.003 s ( 0.018 ms/b)
<dg|fg>:          180 b            3 skpd (  1.7%)    0.004 s ( 0.023 ms/b)
<dg|fh>:          120 b            2 skpd (  1.7%)    0.005 s ( 0.041 ms/b)
<dg|gg>:           90 b            0 skpd (  0.0%)    0.006 s ( 0.070 ms/b)
<dg|gh>:           90 b            0 skpd (  0.0%)    0.008 s ( 0.089 ms/b)
<dg|hh>:           45 b            0 skpd (  0.0%)    0.011 s ( 0.240 ms/b)
<dh|dh>:           55 b            0 skpd (  0.0%)    0.003 s ( 0.059 ms/b)
<dh|ff>:          100 b            0 skpd (  0.0%)    0.002 s ( 0.025 ms/b)
<dh|fg>:          120 b            1 skpd (  0.8%)    0.004 s ( 0.030 ms/b)
<dh|fh>:           80 b            0 skpd (  0.0%)    0.005 s ( 0.068 ms/b)
<dh|gg>:           60 b            0 skpd (  0.0%)    0.005 s ( 0.088 ms/b)
<dh|gh>:           60 b            1 skpd (  1.7%)    0.008 s ( 0.137 ms/b)
<dh|hh>:           30 b            6 skpd ( 20.0%)    0.009 s ( 0.386 ms/b)
<ff|ff>:           55 b            0 skpd (  0.0%)    0.002 s ( 0.033 ms/b)
<ff|fg>:          120 b            0 skpd (  0.0%)    0.003 s ( 0.027 ms/b)
<ff|fh>:           80 b            0 skpd (  0.0%)    0.004 s ( 0.052 ms/b)
<ff|gg>:           60 b            0 skpd (  0.0%)    0.004 s ( 0.074 ms/b)
<ff|gh>:           60 b            0 skpd (  0.0%)    0.006 s ( 0.104 ms/b)
<ff|hh>:           30 b            0 skpd (  0.0%)    0.009 s ( 0.291 ms/b)
<fg|fg>:           78 b            0 skpd (  0.0%)    0.005 s ( 0.070 ms/b)
<fg|fh>:           96 b            0 skpd (  0.0%)    0.008 s ( 0.084 ms/b)
<fg|gg>:           72 b            7 skpd (  9.7%)    0.009 s ( 0.141 ms/b)
<fg|gh>:           72 b            0 skpd (  0.0%)    0.012 s ( 0.173 ms/b)
<fg|hh>:           36 b            0 skpd (  0.0%)    0.016 s ( 0.456 ms/b)
<fh|fh>:           36 b            0 skpd (  0.0%)    0.008 s ( 0.209 ms/b)
<fh|gg>:           48 b            0 skpd (  0.0%)    0.008 s ( 0.161 ms/b)
<fh|gh>:           48 b            0 skpd (  0.0%)    0.012 s ( 0.259 ms/b)
<fh|hh>:           24 b            0 skpd (  0.0%)    0.017 s ( 0.694 ms/b)
<gg|gg>:           21 b            1 skpd (  4.8%)    0.007 s ( 0.336 ms/b)
<gg|gh>:           36 b            2 skpd (  5.6%)    0.011 s ( 0.322 ms/b)
<gg|hh>:           18 b            0 skpd (  0.0%)    0.014 s ( 0.797 ms/b)
<gh|gh>:           21 b            2 skpd (  9.5%)    0.015 s ( 0.812 ms/b)
<gh|hh>:           18 b            0 skpd (  0.0%)    0.023 s ( 1.254 ms/b)
<hh|hh>:            6 b            0 skpd (  0.0%)    0.020 s ( 3.275 ms/b)
Recanonicalizing the internal orbitals
Recanonicalizing the virtual orbitals
Time needed for Fock operator              ...            0.727 sec
Reference energy                           ...    -74.818838300
Warning: for UHF the TrafoType has to be JK
Warning: for UHF the K(C)-option cannot be MO but must be AOX

-------------------------------
PARTIAL EXCHANGE TRANSFORMATION
-------------------------------

Transformation type                        ... two-operators
Generation of integrals (i,mue|j,nue)      ... ON
Generation of integrals (mue,kappa|nue,tau)... ON
Generation of integrals (i,mue|a,nue)      ... ON
Dimension of the basis                     ...  127
Number of internal alpha-MOs               ...    4 (   1-   4)
Number of internal beta-MOs                ...    2 (   1-   2)
Number of external alpha-MOs               ...  122 (   5- 126)
Number of external beta-MOs                ...  124 (   3- 126)
Pair cutoff                                ... 0.000e+00 Eh
Number of AO pairs in the trafo            ... 8128
Total Number of distinct AO pairs          ... 8128
Memory devoted for trafo                   ... 2500.0 MB 
Max. Number of MO pairs treated together   ... 20316      
Number Format for Storage                  ... Double (8 Byte)
Integral package used                      ... LIBINT

Starting integral evaluation:
    ... done with AO integral generation
Closing buffer AOK[aa] ( 0.00 GB; CompressionRatio= 0.91)
Closing buffer AOK[bb] ( 0.00 GB; CompressionRatio= 0.73)
Closing buffer AOK[ab] ( 0.00 GB; CompressionRatio= 0.84)
Closing buffer AOK[ba] ( 0.00 GB; CompressionRatio= 0.84)
Collecting buffer AOK 
Closing buffer IAAO1[aa] ( 0.00 GB; CompressionRatio= 1.00)
Closing buffer IAAO1[bb] ( 0.00 GB; CompressionRatio= 0.99)
Closing buffer IAAO1[ab] ( 0.00 GB; CompressionRatio= 1.00)
Closing buffer IAAO1[ba] ( 0.00 GB; CompressionRatio= 0.99)
Closing buffer IAAO2[aa] ( 0.00 GB; CompressionRatio= 1.00)
Closing buffer IAAO2[bb] ( 0.00 GB; CompressionRatio= 0.99)
Closing buffer IAAO2[ab] ( 0.00 GB; CompressionRatio= 1.00)
Closing buffer IAAO2[ba] ( 0.00 GB; CompressionRatio= 0.99)
Collecting buffer IAAO 
Closing buffer PRQS    ( 0.03 GB; CompressionRatio= 1.00)
Collecting buffer PRQS 
Number of alpha/alpha MO pairs in trafo    ...   10
Number of beta /beta  MO pairs in trafo    ...    3
Number of alpha/ beta MO pairs in trafo    ...    8
------------------------
SORTING OF (i,mue|j,nue)
------------------------

SORTING OF ALPHA/ALPHA PAIRS
IBATCH = 1 of  1
Closing buffer KAO[aa] ( 0.00 GB; CompressionRatio= 1.00)
Collecting buffer KAO 
SORTING OF BETA /BETA  PAIRS
IBATCH = 1 of  1
Closing buffer KAO[bb] ( 0.00 GB; CompressionRatio= 1.00)
Collecting buffer KAO 
SORTING OF ALPHA/BETA  PAIRS
IBATCH = 1 of  1
Closing buffer KAO[ab] ( 0.00 GB; CompressionRatio= 0.999907008462)
Collecting buffer KAO[ab] 
------------------------
SORTING OF (i,mue|a,nue)
------------------------

Number of alpha/alpha (i,a) pairs in trafo  ...  488
Number of beta /beta  (i,a) pairs in trafo  ...  248
Number of alpha/ beta (i,a) pairs in trafo  ...  496
Number of beta /alpha (i,a) pairs in trafo  ...  244
Setting up the alpha/alpha list             ... done
Setting up the beta /beta  list             ... done
Setting up the alpha/beta  list             ... done
Setting up the beta /alpha list             ... done
    ... Now sorting (i,mue|a,nue)integrals
    ... Integrals (i,b|a,c) will be made on the fly
SORTING OF ALPHA/ALPHA PAIRS
IBATCH = 1 of  1
Closing buffer IPAQ[aa]  0.00 GB; CompressionRatio= 1.00)
SORTING OF BETA /BETA  PAIRS
IBATCH = 1 of  1
Closing buffer IPAQ[bb]( 0.00 GB; CompressionRatio= 1.00)
SORTING OF ALPHA/BETA  PAIRS (NMatSort_ab=34)
IBATCH = 1 of  1
Closing buffer IPAQ[ab]( 0.00 GB; CompressionRatio= 1.00)
SORTING OF BETA/ALPHA  PAIRS
IBATCH = 1 of  1
Closing buffer IPAQ[ba]( 0.00 GB; CompressionRatio= 1.00)
N(AO-Batches) Done                         ...      9477 
N(AO-Batches) Skipped                      ...         0 
N(IJ)-pairs Skipped                        ...         0 
TOTAL TIME for half transformation         ...    12.415 sec
AO-integral generation                     ...     0.330 sec
Half transformation                        ...     2.968 sec
K-integral sorting                         ...     1.423 sec
<ss|**>: 
------------------------------
PARTIAL COULOMB TRANSFORMATION
------------------------------

Transformation type                        ... two-operators
Dimension of the basis                     ...  127
Number of internal alpha-MOs               ...    4 (1-4)
Number of internal beta-MOs                ...    2 (1-2)
Pair cutoff                                ... 0.000e+00 Eh
Number of AO pairs included in the trafo   ... 8128
Total Number of distinct AO pairs          ... 8128
Memory devoted for trafo                   ... 2500.0 MB 
Max. Number of MO pairs treated together   ... 40314      
Max. Number of MOs treated per batch       ...  317      
Number Format for Storage                  ... Double (8 Byte)
AO-integral source                         ... DIRECT
Integral package used                      ... LIBINT

Starting integral evaluation:
<sp|**>:        10584 b        0 skpd     0.032 s (  0.003 ms/b)
<sd|**>:        15876 b        0 skpd     0.031 s (  0.002 ms/b)
<sf|**>:        13230 b        0 skpd     0.047 s (  0.004 ms/b)
<sg|**>:        10584 b        0 skpd     0.059 s (  0.006 ms/b)
        7938 b        0 skpd     0.095 s (  0.012 ms/b)
<sh|**>: <pp|**>:         5292 b        0 skpd     0.077 s (  0.015 ms/b)
        7938 b        0 skpd     0.041 s (  0.005 ms/b)
<pd|**>:        11340 b        0 skpd     0.083 s (  0.007 ms/b)
<pf|**>:         9072 b        0 skpd     0.111 s (  0.012 ms/b)
<pg|**>:         6804 b        0 skpd     0.135 s (  0.020 ms/b)
<ph|**>:         4536 b        0 skpd     0.091 s (  0.020 ms/b)
<dd|**>:         5670 b        0 skpd     0.061 s (  0.011 ms/b)
<df|**>:         7560 b        0 skpd     0.159 s (  0.021 ms/b)
<dg|**>:         5670 b        0 skpd     0.131 s (  0.023 ms/b)
<dh|**>:         3780 b        0 skpd     0.132 s (  0.035 ms/b)
<ff|**>:         3780 b        0 skpd     0.105 s (  0.028 ms/b)
<fg|**>:         4536 b        0 skpd     0.164 s (  0.036 ms/b)
<fh|**>:         3024 b        0 skpd     0.170 s (  0.056 ms/b)
<gg|**>:         2268 b        0 skpd     0.162 s (  0.071 ms/b)
<gh|**>:         2268 b        0 skpd     0.225 s (  0.099 ms/b)
<hh|**>:         1134 b        0 skpd     0.255 s (  0.225 ms/b)
Closing buffer AOJ[aa] ( 0.00 GB; CompressionRatio= 0.87)
Closing buffer AOJ[bb] ( 0.00 GB; CompressionRatio= 0.00)
Collecting buffer AOJ 
    ... done with AO integral generation
Number of Alpha-MO pairs included          ...   10
Number of Beta-MO pairs included           ...    3
    ... Now sorting integrals
SORTING ALPHA/ALPHA PAIRS
IBATCH = 1 of  1
Closing buffer JAO[aa] ( 0.00 GB; CompressionRatio= 1.00)
SORTING BETA/BETA PAIRS
IBATCH = 1 of  1
Closing buffer JAO[bb] ( 0.00 GB; CompressionRatio= 1.00)
Collecting buffer JAO 
TOTAL TIME for half transformation         ...     2.493 sec
AO-integral generation                     ...     1.382 sec
Half transformation                        ...     0.996 sec
J-integral sorting                         ...     0.088 sec

-------------------------- SECOND HALF TRANSFORMATION -------------------------
Formation of (ij|kl),(ij|ka), (ij|ab)      ... ok (     0.102 sec)
Formation of (ik|jl),(ik|ja), (ia|jb)      ... ok (     0.158 sec)


-----------------------
SPIN UNRESTRICTED GUESS
-----------------------

Entering MDCI_UHF_Guess, Tailored=0
Spin-components of the MP2 energy:
EMP2(aa)=     -0.033953919
EMP2(bb)=     -0.004657319
EMP2(ab)=     -0.125876321

Initial guess performed in     0.007 sec
E(0)                                       ...    -74.818838300
E(MP2)                                     ...     -0.164487558
Initial E(tot)                             ...    -74.983325858
<T|T>                                      ...      0.030340992
Number of pairs included                   ... 15

------------------------------------------------
                  UHF COUPLED CLUSTER ITERATIONS
------------------------------------------------

Number of amplitudes to be optimized       ...       173732

Iter       E(tot)           E(Corr)          Delta-E          Residual     Time      <S|S>**1/2
  0    -74.983325858     -0.164487558     -0.000000000      0.017102781    1.88      0.000000208
                           *** Turning on DIIS ***
  1    -74.992574453     -0.173736153     -0.009248595      0.004763260    2.04      0.009944894
  2    -74.995833830     -0.176995530     -0.003259376      0.001829382    1.98      0.014538503
  3    -74.996513673     -0.177675373     -0.000679843      0.001069721    2.01      0.017048381
  4    -74.996660318     -0.177822018     -0.000146645      0.000484386    2.06      0.018137422
  5    -74.996697863     -0.177859563     -0.000037545      0.000160212    2.03      0.018468706
  6    -74.996700908     -0.177862608     -0.000003045      0.000062134    2.06      0.018458552
  7    -74.996700623     -0.177862323      0.000000286      0.000020311    2.06      0.018434028
  8    -74.996701052     -0.177862752     -0.000000429      0.000006598    2.05      0.018429874
               --- The Coupled-Cluster iterations have converged ---

----------------------
COUPLED CLUSTER ENERGY
----------------------

E(0)                                       ...    -74.818838300
E(CORR)                                    ...     -0.177862752
E(TOT)                                     ...    -74.996701052
Singles norm <S|S>**1/2                    ...      0.018429874 ( 0.013616509, 0.004813365)  
T1 diagnostic                              ...      0.007523965                              

------------------
LARGEST AMPLITUDES
------------------
   4a-> 16a   2b-> 14b       0.026246
   4a-> 32a   2b-> 30b       0.023976
   4a-> 32a   2b-> 14b       0.022077
   4a-> 16a   2b-> 30b       0.021396
   2a-> 26a   1b->  7b       0.016639
   3a-> 26a   1b->  8b       0.016639
   3a-> 25a   1b->  7b       0.016639
   2a-> 25a   1b->  8b       0.016639
   4a-> 29a   2b-> 25b       0.015671
   3a-> 15a   2b-> 14b       0.015491
   2a-> 14a   2b-> 14b       0.015491
   4a-> 28a   1b->  3b       0.015489
   4a-> 27a   1b->  4b       0.015489
   1a-> 17a   2b-> 14b       0.015122
   3a-> 30a   2b-> 30b       0.015091
   2a-> 31a   2b-> 30b       0.015091

----------------------
UHF TRIPLES CORRECTION (Algorithm 1)
----------------------

Multiplier for the singles contribution    ...      1.000000000

SPIN-CASE Alpha-Alpha-Alpha:
10% done
20% done
30% done
40% done
50% done
60% done
70% done
80% done
90% done


SPIN-CASE Beta-Beta-Beta:

SPIN-CASE Alpha-Alpha-Beta:
10% done
20% done
30% done
40% done
50% done
60% done
70% done
80% done
90% done


SPIN-CASE Beta-Beta-Alpha:
10% done
20% done
30% done
40% done
50% done
60% done
70% done
80% done
90% done


Triples Correction (T)                     ...     -0.004051955
    alpha-alpha-alpha ... -0.000227490 (  5.6%)
    alpha-alpha-beta  ... -0.002962822 ( 73.1%)
    alpha-beta -beta  ... -0.000861643 ( 21.3%)
    beta -beta -beta  ...  0.000000000 ( -0.0%)
Scaling of triples based on CCSD energies (Peterson et al. Molecular Physics 113, 1551 (2015))
E(T*) = f*E(T) where f = E(F12-CCSD)/E(CCSD) 
f = CCSD (with F12)/ CCSD (without F12)    ...      1.000000000
Scaled triples correction (T)              ...     -0.004051955

Final correlation energy                   ...     -0.181914706
E(CCSD)                                    ...    -74.996701052
E(CCSD(T))                                 ...    -75.000753006



        !!!!!!!!!!!!!!!!!!!!!!!!!!!!!!!!!!!!!!!!!!!!!!!!!!!!!!!!!!!!!!!!!!!!!!!!!! 
        !  Warning: Densities are linearized densities                           !
        !!!!!!!!!!!!!!!!!!!!!!!!!!!!!!!!!!!!!!!!!!!!!!!!!!!!!!!!!!!!!!!!!!!!!!!!!! 

NORM  =      1.039713012 sqrt=     1.019663186
W(HF) =      0.961803871
------------------------------------------------------------------------------
                           ORCA POPULATION ANALYSIS
------------------------------------------------------------------------------
Input electron density              ... 08_O.mdcip
Input spin density                  ... 08_O.mdcir
BaseName (.gbw .S,...)              ... 08_O

                    ********************************
                    * MULLIKEN POPULATION ANALYSIS *
                    ********************************

------------------------------------------
MULLIKEN ATOMIC CHARGES AND SPIN DENSITIES
------------------------------------------
   0 O :   -0.000000    2.000000
Sum of atomic charges       :   -0.0000000
Sum of atomic spin densities:    2.0000000

---------------------------------------------------
MULLIKEN REDUCED ORBITAL CHARGES AND SPIN DENSITIES
---------------------------------------------------
CHARGE
  0 O s       :     3.983969  s :     3.983969
      pz      :     1.967383  p :     3.985763
      px      :     1.018282
      py      :     1.000098
      dz2     :     0.005903  d :     0.026269
      dxz     :     0.005548
      dyz     :     0.005527
      dx2y2   :     0.004646
      dxy     :     0.004646
      f0      :     0.000691  f :     0.003419
      f+1     :     0.000644
      f-1     :     0.000638
      f+2     :     0.000485
      f-2     :     0.000485
      f+3     :     0.000237
      f-3     :     0.000237
      g0      :     0.000075  g :     0.000489
      g+1     :     0.000072
      g-1     :     0.000071
      g+2     :     0.000062
      g-2     :     0.000062
      g+3     :     0.000047
      g-3     :     0.000047
      g+4     :     0.000026
      g-4     :     0.000026
      h0      :     0.000011  h :     0.000091
      h+1     :     0.000011
      h-1     :     0.000011
      h+2     :     0.000010
      h-2     :     0.000010
      h+3     :     0.000009
      h-3     :     0.000009
      h+4     :     0.000007
      h-4     :     0.000007
      h+5     :     0.000004
      h-5     :     0.000004

SPIN
  0 O s       :     0.011717  s :     0.011717
      pz      :     0.019152  p :     1.974418
      px      :     0.968538
      py      :     0.986728
      dz2     :     0.001104  d :     0.012452
      dxz     :     0.001777
      dyz     :     0.001817
      dx2y2   :     0.003877
      dxy     :     0.003877
      f0      :     0.000269  f :     0.001374
      f+1     :     0.000252
      f-1     :     0.000250
      f+2     :     0.000195
      f-2     :     0.000195
      f+3     :     0.000107
      f-3     :     0.000107
      g0      :    -0.000001  g :     0.000030
      g+1     :    -0.000000
      g-1     :    -0.000000
      g+2     :     0.000002
      g-2     :     0.000002
      g+3     :     0.000005
      g-3     :     0.000005
      g+4     :     0.000010
      g-4     :     0.000010
      h0      :     0.000000  h :     0.000009
      h+1     :     0.000000
      h-1     :     0.000000
      h+2     :     0.000001
      h-2     :     0.000001
      h+3     :     0.000001
      h-3     :     0.000001
      h+4     :     0.000001
      h-4     :     0.000001
      h+5     :     0.000001
      h-5     :     0.000001


                     *******************************
                     * LOEWDIN POPULATION ANALYSIS *
                     *******************************

-----------------------------------------
LOEWDIN ATOMIC CHARGES AND SPIN DENSITIES
-----------------------------------------
   0 O :   -0.000000    2.000000

--------------------------------------------------
LOEWDIN REDUCED ORBITAL CHARGES AND SPIN DENSITIES
--------------------------------------------------
CHARGE
  0 O s       :     3.983969  s :     3.983969
      pz      :     1.967383  p :     3.985763
      px      :     1.018282
      py      :     1.000098
      dz2     :     0.005903  d :     0.026269
      dxz     :     0.005548
      dyz     :     0.005527
      dx2y2   :     0.004646
      dxy     :     0.004646
      f0      :     0.000691  f :     0.003419
      f+1     :     0.000644
      f-1     :     0.000638
      f+2     :     0.000485
      f-2     :     0.000485
      f+3     :     0.000237
      f-3     :     0.000237
      g0      :     0.000075  g :     0.000489
      g+1     :     0.000072
      g-1     :     0.000071
      g+2     :     0.000062
      g-2     :     0.000062
      g+3     :     0.000047
      g-3     :     0.000047
      g+4     :     0.000026
      g-4     :     0.000026
      h0      :     0.000011  h :     0.000091
      h+1     :     0.000011
      h-1     :     0.000011
      h+2     :     0.000010
      h-2     :     0.000010
      h+3     :     0.000009
      h-3     :     0.000009
      h+4     :     0.000007
      h-4     :     0.000007
      h+5     :     0.000004
      h-5     :     0.000004

SPIN
  0 O s       :     0.011717  s :     0.011717
      pz      :     0.019152  p :     1.974418
      px      :     0.968538
      py      :     0.986728
      dz2     :     0.001104  d :     0.012452
      dxz     :     0.001777
      dyz     :     0.001817
      dx2y2   :     0.003877
      dxy     :     0.003877
      f0      :     0.000269  f :     0.001374
      f+1     :     0.000252
      f-1     :     0.000250
      f+2     :     0.000195
      f-2     :     0.000195
      f+3     :     0.000107
      f-3     :     0.000107
      g0      :    -0.000001  g :     0.000030
      g+1     :    -0.000000
      g-1     :    -0.000000
      g+2     :     0.000002
      g-2     :     0.000002
      g+3     :     0.000005
      g-3     :     0.000005
      g+4     :     0.000010
      g-4     :     0.000010
      h0      :     0.000000  h :     0.000009
      h+1     :     0.000000
      h-1     :     0.000000
      h+2     :     0.000001
      h-2     :     0.000001
      h+3     :     0.000001
      h-3     :     0.000001
      h+4     :     0.000001
      h-4     :     0.000001
      h+5     :     0.000001
      h-5     :     0.000001


                      *****************************
                      * MAYER POPULATION ANALYSIS *
                      *****************************

  NA   - Mulliken gross atomic population
  ZA   - Total nuclear charge
  QA   - Mulliken gross atomic charge
  VA   - Mayer's total valence
  BVA  - Mayer's bonded valence
  FA   - Mayer's free valence

  ATOM       NA         ZA         QA         VA         BVA        FA
  0 O      8.0000     8.0000    -0.0000     2.2493     0.0000     2.2493





------------------------------------------------------------------------------- 
                                     TIMINGS                                   
------------------------------------------------------------------------------- 


Total execution time                   ...       35.955 sec

Fock Matrix Formation                  ...        0.727 sec (  2.0%)
Initial Guess                          ...        0.007 sec (  0.0%)
DIIS Solver                            ...        0.109 sec (  0.3%)
State Vector Update                    ...        0.005 sec (  0.0%)
Sigma-vector construction              ...       18.051 sec ( 50.2%)
  <D|H|D>(0-ext Fock)                  ...        0.002 sec (  0.0% of sigma)
  <D|H|D>(0-ext)                       ...        0.002 sec (  0.0% of sigma)
  <D|H|D>(2-ext Fock)                  ...        0.002 sec (  0.0% of sigma)
  <D|H|D>(2-ext)                       ...        0.020 sec (  0.1% of sigma)
  <D|H|D>(4-ext)                       ...       12.913 sec ( 71.5% of sigma)
  <S|H|0>                              ...        0.141 sec (  0.8% of sigma)
  <D|H|S>(1-ext)                       ...        0.015 sec (  0.1% of sigma)
  Fock-dressing                        ...        4.066 sec ( 22.5% of sigma)
  (ik|jl)-dressing                     ...        0.002 sec (  0.0% of sigma)
  (ij|ab),(ia|jb)-dressing             ...        0.676 sec (  3.7% of sigma)
  Pair energies                        ...        0.001 sec (  0.0% of sigma)
Total Time for computing (T)           ...        1.102 sec (  3.1% of ALL)
  I/O of integral and amplitudes       ...        0.312 sec ( 28.3% of (T))
  External N**7 contributions          ...        0.332 sec ( 30.1% of (T))
  Internal N**7 contributions          ...        0.098 sec (  8.9% of (T))
  N**6 triples energy contributions    ...        0.292 sec ( 26.5% of (T))


-------------------------   --------------------
FINAL SINGLE POINT ENERGY       -75.000753006396
-------------------------   --------------------


                            ***************************************
                            *     ORCA property calculations      *
                            ***************************************

                                    ---------------------
                                    Active property flags
                                    ---------------------
   (+) Dipole Moment


------------------------------------------------------------------------------
                       ORCA ELECTRIC PROPERTIES CALCULATION
------------------------------------------------------------------------------

Dipole Moment Calculation                       ... on
Quadrupole Moment Calculation                   ... off
Polarizability Calculation                      ... off
GBWName                                         ... 08_O.gbw
Electron density file                           ... 08_O.scfp
The origin for moment calculation is the CENTER OF MASS  = ( 0.000000,  0.000000  0.000000)

-------------
DIPOLE MOMENT
-------------
                                X             Y             Z
Electronic contribution:     -0.00000      -0.00000      -0.00000
Nuclear contribution   :      0.00000       0.00000       0.00000
                        -----------------------------------------
Total Dipole Moment    :     -0.00000      -0.00000      -0.00000
                        -----------------------------------------
Magnitude (a.u.)       :      0.00000
Magnitude (Debye)      :      0.00000



--------------------
Rotational spectrum 
--------------------
 
Rotational constants in cm-1:     0.000000     0.000000     0.000000 
Rotational constants in MHz :     0.000000     0.000000     0.000000 

 Dipole components along the rotational axes: 
x,y,z [a.u.] :    -0.000000    -0.000000    -0.000000 
x,y,z [Debye]:    -0.000000    -0.000000    -0.000000 

 

                           *** MDCI DENSITY ***

------------------------------------------------------------------------------
                       ORCA ELECTRIC PROPERTIES CALCULATION
------------------------------------------------------------------------------

Dipole Moment Calculation                       ... on
Quadrupole Moment Calculation                   ... off
Polarizability Calculation                      ... off
GBWName                                         ... 08_O.gbw
Electron density file                           ... 08_O.mdcip
The origin for moment calculation is the CENTER OF MASS  = ( 0.000000,  0.000000  0.000000)

-------------
DIPOLE MOMENT
-------------
                                X             Y             Z
Electronic contribution:     -0.00000       0.00000      -0.00000
Nuclear contribution   :      0.00000       0.00000       0.00000
                        -----------------------------------------
Total Dipole Moment    :     -0.00000       0.00000      -0.00000
                        -----------------------------------------
Magnitude (a.u.)       :      0.00000
Magnitude (Debye)      :      0.00000



--------------------
Rotational spectrum 
--------------------
 
Rotational constants in cm-1:     0.000000     0.000000     0.000000 
Rotational constants in MHz :     0.000000     0.000000     0.000000 

 Dipole components along the rotational axes: 
x,y,z [a.u.] :    -0.000000     0.000000    -0.000000 
x,y,z [Debye]:    -0.000000     0.000000    -0.000000 

 

Timings for individual modules:

Sum of individual times         ...       43.219 sec (=   0.720 min)
GTO integral calculation        ...        0.788 sec (=   0.013 min)   1.8 %
SCF iterations                  ...        5.224 sec (=   0.087 min)  12.1 %
MDCI module                     ...       37.207 sec (=   0.620 min)  86.1 %
                             ****ORCA TERMINATED NORMALLY****
TOTAL RUN TIME: 0 days 0 hours 0 minutes 43 seconds 882 msec
