
                                 *****************
                                 * O   R   C   A *
                                 *****************

           --- An Ab Initio, DFT and Semiempirical electronic structure package ---

                  #######################################################
                  #                        -***-                        #
                  #          Department of theory and spectroscopy      #
                  #               Directorship: Frank Neese             #
                  #        Max Planck Institute fuer Kohlenforschung    #
                  #                Kaiser Wilhelm Platz 1               #
                  #                 D-45470 Muelheim/Ruhr               #
                  #                      Germany                        #
                  #                                                     #
                  #                  All rights reserved                #
                  #                        -***-                        #
                  #######################################################


                         Program Version 4.2.0 -  RELEASE  -


 With contributions from (in alphabetic order):
   Daniel Aravena         : Magnetic Suceptibility
   Michael Atanasov       : Ab Initio Ligand Field Theory (pilot matlab implementation)
   Alexander A. Auer      : GIAO ZORA, VPT2
   Ute Becker             : Parallelization
   Giovanni Bistoni       : ED, misc. LED, open-shell LED, HFLED
   Martin Brehm           : Molecular dynamics
   Dmytro Bykov           : SCF Hessian
   Vijay G. Chilkuri      : MRCI spin determinant printing, contributions to CSF-ICE
   Dipayan Datta          : RHF DLPNO-CCSD density
   Achintya Kumar Dutta   : EOM-CC, STEOM-CC
   Dmitry Ganyushin       : Spin-Orbit,Spin-Spin,Magnetic field MRCI
   Miquel Garcia          : C-PCM Hessian, Gaussian charge scheme
   Yang Guo               : DLPNO-NEVPT2, CIM, IAO-localization
   Andreas Hansen         : Spin unrestricted coupled pair/coupled cluster methods
   Benjamin Helmich-Paris : CASSCF linear response (MC-RPA)
   Lee Huntington         : MR-EOM, pCC
   Robert Izsak           : Overlap fitted RIJCOSX, COSX-SCS-MP3, EOM
   Christian Kollmar      : KDIIS, OOCD, Brueckner-CCSD(T), CCSD density
   Simone Kossmann        : Meta GGA functionals, TD-DFT gradient, OOMP2, MP2 Hessian
   Martin Krupicka        : AUTO-CI
   Lucas Lang             : DCDCAS
   Dagmar Lenk            : GEPOL surface, SMD
   Dimitrios Liakos       : Extrapolation schemes; Compound Job, initial MDCI parallelization
   Dimitrios Manganas     : Further ROCIS development; embedding schemes
   Dimitrios Pantazis     : SARC Basis sets
   Taras Petrenko         : DFT Hessian,TD-DFT gradient, ASA, ECA, R-Raman, ABS, FL, XAS/XES, NRVS
   Peter Pinski           : DLPNO-MP2, DLPNO-MP2 Gradient
   Christoph Reimann      : Effective Core Potentials
   Marius Retegan         : Local ZFS, SOC
   Christoph Riplinger    : Optimizer, TS searches, QM/MM, DLPNO-CCSD(T), (RO)-DLPNO pert. Triples
   Tobias Risthaus        : Range-separated hybrids, TD-DFT gradient, RPA, STAB
   Michael Roemelt        : Original ROCIS implementation
   Masaaki Saitow         : Open-shell DLPNO-CCSD energy and density
   Barbara Sandhoefer     : DKH picture change effects
   Avijit Sen             : IP-ROCIS
   Kantharuban Sivalingam : CASSCF convergence, NEVPT2, FIC-MRCI
   Bernardo de Souza      : ESD, SOC TD-DFT
   Georgi Stoychev        : AutoAux, RI-MP2 NMR
   Willem Van den Heuvel  : Paramagnetic NMR
   Boris Wezisla          : Elementary symmetry handling
   Frank Wennmohs         : Technical directorship


 We gratefully acknowledge several colleagues who have allowed us to
 interface, adapt or use parts of their codes:
   Stefan Grimme, W. Hujo, H. Kruse,             : VdW corrections, initial TS optimization,
                  C. Bannwarth                     DFT functionals, gCP, sTDA/sTD-DF
   Ed Valeev, F. Pavosevic, A. Kumar             : LibInt (2-el integral package), F12 methods
   Garnet Chan, S. Sharma, J. Yang, R. Olivares  : DMRG
   Ulf Ekstrom                                   : XCFun DFT Library
   Mihaly Kallay                                 : mrcc  (arbitrary order and MRCC methods)
   Andreas Klamt, Michael Diedenhofen            : otool_cosmo (COSMO solvation model)
   Jiri Pittner, Ondrej Demel                    : Mk-CCSD
   Frank Weinhold                                : gennbo (NPA and NBO analysis)
   Christopher J. Cramer and Donald G. Truhlar   : smd solvation model
   Lars Goerigk                                  : TD-DFT with DH, B97 family of functionals
   V. Asgeirsson, H. Jonsson                     : NEB implementation
   FAccTs GmbH                                   : IRC, NEB, NEB-TS, Multilevel, MM, QM/MM, CI optimization
   S Lehtola, MJT Oliveira, MAL Marques          : LibXC Library


 Your calculation uses the libint2 library for the computation of 2-el integrals
 For citations please refer to: http://libint.valeyev.net

 Your ORCA version has been built with support for libXC version: 4.2.3
 For citations please refer to: https://tddft.org/programs/libxc/

 This ORCA versions uses:
   CBLAS   interface :  Fast vector & matrix operations
   LAPACKE interface :  Fast linear algebra routines
   SCALAPACK package :  Parallel linear algebra routines


----- Orbital basis set information -----
Your calculation utilizes the basis: aug-cc-pV5Z 
          H : Obtained from the ccRepo (grant-hill.group.shef.ac.uk/ccrepo) Feb. 2017
              T. H. Dunning, Jr., J. Chem. Phys. 90, 1007 (1989)
              Diffuse s exponent - S. Mielke, unpublished
         He : Obtained from the ccRepo (grant-hill.group.shef.ac.uk/ccrepo) Feb. 2017
              D. E. Woon, T. H. Dunning, Jr., J. Chem. Phys. 100, 2975 (1994)
  Li-Be, Na : Obtained from the ccRepo (grant-hill.group.shef.ac.uk/ccrepo) Feb. 2017
              B. P. Prascher, D. E. Woon, K. A. Peterson, T. H. Dunning, Jr., A. K. Wilson, Theor. Chem. Acc. 128, 69 (2011)
        B-F : Obtained from the ccRepo (grant-hill.group.shef.ac.uk/ccrepo) Feb. 2017
              R. A. Kendall, T. H. Dunning, Jr., R. J. Harrison, J. Chem. Phys. 96, 6796 (1992)
              T. H. Dunning, Jr., J. Chem. Phys. 90, 1007 (1989)
         Ne : Obtained from the ccRepo (grant-hill.group.shef.ac.uk/ccrepo) Feb. 2017
              T. H. Dunning, Jr., J. Chem. Phys. 90, 1007 (1989)
         Mg : Obtained from the Peterson Research Group Website (tyr0.chem.wsu.edu/~kipeters) Feb. 2017
              B. P. Prascher, D. E. Woon, K. A. Peterson, T. H. Dunning, Jr., A. K. Wilson, Theor. Chem. Acc. 128, 69 (2011)
      Al-Ar : Obtained from the ccRepo (grant-hill.group.shef.ac.uk/ccrepo) Feb. 2017
              D. E. Woon, T. H. Dunning, Jr., J. Chem. Phys. 98, 1358 (1993)
      Sc-Zn : Obtained from the ccRepo (grant-hill.group.shef.ac.uk/ccrepo) Feb. 2017
              N. B. Balabanov, K. A. Peterson, J. Chem. Phys. 123, 064107 (2005)
              N. B. Balabanov, K. A. Peterson, J. Chem. Phys. 125, 074110 (2006)
      Ga-Kr : Obtained from the ccRepo (grant-hill.group.shef.ac.uk/ccrepo) Feb. 2017
              A. K. Wilson, D. E. Woon, K. A. Peterson, T. H. Dunning, Jr., J. Chem. Phys. 110, 7667 (1999)

================================================================================
                                        WARNINGS
                       Please study these warnings very carefully!
================================================================================


WARNING: your system is open-shell and RHF/RKS was chosen
  ===> : WILL SWITCH to UHF/UKS


WARNING: MDCI localization with Augmented Hessian Foster-Boys
  ===> : Switching off randomization!

WARNING: Post HF methods need fully converged wavefunctions
  ===> : Setting SCFConvForced true
         You can overwrite this default with %scf ConvForced false 


INFO   : the flag for use of LIBINT has been found!

================================================================================
                                       INPUT FILE
================================================================================
NAME = 13_Al.in
|  1> #
|  2> # 13_Al CCSD(T)/aug-cc-pV5Z
|  3> #
|  4> ! CCSD(T) aug-cc-pV5Z tightscf
|  5> 
|  6> *xyz 0 2
|  7>  Al 0.0 0.0 0.0
|  8> *
|  9> 
| 10> %maxcore 5000 
| 11> 
| 12> %pal
| 13> nprocs 3
| 14> end
| 15> 
| 16> 
| 17>                          ****END OF INPUT****
================================================================================

                       ****************************
                       * Single Point Calculation *
                       ****************************

---------------------------------
CARTESIAN COORDINATES (ANGSTROEM)
---------------------------------
  Al     0.000000    0.000000    0.000000

----------------------------
CARTESIAN COORDINATES (A.U.)
----------------------------
  NO LB      ZA    FRAG     MASS         X           Y           Z
   0 Al   13.0000    0    26.982    0.000000    0.000000    0.000000

--------------------------------
INTERNAL COORDINATES (ANGSTROEM)
--------------------------------
 Al     0   0   0     0.000000000000     0.00000000     0.00000000

---------------------------
INTERNAL COORDINATES (A.U.)
---------------------------
 Al     0   0   0     0.000000000000     0.00000000     0.00000000

---------------------
BASIS SET INFORMATION
---------------------
There are 1 groups of distinct atoms

 Group   1 Type Al  : 53s21p5d4f3g2h contracted to 8s7p5d4f3g2h pattern {16161611111/8811111/11111/1111/111/11}

Atom   0Al   basis set group =>   1


           ************************************************************
           *        Program running with 3 parallel MPI-processes     *
           *              working on a common directory               *
           ************************************************************
------------------------------------------------------------------------------
                           ORCA GTO INTEGRAL CALCULATION
------------------------------------------------------------------------------

                         BASIS SET STATISTICS AND STARTUP INFO

 # of primitive gaussian shells          ...   88
 # of primitive gaussian functions       ...  218
 # of contracted shells                  ...   29
 # of contracted basis functions         ...  131
 Highest angular momentum                ...    5
 Maximum contraction depth               ...   16
 Integral package used                   ... LIBINT
 Integral threshhold            Thresh   ...  2.500e-11
 Primitive cut-off              TCut     ...  2.500e-12


------------------------------ INTEGRAL EVALUATION ----------------------------


 * One electron integrals 
 Pre-screening matrix                    ... done
 Shell pair data                         ... done (   0.000 sec)



           ************************************************************
           *        Program running with 3 parallel MPI-processes     *
           *              working on a common directory               *
           ************************************************************
-------------------------------------------------------------------------------
                                 ORCA SCF
-------------------------------------------------------------------------------

------------
SCF SETTINGS
------------
Hamiltonian:
 Ab initio Hamiltonian  Method          .... Hartree-Fock(GTOs)


General Settings:
 Integral files         IntName         .... 13_Al
 Hartree-Fock type      HFTyp           .... UHF
 Total Charge           Charge          ....    0
 Multiplicity           Mult            ....    2
 Number of Electrons    NEL             ....   13
 Basis Dimension        Dim             ....  131
 Nuclear Repulsion      ENuc            ....      0.0000000000 Eh

Convergence Acceleration:
 DIIS                   CNVDIIS         .... on
   Start iteration      DIISMaxIt       ....    12
   Startup error        DIISStart       ....  0.200000
   # of expansion vecs  DIISMaxEq       ....     5
   Bias factor          DIISBfac        ....   1.050
   Max. coefficient     DIISMaxC        ....  10.000
 Newton-Raphson         CNVNR           .... off
 SOSCF                  CNVSOSCF        .... off
 Level Shifting         CNVShift        .... on
   Level shift para.    LevelShift      ....    0.2500
   Turn off err/grad.   ShiftErr        ....    0.0010
 Zerner damping         CNVZerner       .... off
 Static damping         CNVDamp         .... on
   Fraction old density DampFac         ....    0.7000
   Max. Damping (<1)    DampMax         ....    0.9800
   Min. Damping (>=0)   DampMin         ....    0.0000
   Turn off err/grad.   DampErr         ....    0.1000
 Fernandez-Rico         CNVRico         .... off

SCF Procedure:
 Maximum # iterations   MaxIter         ....   125
 SCF integral mode      SCFMode         .... Direct
   Integral package                     .... LIBINT
 Reset frequency        DirectResetFreq ....    20
 Integral Threshold     Thresh          ....  2.500e-11 Eh
 Primitive CutOff       TCut            ....  2.500e-12 Eh

Convergence Tolerance:
 Convergence Check Mode ConvCheckMode   .... Total+1el-Energy
 Convergence forced     ConvForced      .... 1
 Energy Change          TolE            ....  1.000e-08 Eh
 1-El. energy change                    ....  1.000e-05 Eh
 DIIS Error             TolErr          ....  5.000e-07


Diagonalization of the overlap matrix:
Smallest eigenvalue                        ... 1.699e-04
Time for diagonalization                   ...    0.002 sec
Threshold for overlap eigenvalues          ... 1.000e-08
Number of eigenvalues below threshold      ... 0
Time for construction of square roots      ...    0.004 sec
Total time needed                          ...    0.007 sec

-------------------
DFT GRID GENERATION
-------------------

General Integration Accuracy     IntAcc      ...  4.340
Radial Grid Type                 RadialGrid  ... Gauss-Chebyshev
Angular Grid (max. acc.)         AngularGrid ... Lebedev-110
Angular grid pruning method      GridPruning ... 3 (G Style)
Weight generation scheme         WeightScheme... Becke
Basis function cutoff            BFCut       ...    1.0000e-11
Integration weight cutoff        WCut        ...    1.0000e-14
Grids for H and He will be reduced by one unit

# of grid points (after initial pruning)     ...   1866 (   0.0 sec)
# of grid points (after weights+screening)   ...   1866 (   0.0 sec)
Grid point division into batches done        ...    0.0 sec
Reduced shell lists constructed in    0.0 sec

Total number of grid points                  ...     1866
Total number of batches                      ...       30
Average number of points per batch           ...       62
Average number of grid points per atom       ...     1866
Average number of shells per batch           ...    22.09 (76.18%)
Average number of basis functions per batch  ...   109.73 (83.76%)
Average number of large shells per batch     ...    19.00 (86.01%)
Average number of large basis fcns per batch ...    97.91 (89.23%)
Maximum spatial batch extension              ...  21.07, 38.78, 38.78 au
Average spatial batch extension              ...   5.73,  7.22,  8.87 au

Time for grid setup =    0.021 sec

------------------------------
INITIAL GUESS: MODEL POTENTIAL
------------------------------
Loading Hartree-Fock densities                     ... done
Calculating cut-offs                               ... done
Setting up the integral package                    ... done
Initializing the effective Hamiltonian             ... done
Starting the Coulomb interaction                   ... done (   0.0 sec)
Reading the grid                                   ... done
Mapping shells                                     ... done
Starting the XC term evaluation                    ... done (   0.0 sec)
Transforming the Hamiltonian                       ... done (   0.0 sec)
Diagonalizing the Hamiltonian                      ... done (   0.0 sec)
Back transforming the eigenvectors                 ... done (   0.0 sec)
Now organizing SCF variables                       ... done
                      ------------------
                      INITIAL GUESS DONE (   0.1 sec)
                      ------------------
--------------
SCF ITERATIONS
--------------
ITER       Energy         Delta-E        Max-DP      RMS-DP      [F,P]     Damp
               ***  Starting incremental Fock matrix formation  ***
  0   -241.8628940735   0.000000000000 0.19671720  0.00306094  0.1043862 0.7000
  1   -241.8673783280  -0.004484254502 0.14929407  0.00231589  0.0753925 0.7000
                               ***Turning on DIIS***
  2   -241.8708231181  -0.003444790099 0.36809786  0.00569827  0.0538790 0.0000
  3   -241.8785962386  -0.007773120475 0.04655210  0.00068722  0.0057598 0.0000
  4   -241.8815354077  -0.002939169133 0.00310848  0.00005280  0.0019843 0.0000
  5   -241.8834720764  -0.001936668726 0.00455899  0.00005340  0.0009662 0.0000
  6   -241.8805421108   0.002929965604 0.00267761  0.00002808  0.0005588 0.0000
  7   -241.8803893875   0.000152723326 0.00044340  0.00000588  0.0001549 0.0000
  8   -241.8806026396  -0.000213252088 0.00015849  0.00000239  0.0000420 0.0000
  9   -241.8807353510  -0.000132711450 0.00006751  0.00000092  0.0000129 0.0000
 10   -241.8807511765  -0.000015825443 0.00001649  0.00000021  0.0000027 0.0000
                            ***DIIS convergence achieved***

               *****************************************************
               *                     SUCCESS                       *
               *           SCF CONVERGED AFTER  11 CYCLES          *
               *****************************************************


----------------
TOTAL SCF ENERGY
----------------

Total Energy       :         -241.88076044 Eh           -6581.91011 eV

Components:
Nuclear Repulsion  :            0.00000000 Eh               0.00000 eV
Electronic Energy  :         -241.88076044 Eh           -6581.91011 eV
One Electron Energy:         -336.63651465 Eh           -9160.34527 eV
Two Electron Energy:           94.75575421 Eh            2578.43516 eV

Virial components:
Potential Energy   :         -483.76151019 Eh          -13163.81993 eV
Kinetic Energy     :          241.88074975 Eh            6581.90982 eV
Virial Ratio       :            2.00000004


---------------
SCF CONVERGENCE
---------------

  Last Energy change         ...   -9.2683e-06  Tolerance :   1.0000e-08
  Last MAX-Density change    ...    2.0317e-06  Tolerance :   1.0000e-07
  Last RMS-Density change    ...    2.9102e-08  Tolerance :   5.0000e-09
  Last DIIS Error            ...    3.0637e-07  Tolerance :   5.0000e-07

             **** THE GBW FILE WAS UPDATED (13_Al.gbw) ****
             **** DENSITY FILE WAS UPDATED (13_Al.scfp) ****
             **** ENERGY FILE WAS UPDATED (13_Al.en.tmp) ****
----------------------
UHF SPIN CONTAMINATION
----------------------

Expectation value of <S**2>     :     0.770588
Ideal value S*(S+1) for S=0.5   :     0.750000
Deviation                       :     0.020588

             **** THE GBW FILE WAS UPDATED (13_Al.gbw) ****
             **** DENSITY FILE WAS UPDATED (13_Al.scfp) ****
----------------
ORBITAL ENERGIES
----------------
                 SPIN UP ORBITALS
  NO   OCC          E(Eh)            E(eV) 
   0   1.0000     -58.500988     -1591.8928 
   1   1.0000      -4.910734      -133.6279 
   2   1.0000      -3.225232       -87.7630 
   3   1.0000      -3.217875       -87.5628 
   4   1.0000      -3.217875       -87.5628 
   5   1.0000      -0.425533       -11.5794 
   6   1.0000      -0.218519        -5.9462 
   7   0.0000       0.009253         0.2518 
   8   0.0000       0.009253         0.2518 
   9   0.0000       0.032835         0.8935 
  10   0.0000       0.034054         0.9266 
  11   0.0000       0.044520         1.2115 
  12   0.0000       0.044520         1.2115 
  13   0.0000       0.086738         2.3603 
  14   0.0000       0.086738         2.3603 
  15   0.0000       0.087484         2.3806 
  16   0.0000       0.087484         2.3806 
  17   0.0000       0.088061         2.3963 
  18   0.0000       0.175374         4.7722 
  19   0.0000       0.192975         5.2511 
  20   0.0000       0.192975         5.2511 
  21   0.0000       0.199538         5.4297 
  22   0.0000       0.199538         5.4297 
  23   0.0000       0.202023         5.4973 
  24   0.0000       0.203520         5.5381 
  25   0.0000       0.203520         5.5381 
  26   0.0000       0.207080         5.6349 
  27   0.0000       0.207080         5.6349 
  28   0.0000       0.207375         5.6430 
  29   0.0000       0.256745         6.9864 
  30   0.0000       0.258862         7.0440 
  31   0.0000       0.258862         7.0440 
  32   0.0000       0.268516         7.3067 
  33   0.0000       0.268516         7.3067 
  34   0.0000       0.523031        14.2324 
  35   0.0000       0.523031        14.2324 
  36   0.0000       0.529342        14.4041 
  37   0.0000       0.529342        14.4041 
  38   0.0000       0.533858        14.5270 
  39   0.0000       0.533858        14.5270 
  40   0.0000       0.536533        14.5998 
  41   0.0000       0.536533        14.5998 
  42   0.0000       0.537419        14.6239 
  43   0.0000       0.568294        15.4641 
  44   0.0000       0.568294        15.4641 
  45   0.0000       0.573672        15.6104 
  46   0.0000       0.573672        15.6104 
  47   0.0000       0.576459        15.6862 
  48   0.0000       0.576459        15.6862 
  49   0.0000       0.577308        15.7094 
  50   0.0000       0.669607        18.2209 
  51   0.0000       0.669607        18.2209 
  52   0.0000       0.669663        18.2225 
  53   0.0000       0.670217        18.2375 
  54   0.0000       0.670217        18.2375 
  55   0.0000       0.683026        18.5861 
  56   0.0000       0.688985        18.7482 
  57   0.0000       0.688985        18.7482 
  58   0.0000       0.773599        21.0507 
  59   0.0000       1.295692        35.2576 
  60   0.0000       1.295692        35.2576 
  61   0.0000       1.304504        35.4973 
  62   0.0000       1.304504        35.4973 
  63   0.0000       1.306285        35.5458 
  64   0.0000       1.306285        35.5458 
  65   0.0000       1.309730        35.6396 
  66   0.0000       1.309730        35.6396 
  67   0.0000       1.311458        35.6866 
  68   0.0000       1.315158        35.7873 
  69   0.0000       1.315158        35.7873 
  70   0.0000       1.322209        35.9791 
  71   0.0000       1.322209        35.9791 
  72   0.0000       1.327327        36.1184 
  73   0.0000       1.327327        36.1184 
  74   0.0000       1.330433        36.2029 
  75   0.0000       1.330433        36.2029 
  76   0.0000       1.331474        36.2312 
  77   0.0000       1.405084        38.2343 
  78   0.0000       1.405084        38.2343 
  79   0.0000       1.414932        38.5023 
  80   0.0000       1.414932        38.5023 
  81   0.0000       1.421958        38.6935 
  82   0.0000       1.421958        38.6935 
  83   0.0000       1.426166        38.8080 
  84   0.0000       1.426166        38.8080 
  85   0.0000       1.427568        38.8461 
  86   0.0000       1.688455        45.9452 
  87   0.0000       1.688455        45.9452 
  88   0.0000       1.700607        46.2759 
  89   0.0000       1.700607        46.2759 
  90   0.0000       1.704737        46.3883 
  91   0.0000       2.455414        66.8152 
  92   0.0000       2.455414        66.8152 
  93   0.0000       2.463164        67.0261 
  94   0.0000       2.740921        74.5843 
  95   0.0000       2.740921        74.5843 
  96   0.0000       2.752988        74.9126 
  97   0.0000       2.752988        74.9126 
  98   0.0000       2.760395        75.1142 
  99   0.0000       2.760395        75.1142 
 100   0.0000       2.762891        75.1821 
 101   0.0000       3.021339        82.2148 
 102   0.0000       3.178966        86.5041 
 103   0.0000       3.178966        86.5041 
 104   0.0000       3.190160        86.8087 
 105   0.0000       3.190160        86.8087 
 106   0.0000       3.199020        87.0498 
 107   0.0000       3.199020        87.0498 
 108   0.0000       3.205430        87.2242 
 109   0.0000       3.205430        87.2242 
 110   0.0000       3.209309        87.3297 
 111   0.0000       3.209309        87.3297 
 112   0.0000       3.210608        87.3651 
 113   0.0000       3.282072        89.3097 
 114   0.0000       3.282072        89.3097 
 115   0.0000       3.293605        89.6235 
 116   0.0000       3.293605        89.6235 
 117   0.0000       3.301945        89.8505 
 118   0.0000       3.301945        89.8505 
 119   0.0000       3.306989        89.9877 
 120   0.0000       3.306989        89.9877 
 121   0.0000       3.308677        90.0337 
 122   0.0000       4.171636       113.5160 
 123   0.0000       4.171636       113.5160 
 124   0.0000       4.183730       113.8451 
 125   0.0000       4.183730       113.8451 
 126   0.0000       4.187940       113.9596 
 127   0.0000       9.781437       266.1664 
 128   0.0000       9.781437       266.1664 
 129   0.0000       9.785884       266.2874 
 130   0.0000      24.822381       675.4513 

                 SPIN DOWN ORBITALS
  NO   OCC          E(Eh)            E(eV) 
   0   1.0000     -58.497876     -1591.8081 
   1   1.0000      -4.907329      -133.5352 
   2   1.0000      -3.216340       -87.5211 
   3   1.0000      -3.216340       -87.5211 
   4   1.0000      -3.206995       -87.2668 
   5   1.0000      -0.363374        -9.8879 
   6   0.0000       0.012909         0.3513 
   7   0.0000       0.012909         0.3513 
   8   0.0000       0.025059         0.6819 
   9   0.0000       0.036678         0.9981 
  10   0.0000       0.047701         1.2980 
  11   0.0000       0.047701         1.2980 
  12   0.0000       0.072961         1.9854 
  13   0.0000       0.087193         2.3726 
  14   0.0000       0.087193         2.3726 
  15   0.0000       0.093741         2.5508 
  16   0.0000       0.093741         2.5508 
  17   0.0000       0.096345         2.6217 
  18   0.0000       0.196304         5.3417 
  19   0.0000       0.196304         5.3417 
  20   0.0000       0.199799         5.4368 
  21   0.0000       0.199799         5.4368 
  22   0.0000       0.206165         5.6100 
  23   0.0000       0.206165         5.6100 
  24   0.0000       0.210758         5.7350 
  25   0.0000       0.210758         5.7350 
  26   0.0000       0.210830         5.7370 
  27   0.0000       0.211233         5.7479 
  28   0.0000       0.223464         6.0808 
  29   0.0000       0.269829         7.3424 
  30   0.0000       0.269829         7.3424 
  31   0.0000       0.290085         7.8936 
  32   0.0000       0.290085         7.8936 
  33   0.0000       0.298467         8.1217 
  34   0.0000       0.523237        14.2380 
  35   0.0000       0.523237        14.2380 
  36   0.0000       0.532649        14.4941 
  37   0.0000       0.532649        14.4941 
  38   0.0000       0.539708        14.6862 
  39   0.0000       0.539708        14.6862 
  40   0.0000       0.544143        14.8069 
  41   0.0000       0.544143        14.8069 
  42   0.0000       0.545665        14.8483 
  43   0.0000       0.568665        15.4742 
  44   0.0000       0.568665        15.4742 
  45   0.0000       0.584342        15.9008 
  46   0.0000       0.584342        15.9008 
  47   0.0000       0.593897        16.1608 
  48   0.0000       0.593897        16.1608 
  49   0.0000       0.597357        16.2549 
  50   0.0000       0.670537        18.2462 
  51   0.0000       0.670537        18.2462 
  52   0.0000       0.692117        18.8335 
  53   0.0000       0.692117        18.8335 
  54   0.0000       0.696404        18.9501 
  55   0.0000       0.696404        18.9501 
  56   0.0000       0.706453        19.2236 
  57   0.0000       0.724869        19.7247 
  58   0.0000       0.784491        21.3471 
  59   0.0000       1.295213        35.2445 
  60   0.0000       1.295213        35.2445 
  61   0.0000       1.306143        35.5420 
  62   0.0000       1.306143        35.5420 
  63   0.0000       1.315746        35.8033 
  64   0.0000       1.315746        35.8033 
  65   0.0000       1.318672        35.8829 
  66   0.0000       1.318672        35.8829 
  67   0.0000       1.327699        36.1285 
  68   0.0000       1.327699        36.1285 
  69   0.0000       1.328944        36.1624 
  70   0.0000       1.328944        36.1624 
  71   0.0000       1.331414        36.2296 
  72   0.0000       1.336991        36.3814 
  73   0.0000       1.336991        36.3814 
  74   0.0000       1.342765        36.5385 
  75   0.0000       1.342765        36.5385 
  76   0.0000       1.345088        36.6017 
  77   0.0000       1.404775        38.2259 
  78   0.0000       1.404775        38.2259 
  79   0.0000       1.421910        38.6921 
  80   0.0000       1.421910        38.6921 
  81   0.0000       1.434399        39.0320 
  82   0.0000       1.434399        39.0320 
  83   0.0000       1.442027        39.2395 
  84   0.0000       1.442027        39.2395 
  85   0.0000       1.444597        39.3095 
  86   0.0000       1.688611        45.9494 
  87   0.0000       1.688611        45.9494 
  88   0.0000       1.711704        46.5778 
  89   0.0000       1.711704        46.5778 
  90   0.0000       1.720118        46.8068 
  91   0.0000       2.457281        66.8660 
  92   0.0000       2.457281        66.8660 
  93   0.0000       2.485708        67.6395 
  94   0.0000       2.740292        74.5671 
  95   0.0000       2.740292        74.5671 
  96   0.0000       2.759719        75.0958 
  97   0.0000       2.759719        75.0958 
  98   0.0000       2.771783        75.4241 
  99   0.0000       2.771783        75.4241 
 100   0.0000       2.775895        75.5359 
 101   0.0000       3.027219        82.3748 
 102   0.0000       3.178152        86.4819 
 103   0.0000       3.178152        86.4819 
 104   0.0000       3.193902        86.9105 
 105   0.0000       3.193902        86.9105 
 106   0.0000       3.206440        87.2517 
 107   0.0000       3.206440        87.2517 
 108   0.0000       3.215557        87.4998 
 109   0.0000       3.215557        87.4998 
 110   0.0000       3.221095        87.6505 
 111   0.0000       3.221095        87.6505 
 112   0.0000       3.222953        87.7010 
 113   0.0000       3.281188        89.2857 
 114   0.0000       3.281188        89.2857 
 115   0.0000       3.298661        89.7611 
 116   0.0000       3.298661        89.7611 
 117   0.0000       3.311337        90.1061 
 118   0.0000       3.311337        90.1061 
 119   0.0000       3.319022        90.3152 
 120   0.0000       3.319022        90.3152 
 121   0.0000       3.321597        90.3853 
 122   0.0000       4.171848       113.5217 
 123   0.0000       4.171848       113.5217 
 124   0.0000       4.188867       113.9849 
 125   0.0000       4.188867       113.9849 
 126   0.0000       4.194911       114.1493 
 127   0.0000       9.782737       266.2018 
 128   0.0000       9.782737       266.2018 
 129   0.0000       9.798251       266.6240 
 130   0.0000      24.825350       675.5321 

                    ********************************
                    * MULLIKEN POPULATION ANALYSIS *
                    ********************************

--------------------------------------------
MULLIKEN ATOMIC CHARGES AND SPIN POPULATIONS
--------------------------------------------
   0 Al:    0.000000    1.000000
Sum of atomic charges         :    0.0000000
Sum of atomic spin populations:    1.0000000

-----------------------------------------------------
MULLIKEN REDUCED ORBITAL CHARGES AND SPIN POPULATIONS
-----------------------------------------------------
CHARGE
  0 Als       :     5.989549  s :     5.989549
      pz      :     2.017784  p :     6.999925
      px      :     2.982142
      py      :     1.999999
      dz2     :     0.002341  d :     0.010449
      dxz     :     0.000548
      dyz     :     0.000000
      dx2y2   :     0.007561
      dxy     :     0.000000
      f0      :     0.000003  f :     0.000075
      f+1     :     0.000022
      f-1     :     0.000000
      f+2     :     0.000005
      f-2     :     0.000000
      f+3     :     0.000043
      f-3     :     0.000001
      g0      :     0.000000  g :     0.000002
      g+1     :     0.000000
      g-1     :     0.000000
      g+2     :     0.000000
      g-2     :     0.000000
      g+3     :     0.000000
      g-3     :     0.000000
      g+4     :     0.000001
      g-4     :     0.000000
      h0      :     0.000000  h :     0.000000
      h+1     :     0.000000
      h-1     :     0.000000
      h+2     :     0.000000
      h-2     :     0.000000
      h+3     :     0.000000
      h-3     :     0.000000
      h+4     :     0.000000
      h-4     :     0.000000
      h+5     :     0.000000
      h-5     :     0.000000

SPIN
  0 Als       :    -0.002119  s :    -0.002119
      pz      :     0.017785  p :     0.999930
      px      :     0.982144
      py      :     0.000001
      dz2     :     0.000475  d :     0.002120
      dxz     :     0.000111
      dyz     :     0.000000
      dx2y2   :     0.001534
      dxy     :     0.000000
      f0      :     0.000002  f :     0.000070
      f+1     :     0.000022
      f-1     :    -0.000000
      f+2     :     0.000004
      f-2     :    -0.000000
      f+3     :     0.000042
      f-3     :    -0.000001
      g0      :    -0.000000  g :    -0.000002
      g+1     :    -0.000000
      g-1     :    -0.000000
      g+2     :    -0.000000
      g-2     :    -0.000000
      g+3     :    -0.000000
      g-3     :    -0.000000
      g+4     :    -0.000001
      g-4     :    -0.000000
      h0      :     0.000000  h :     0.000000
      h+1     :     0.000000
      h-1     :    -0.000000
      h+2     :     0.000000
      h-2     :    -0.000000
      h+3     :     0.000000
      h-3     :    -0.000000
      h+4     :     0.000000
      h-4     :    -0.000000
      h+5     :     0.000000
      h-5     :    -0.000000


                     *******************************
                     * LOEWDIN POPULATION ANALYSIS *
                     *******************************

-------------------------------------------
LOEWDIN ATOMIC CHARGES AND SPIN POPULATIONS
-------------------------------------------
   0 Al:    0.000000    1.000000

----------------------------------------------------
LOEWDIN REDUCED ORBITAL CHARGES AND SPIN POPULATIONS
----------------------------------------------------
CHARGE
  0 Als       :     5.989549  s :     5.989549
      pz      :     2.017784  p :     6.999925
      px      :     2.982142
      py      :     1.999999
      dz2     :     0.002341  d :     0.010449
      dxz     :     0.000548
      dyz     :     0.000000
      dx2y2   :     0.007561
      dxy     :     0.000000
      f0      :     0.000003  f :     0.000075
      f+1     :     0.000022
      f-1     :     0.000000
      f+2     :     0.000005
      f-2     :     0.000000
      f+3     :     0.000043
      f-3     :     0.000001
      g0      :     0.000000  g :     0.000002
      g+1     :     0.000000
      g-1     :     0.000000
      g+2     :     0.000000
      g-2     :     0.000000
      g+3     :     0.000000
      g-3     :     0.000000
      g+4     :     0.000001
      g-4     :     0.000000
      h0      :     0.000000  h :     0.000000
      h+1     :     0.000000
      h-1     :     0.000000
      h+2     :     0.000000
      h-2     :     0.000000
      h+3     :     0.000000
      h-3     :     0.000000
      h+4     :     0.000000
      h-4     :     0.000000
      h+5     :     0.000000
      h-5     :     0.000000

SPIN
  0 Als       :    -0.002119  s :    -0.002119
      pz      :     0.017785  p :     0.999930
      px      :     0.982144
      py      :     0.000001
      dz2     :     0.000475  d :     0.002120
      dxz     :     0.000111
      dyz     :     0.000000
      dx2y2   :     0.001534
      dxy     :     0.000000
      f0      :     0.000002  f :     0.000070
      f+1     :     0.000022
      f-1     :    -0.000000
      f+2     :     0.000004
      f-2     :    -0.000000
      f+3     :     0.000042
      f-3     :    -0.000001
      g0      :    -0.000000  g :    -0.000002
      g+1     :    -0.000000
      g-1     :    -0.000000
      g+2     :    -0.000000
      g-2     :    -0.000000
      g+3     :    -0.000000
      g-3     :    -0.000000
      g+4     :    -0.000001
      g-4     :    -0.000000
      h0      :     0.000000  h :     0.000000
      h+1     :     0.000000
      h-1     :    -0.000000
      h+2     :     0.000000
      h-2     :    -0.000000
      h+3     :     0.000000
      h-3     :    -0.000000
      h+4     :     0.000000
      h-4     :    -0.000000
      h+5     :     0.000000
      h-5     :    -0.000000


                      *****************************
                      * MAYER POPULATION ANALYSIS *
                      *****************************

  NA   - Mulliken gross atomic population
  ZA   - Total nuclear charge
  QA   - Mulliken gross atomic charge
  VA   - Mayer's total valence
  BVA  - Mayer's bonded valence
  FA   - Mayer's free valence

  ATOM       NA         ZA         QA         VA         BVA        FA
  0 Al    13.0000    13.0000     0.0000     1.0412     0.0000     1.0412

  Mayer bond orders larger than 0.100000


-------
TIMINGS
-------

Total SCF time: 0 days 0 hours 0 min 21 sec 

Total time                  ....      21.266 sec
Sum of individual times     ....      20.876 sec  ( 98.2%)

Fock matrix formation       ....      20.646 sec  ( 97.1%)
Diagonalization             ....       0.055 sec  (  0.3%)
Density matrix formation    ....       0.006 sec  (  0.0%)
Population analysis         ....       0.021 sec  (  0.1%)
Initial guess               ....       0.083 sec  (  0.4%)
Orbital Transformation      ....       0.000 sec  (  0.0%)
Orbital Orthonormalization  ....       0.000 sec  (  0.0%)
DIIS solution               ....       0.046 sec  (  0.2%)


           ************************************************************
           *        Program running with 3 parallel MPI-processes     *
           *              working on a common directory               *
           ************************************************************


------------------------------------------------------------------------------- 
                              ORCA-MATRIX DRIVEN CI                            
------------------------------------------------------------------------------- 

--------------------------------
AUTOMATIC CHOICE OF INCORE LEVEL
--------------------------------

Memory available                           ...   2500.00 MB
Memory needed for S+T                      ...      1.06 MB
Memory needed for J+K                      ...      2.12 MB
Memory needed for DIIS                     ...     14.78 MB
Memory needed for 3-ext                    ...     29.09 MB
Memory needed for 4-ext                    ...    909.15 MB
Memory needed for triples                  ...     72.73 MB
 -> Final InCoreLevel    ... 5
 -> check shows that triples correction can be computed


Wavefunction type
-----------------
Correlation treatment                      ...      CCSD     
Single excitations                         ... ON
Orbital optimization                       ... OFF
Calculation of Z vector                    ... OFF
Calculation of Brueckner orbitals          ... OFF
Perturbative triple excitations            ... ON
Calculation of F12 correction              ... OFF
Frozen core treatment                      ... chemical core (10 el)
Reference Wavefunction                     ... UHF
  Alpha-MOs occ    :     5 ...    6 (  2 MO's/  2 electrons)
  Beta-MOs occ     :     5 ...    5 (  1 MO's/  1 electrons)
  Alpha-MOs virt   :     7 ...  130 (124 MO's              )
  Beta-MOs virt    :     6 ...  130 (125 MO's              )
Number of AO's                             ...    131
Number of electrons                        ...     13
Number of correlated electrons             ...      3

Algorithmic settings
--------------------
Integral transformation                    ... AO direct full transformation
K(C) Formation                             ... FULL-MO TRAFO
Maximum number of iterations               ...        50
Convergence tolerance (max. residuum)      ... 1.000e-05
Level shift for amplitude update           ... 2.000e-01
Maximum number of DIIS vectors             ...         7
DIIS turned on at iteration                ...         0
Damping before turning on DIIS             ...     0.500
Damping after turning on DIIS              ...     0.000
Pair specific amplitude update             ... OFF
Natural orbital iterations                 ... OFF
Perturbative natural orbital generation    ... OFF
Printlevel                                 ... 2

Memory handling:
----------------
Maximum memory for working arrays          ...   2500 MB
Data storage in matrix containers          ... UNCOMPRESSED
Data type for integral storage             ... DOUBLE
In-Core Storage of quantities:
   Amplitudes+Sigma Vector      ... YES
   J+K operators                ... YES
   DIIS vectors                 ... YES
   3-external integrals         ... YES
   4-external integrals         ... YES


Initializing the integral package          ... done
Warning: reference  - re-canonicalizations have been set to INT 1 VIRT 1

--------------------------
UNRESTRICTED FOCK OPERATOR
--------------------------

<ss|ss>:          666 b            0 skpd (  0.0%)    0.013 s ( 0.020 ms/b)
<ss|sp>:         2016 b            0 skpd (  0.0%)    0.076 s ( 0.038 ms/b)
<ss|sd>:         1440 b            0 skpd (  0.0%)    0.011 s ( 0.007 ms/b)
<ss|sf>:         1152 b            1 skpd (  0.1%)    0.011 s ( 0.010 ms/b)
<ss|sg>:          864 b            1 skpd (  0.1%)    0.014 s ( 0.016 ms/b)
<ss|sh>:          576 b            1 skpd (  0.2%)    0.011 s ( 0.020 ms/b)
<ss|pp>:         1008 b            0 skpd (  0.0%)    0.022 s ( 0.022 ms/b)
<ss|pd>:         1260 b            0 skpd (  0.0%)    0.007 s ( 0.006 ms/b)
<ss|pf>:         1008 b            0 skpd (  0.0%)    0.010 s ( 0.010 ms/b)
<ss|pg>:          756 b            0 skpd (  0.0%)    0.012 s ( 0.016 ms/b)
<ss|ph>:          504 b            0 skpd (  0.0%)    0.012 s ( 0.023 ms/b)
<ss|dd>:          540 b            0 skpd (  0.0%)    0.001 s ( 0.003 ms/b)
<ss|df>:          720 b            0 skpd (  0.0%)    0.003 s ( 0.005 ms/b)
<ss|dg>:          540 b            0 skpd (  0.0%)    0.004 s ( 0.007 ms/b)
<ss|dh>:          360 b            0 skpd (  0.0%)    0.004 s ( 0.011 ms/b)
<ss|ff>:          360 b            0 skpd (  0.0%)    0.003 s ( 0.008 ms/b)
<ss|fg>:          432 b            0 skpd (  0.0%)    0.004 s ( 0.010 ms/b)
<ss|fh>:          288 b            0 skpd (  0.0%)    0.004 s ( 0.015 ms/b)
<ss|gg>:          216 b            0 skpd (  0.0%)    0.003 s ( 0.015 ms/b)
<ss|gh>:          216 b            0 skpd (  0.0%)    0.004 s ( 0.019 ms/b)
<ss|hh>:          108 b            0 skpd (  0.0%)    0.003 s ( 0.027 ms/b)
<sp|sp>:         1596 b            0 skpd (  0.0%)    0.031 s ( 0.019 ms/b)
<sp|sd>:         2240 b            3 skpd (  0.1%)    0.011 s ( 0.005 ms/b)
<sp|sf>:         1792 b           13 skpd (  0.7%)    0.014 s ( 0.008 ms/b)
<sp|sg>:         1344 b           28 skpd (  2.1%)    0.017 s ( 0.013 ms/b)
<sp|sh>:          896 b           24 skpd (  2.7%)    0.014 s ( 0.016 ms/b)
<sp|pp>:         1568 b            0 skpd (  0.0%)    0.015 s ( 0.010 ms/b)
<sp|pd>:         1960 b            1 skpd (  0.1%)    0.010 s ( 0.005 ms/b)
<sp|pf>:         1568 b            2 skpd (  0.1%)    0.015 s ( 0.009 ms/b)
<sp|pg>:         1176 b            2 skpd (  0.2%)    0.016 s ( 0.013 ms/b)
<sp|ph>:          784 b            1 skpd (  0.1%)    0.015 s ( 0.019 ms/b)
<sp|dd>:          840 b            1 skpd (  0.1%)    0.003 s ( 0.003 ms/b)
<sp|df>:         1120 b            2 skpd (  0.2%)    0.006 s ( 0.005 ms/b)
<sp|dg>:          840 b            6 skpd (  0.7%)    0.006 s ( 0.007 ms/b)
<sp|dh>:          560 b            4 skpd (  0.7%)    0.006 s ( 0.011 ms/b)
<sp|ff>:          560 b            0 skpd (  0.0%)    0.005 s ( 0.009 ms/b)
<sp|fg>:          672 b            1 skpd (  0.1%)    0.007 s ( 0.011 ms/b)
<sp|fh>:          448 b            0 skpd (  0.0%)    0.007 s ( 0.016 ms/b)
<sp|gg>:          336 b            7 skpd (  2.1%)    0.005 s ( 0.015 ms/b)
<sp|gh>:          336 b            6 skpd (  1.8%)    0.007 s ( 0.020 ms/b)
<sp|hh>:          168 b            5 skpd (  3.0%)    0.004 s ( 0.027 ms/b)
<sd|sd>:          820 b            2 skpd (  0.2%)    0.003 s ( 0.003 ms/b)
<sd|sf>:         1280 b           19 skpd (  1.5%)    0.007 s ( 0.005 ms/b)
<sd|sg>:          960 b           22 skpd (  2.3%)    0.008 s ( 0.009 ms/b)
<sd|sh>:          640 b           19 skpd (  3.0%)    0.007 s ( 0.012 ms/b)
<sd|pp>:         1120 b            2 skpd (  0.2%)    0.007 s ( 0.007 ms/b)
<sd|pd>:         1400 b            8 skpd (  0.6%)    0.006 s ( 0.004 ms/b)
<sd|pf>:         1120 b           10 skpd (  0.9%)    0.008 s ( 0.007 ms/b)
<sd|pg>:          840 b           32 skpd (  3.8%)    0.009 s ( 0.011 ms/b)
<sd|ph>:          560 b           23 skpd (  4.1%)    0.009 s ( 0.016 ms/b)
<sd|dd>:          600 b            2 skpd (  0.3%)    0.002 s ( 0.003 ms/b)
<sd|df>:          800 b            6 skpd (  0.8%)    0.005 s ( 0.006 ms/b)
<sd|dg>:          600 b            6 skpd (  1.0%)    0.005 s ( 0.008 ms/b)
<sd|dh>:          400 b            4 skpd (  1.0%)    0.005 s ( 0.014 ms/b)
<sd|ff>:          400 b            5 skpd (  1.2%)    0.004 s ( 0.010 ms/b)
<sd|fg>:          480 b           12 skpd (  2.5%)    0.006 s ( 0.012 ms/b)
<sd|fh>:          320 b            8 skpd (  2.5%)    0.006 s ( 0.018 ms/b)
<sd|gg>:          240 b            6 skpd (  2.5%)    0.004 s ( 0.018 ms/b)
<sd|gh>:          240 b            6 skpd (  2.5%)    0.005 s ( 0.023 ms/b)
<sd|hh>:          120 b            3 skpd (  2.5%)    0.004 s ( 0.031 ms/b)
<sf|sf>:          528 b           26 skpd (  4.9%)    0.006 s ( 0.011 ms/b)
<sf|sg>:          768 b           56 skpd (  7.3%)    0.012 s ( 0.016 ms/b)
<sf|sh>:          512 b           43 skpd (  8.4%)    0.012 s ( 0.025 ms/b)
<sf|pp>:          896 b            4 skpd (  0.4%)    0.013 s ( 0.014 ms/b)
<sf|pd>:         1120 b           22 skpd (  2.0%)    0.009 s ( 0.008 ms/b)
<sf|pf>:          896 b           25 skpd (  2.8%)    0.013 s ( 0.015 ms/b)
<sf|pg>:          672 b           25 skpd (  3.7%)    0.017 s ( 0.026 ms/b)
<sf|ph>:          448 b           16 skpd (  3.6%)    0.018 s ( 0.041 ms/b)
<sf|dd>:          480 b            7 skpd (  1.5%)    0.003 s ( 0.006 ms/b)
<sf|df>:          640 b           35 skpd (  5.5%)    0.007 s ( 0.011 ms/b)
<sf|dg>:          480 b           30 skpd (  6.2%)    0.007 s ( 0.016 ms/b)
<sf|dh>:          320 b           20 skpd (  6.2%)    0.008 s ( 0.026 ms/b)
<sf|ff>:          320 b           13 skpd (  4.1%)    0.006 s ( 0.021 ms/b)
<sf|fg>:          384 b           23 skpd (  6.0%)    0.009 s ( 0.026 ms/b)
<sf|fh>:          256 b           17 skpd (  6.6%)    0.009 s ( 0.039 ms/b)
<sf|gg>:          192 b           20 skpd ( 10.4%)    0.006 s ( 0.035 ms/b)
<sf|gh>:          192 b           24 skpd ( 12.5%)    0.007 s ( 0.044 ms/b)
<sf|hh>:           96 b           23 skpd ( 24.0%)    0.004 s ( 0.057 ms/b)
<sg|sg>:          300 b           29 skpd (  9.7%)    0.009 s ( 0.034 ms/b)
<sg|sh>:          384 b           41 skpd ( 10.7%)    0.017 s ( 0.050 ms/b)
<sg|pp>:          672 b            8 skpd (  1.2%)    0.018 s ( 0.027 ms/b)
<sg|pd>:          840 b           68 skpd (  8.1%)    0.010 s ( 0.013 ms/b)
<sg|pf>:          672 b           33 skpd (  4.9%)    0.017 s ( 0.027 ms/b)
<sg|pg>:          504 b           82 skpd ( 16.3%)    0.016 s ( 0.038 ms/b)
<sg|ph>:          336 b           53 skpd ( 15.8%)    0.017 s ( 0.059 ms/b)
<sg|dd>:          360 b           10 skpd (  2.8%)    0.004 s ( 0.010 ms/b)
<sg|df>:          480 b           38 skpd (  7.9%)    0.008 s ( 0.019 ms/b)
<sg|dg>:          360 b           29 skpd (  8.1%)    0.010 s ( 0.031 ms/b)
<sg|dh>:          240 b           20 skpd (  8.3%)    0.011 s ( 0.050 ms/b)
<sg|ff>:          240 b           17 skpd (  7.1%)    0.008 s ( 0.036 ms/b)
<sg|fg>:          288 b           37 skpd ( 12.8%)    0.011 s ( 0.043 ms/b)
<sg|fh>:          192 b           25 skpd ( 13.0%)    0.011 s ( 0.064 ms/b)
<sg|gg>:          144 b           18 skpd ( 12.5%)    0.008 s ( 0.067 ms/b)
<sg|gh>:          144 b           18 skpd ( 12.5%)    0.011 s ( 0.086 ms/b)
<sg|hh>:           72 b            9 skpd ( 12.5%)    0.007 s ( 0.115 ms/b)
<sh|sh>:          136 b           17 skpd ( 12.5%)    0.013 s ( 0.106 ms/b)
<sh|pp>:          448 b            6 skpd (  1.3%)    0.023 s ( 0.052 ms/b)
<sh|pd>:          560 b           58 skpd ( 10.4%)    0.013 s ( 0.025 ms/b)
<sh|pf>:          448 b           22 skpd (  4.9%)    0.023 s ( 0.053 ms/b)
<sh|pg>:          336 b           54 skpd ( 16.1%)    0.020 s ( 0.069 ms/b)
<sh|ph>:          224 b           75 skpd ( 33.5%)    0.010 s ( 0.066 ms/b)
<sh|dd>:          240 b            8 skpd (  3.3%)    0.005 s ( 0.020 ms/b)
<sh|df>:          320 b           32 skpd ( 10.0%)    0.009 s ( 0.032 ms/b)
<sh|dg>:          240 b           24 skpd ( 10.0%)    0.011 s ( 0.051 ms/b)
<sh|dh>:          160 b           17 skpd ( 10.6%)    0.012 s ( 0.083 ms/b)
<sh|ff>:          160 b           16 skpd ( 10.0%)    0.009 s ( 0.063 ms/b)
<sh|fg>:          192 b           25 skpd ( 13.0%)    0.012 s ( 0.074 ms/b)
<sh|fh>:          128 b           67 skpd ( 52.3%)    0.003 s ( 0.043 ms/b)
<sh|gg>:           96 b           12 skpd ( 12.5%)    0.009 s ( 0.113 ms/b)
<sh|gh>:           96 b           12 skpd ( 12.5%)    0.012 s ( 0.145 ms/b)
<sh|hh>: done
<pp|pp>:          406 b            0 skpd (  0.0%)    0.006 s ( 0.015 ms/b)
<pp|pd>:          980 b            0 skpd (  0.0%)    0.007 s ( 0.007 ms/b)
<pp|pf>:          784 b            0 skpd (  0.0%)    0.010 s ( 0.013 ms/b)
<pp|pg>:          588 b            0 skpd (  0.0%)    0.012 s ( 0.021 ms/b)
<pp|ph>:          392 b            0 skpd (  0.0%)    0.013 s ( 0.032 ms/b)
<pp|dd>:          420 b            0 skpd (  0.0%)    0.002 s ( 0.006 ms/b)
<pp|df>:          560 b            0 skpd (  0.0%)    0.005 s ( 0.010 ms/b)
<pp|dg>:          420 b            0 skpd (  0.0%)    0.006 s ( 0.013 ms/b)
<pp|dh>:          280 b            0 skpd (  0.0%)    0.006 s ( 0.023 ms/b)
<pp|ff>:          280 b            0 skpd (  0.0%)    0.005 s ( 0.017 ms/b)
<pp|fg>:          336 b            0 skpd (  0.0%)    0.007 s ( 0.021 ms/b)
<pp|fh>:          224 b            0 skpd (  0.0%)    0.007 s ( 0.032 ms/b)
<pp|gg>:          168 b            0 skpd (  0.0%)    0.005 s ( 0.030 ms/b)
<pp|gh>:          168 b            0 skpd (  0.0%)    0.007 s ( 0.041 ms/b)
<pp|hh>:           84 b            0 skpd (  0.0%)    0.005 s ( 0.059 ms/b)
<pd|pd>:          630 b            0 skpd (  0.0%)    0.004 s ( 0.007 ms/b)
<pd|pf>:          980 b            0 skpd (  0.0%)    0.011 s ( 0.011 ms/b)
<pd|pg>:          735 b            0 skpd (  0.0%)    0.013 s ( 0.018 ms/b)
<pd|ph>:          490 b            0 skpd (  0.0%)    0.013 s ( 0.028 ms/b)
<pd|dd>:          525 b            0 skpd (  0.0%)    0.004 s ( 0.008 ms/b)
<pd|df>:          700 b            0 skpd (  0.0%)    0.008 s ( 0.012 ms/b)
<pd|dg>:          525 b            0 skpd (  0.0%)    0.008 s ( 0.016 ms/b)
<pd|dh>:          350 b            0 skpd (  0.0%)    0.009 s ( 0.026 ms/b)
<pd|ff>:          350 b            0 skpd (  0.0%)    0.007 s ( 0.020 ms/b)
<pd|fg>:          420 b            0 skpd (  0.0%)    0.010 s ( 0.025 ms/b)
<pd|fh>:          280 b            0 skpd (  0.0%)    0.010 s ( 0.037 ms/b)
<pd|gg>:          210 b            0 skpd (  0.0%)    0.007 s ( 0.034 ms/b)
<pd|gh>:          210 b            0 skpd (  0.0%)    0.010 s ( 0.047 ms/b)
<pd|hh>:          105 b            0 skpd (  0.0%)    0.007 s ( 0.064 ms/b)
<pf|pf>:          406 b            0 skpd (  0.0%)    0.009 s ( 0.021 ms/b)
<pf|pg>:          588 b            0 skpd (  0.0%)    0.020 s ( 0.034 ms/b)
<pf|ph>:          392 b            0 skpd (  0.0%)    0.021 s ( 0.054 ms/b)
<pf|dd>:          420 b            0 skpd (  0.0%)    0.004 s ( 0.010 ms/b)
<pf|df>:          560 b            0 skpd (  0.0%)    0.011 s ( 0.019 ms/b)
<pf|dg>:          420 b            0 skpd (  0.0%)    0.011 s ( 0.026 ms/b)
<pf|dh>:          280 b            0 skpd (  0.0%)    0.012 s ( 0.043 ms/b)
<pf|ff>:          280 b            0 skpd (  0.0%)    0.010 s ( 0.035 ms/b)
<pf|fg>:          336 b            0 skpd (  0.0%)    0.015 s ( 0.044 ms/b)
<pf|fh>:          224 b            0 skpd (  0.0%)    0.015 s ( 0.065 ms/b)
<pf|gg>:          168 b            0 skpd (  0.0%)    0.010 s ( 0.060 ms/b)
<pf|gh>:          168 b            0 skpd (  0.0%)    0.014 s ( 0.082 ms/b)
<pf|hh>:           84 b            0 skpd (  0.0%)    0.010 s ( 0.115 ms/b)
<pg|pg>:          231 b            0 skpd (  0.0%)    0.014 s ( 0.061 ms/b)
<pg|ph>:          294 b            0 skpd (  0.0%)    0.029 s ( 0.099 ms/b)
<pg|dd>:          315 b            0 skpd (  0.0%)    0.005 s ( 0.016 ms/b)
<pg|df>:          420 b            0 skpd (  0.0%)    0.012 s ( 0.029 ms/b)
<pg|dg>:          315 b           13 skpd (  4.1%)    0.014 s ( 0.046 ms/b)
<pg|dh>:          210 b            8 skpd (  3.8%)    0.014 s ( 0.068 ms/b)
<pg|ff>:          210 b            0 skpd (  0.0%)    0.011 s ( 0.053 ms/b)
<pg|fg>:          252 b            0 skpd (  0.0%)    0.018 s ( 0.071 ms/b)
<pg|fh>:          168 b            0 skpd (  0.0%)    0.018 s ( 0.104 ms/b)
<pg|gg>:          126 b            4 skpd (  3.2%)    0.013 s ( 0.103 ms/b)
<pg|gh>:          126 b            3 skpd (  2.4%)    0.017 s ( 0.137 ms/b)
<pg|hh>:           63 b            0 skpd (  0.0%)    0.012 s ( 0.191 ms/b)
<ph|ph>:          105 b            0 skpd (  0.0%)    0.018 s ( 0.171 ms/b)
<ph|dd>:          210 b            0 skpd (  0.0%)    0.005 s ( 0.026 ms/b)
<ph|df>:          280 b            0 skpd (  0.0%)    0.013 s ( 0.046 ms/b)
<ph|dg>:          210 b            7 skpd (  3.3%)    0.014 s ( 0.068 ms/b)
<ph|dh>:          140 b           18 skpd ( 12.9%)    0.013 s ( 0.108 ms/b)
<ph|ff>:          140 b            0 skpd (  0.0%)    0.012 s ( 0.084 ms/b)
<ph|fg>:          168 b            0 skpd (  0.0%)    0.018 s ( 0.106 ms/b)
<ph|fh>:          112 b            0 skpd (  0.0%)    0.019 s ( 0.167 ms/b)
<ph|gg>:           84 b            1 skpd (  1.2%)    0.013 s ( 0.154 ms/b)
<ph|gh>:           84 b            2 skpd (  2.4%)    0.018 s ( 0.220 ms/b)
<ph|hh>:           42 b            0 skpd (  0.0%)    0.013 s ( 0.315 ms/b)
<dd|dd>:          120 b            0 skpd (  0.0%)    0.001 s ( 0.010 ms/b)
<dd|df>:          300 b            0 skpd (  0.0%)    0.005 s ( 0.017 ms/b)
<dd|dg>:          225 b            0 skpd (  0.0%)    0.005 s ( 0.022 ms/b)
<dd|dh>:          150 b            0 skpd (  0.0%)    0.005 s ( 0.034 ms/b)
<dd|ff>:          150 b            0 skpd (  0.0%)    0.004 s ( 0.027 ms/b)
<dd|fg>:          180 b            0 skpd (  0.0%)    0.006 s ( 0.033 ms/b)
<dd|fh>:          120 b            0 skpd (  0.0%)    0.006 s ( 0.049 ms/b)
<dd|gg>:           90 b            0 skpd (  0.0%)    0.005 s ( 0.057 ms/b)
<dd|gh>:           90 b            0 skpd (  0.0%)    0.006 s ( 0.065 ms/b)
<dd|hh>:           45 b            0 skpd (  0.0%)    0.004 s ( 0.090 ms/b)
<df|df>:          210 b            0 skpd (  0.0%)    0.006 s ( 0.028 ms/b)
<df|dg>:          300 b            0 skpd (  0.0%)    0.010 s ( 0.035 ms/b)
<df|dh>:          200 b            0 skpd (  0.0%)    0.011 s ( 0.055 ms/b)
<df|ff>:          200 b            0 skpd (  0.0%)    0.009 s ( 0.047 ms/b)
<df|fg>:          240 b            0 skpd (  0.0%)    0.014 s ( 0.057 ms/b)
<df|fh>:          160 b            0 skpd (  0.0%)    0.013 s ( 0.084 ms/b)
<df|gg>:          120 b            0 skpd (  0.0%)    0.009 s ( 0.079 ms/b)
<df|gh>:          120 b            0 skpd (  0.0%)    0.013 s ( 0.108 ms/b)
<df|hh>:           60 b            3 skpd (  5.0%)    0.009 s ( 0.150 ms/b)
<dg|dg>:          120 b            0 skpd (  0.0%)    0.007 s ( 0.057 ms/b)
<dg|dh>:          150 b            0 skpd (  0.0%)    0.012 s ( 0.079 ms/b)
<dg|ff>:          150 b            0 skpd (  0.0%)    0.009 s ( 0.061 ms/b)
<dg|fg>:          180 b            0 skpd (  0.0%)    0.015 s ( 0.082 ms/b)
<dg|fh>:          120 b            0 skpd (  0.0%)    0.014 s ( 0.115 ms/b)
<dg|gg>:           90 b            0 skpd (  0.0%)    0.011 s ( 0.121 ms/b)
<dg|gh>:           90 b            0 skpd (  0.0%)    0.015 s ( 0.166 ms/b)
<dg|hh>:           45 b            0 skpd (  0.0%)    0.010 s ( 0.223 ms/b)
<dh|dh>:           55 b            0 skpd (  0.0%)    0.006 s ( 0.117 ms/b)
<dh|ff>:          100 b            0 skpd (  0.0%)    0.009 s ( 0.087 ms/b)
<dh|fg>:          120 b            0 skpd (  0.0%)    0.013 s ( 0.109 ms/b)
<dh|fh>:           80 b           19 skpd ( 23.8%)    0.012 s ( 0.199 ms/b)
<dh|gg>:           60 b            0 skpd (  0.0%)    0.009 s ( 0.158 ms/b)
<dh|gh>:           60 b            0 skpd (  0.0%)    0.015 s ( 0.248 ms/b)
<dh|hh>: done
<ff|ff>:           55 b            0 skpd (  0.0%)    0.004 s ( 0.073 ms/b)
<ff|fg>:          120 b            0 skpd (  0.0%)    0.011 s ( 0.095 ms/b)
<ff|fh>:           80 b            0 skpd (  0.0%)    0.011 s ( 0.143 ms/b)
<ff|gg>:           60 b            0 skpd (  0.0%)    0.008 s ( 0.134 ms/b)
<ff|gh>:           60 b            0 skpd (  0.0%)    0.012 s ( 0.193 ms/b)
<ff|hh>:           30 b            0 skpd (  0.0%)    0.008 s ( 0.279 ms/b)
<fg|fg>:           78 b            0 skpd (  0.0%)    0.013 s ( 0.166 ms/b)
<fg|fh>:           96 b            0 skpd (  0.0%)    0.021 s ( 0.224 ms/b)
<fg|gg>:           72 b            0 skpd (  0.0%)    0.016 s ( 0.223 ms/b)
<fg|gh>:           72 b            0 skpd (  0.0%)    0.023 s ( 0.316 ms/b)
<fg|hh>:           36 b            0 skpd (  0.0%)    0.015 s ( 0.421 ms/b)
<fh|fh>:           36 b            0 skpd (  0.0%)    0.013 s ( 0.357 ms/b)
<fh|gg>:           48 b            0 skpd (  0.0%)    0.014 s ( 0.292 ms/b)
<fh|gh>:           48 b            1 skpd (  2.1%)    0.022 s ( 0.476 ms/b)
<fh|hh>:           24 b            0 skpd (  0.0%)    0.017 s ( 0.703 ms/b)
<gg|gg>:           21 b            0 skpd (  0.0%)    0.010 s ( 0.480 ms/b)
<gg|gh>:           36 b            0 skpd (  0.0%)    0.020 s ( 0.568 ms/b)
<gg|hh>:           18 b            0 skpd (  0.0%)    0.013 s ( 0.745 ms/b)
<gh|gh>:           21 b            0 skpd (  0.0%)    0.022 s ( 1.051 ms/b)
<gh|hh>: done
<hh|hh>: done
Recanonicalizing the internal orbitals
Recanonicalizing the virtual orbitals
Time needed for Fock operator              ...            2.414 sec
Reference energy                           ...   -241.880761270
Warning: for UHF the TrafoType has to be JK
Warning: for UHF the K(C)-option cannot be MO but must be AOX

-------------------------------
PARTIAL EXCHANGE TRANSFORMATION
-------------------------------

Transformation type                        ... two-operators
Generation of integrals (i,mue|j,nue)      ... ON
Generation of integrals (mue,kappa|nue,tau)... ON
Generation of integrals (i,mue|a,nue)      ... ON
Dimension of the basis                     ...  131
Number of internal alpha-MOs               ...    2 (   5-   6)
Number of internal beta-MOs                ...    1 (   5-   5)
Number of external alpha-MOs               ...  124 (   7- 130)
Number of external beta-MOs                ...  125 (   6- 130)
Pair cutoff                                ... 0.000e+00 Eh
Number of AO pairs in the trafo            ... 8646
Total Number of distinct AO pairs          ... 8646
Memory devoted for trafo                   ... 2500.0 MB 
Max. Number of MO pairs treated together   ... 19094      
Number Format for Storage                  ... Double (8 Byte)
Integral package used                      ... LIBINT

Starting integral evaluation:
    ... done with AO integral generation
Closing buffer AOK[aa] ( 0.00 GB; CompressionRatio= 0.73)
Closing buffer AOK[bb] ( 0.00 GB; CompressionRatio= 0.40)
Closing buffer AOK[ab] ( 0.00 GB; CompressionRatio= 0.57)
Closing buffer AOK[ba] ( 0.00 GB; CompressionRatio= 0.57)
Collecting buffer AOK 
Closing buffer IAAO1[aa] ( 0.01 GB; CompressionRatio= 0.99)
Closing buffer IAAO1[bb] ( 0.00 GB; CompressionRatio= 0.99)
Closing buffer IAAO1[ab] ( 0.01 GB; CompressionRatio= 0.99)
Closing buffer IAAO1[ba] ( 0.00 GB; CompressionRatio= 0.99)
Closing buffer IAAO2[aa] ( 0.01 GB; CompressionRatio= 0.99)
Closing buffer IAAO2[bb] ( 0.00 GB; CompressionRatio= 0.99)
Closing buffer IAAO2[ab] ( 0.01 GB; CompressionRatio= 0.99)
Closing buffer IAAO2[ba] ( 0.00 GB; CompressionRatio= 0.99)
Collecting buffer IAAO 
Closing buffer PRQS    ( 0.34 GB; CompressionRatio= 1.00)
Collecting buffer PRQS 
Number of alpha/alpha MO pairs in trafo    ...    3
Number of beta /beta  MO pairs in trafo    ...    1
Number of alpha/ beta MO pairs in trafo    ...    2
------------------------
SORTING OF (i,mue|j,nue)
------------------------

SORTING OF ALPHA/ALPHA PAIRS
IBATCH = 1 of  1
Closing buffer KAO[aa] ( 0.00 GB; CompressionRatio= 1.00)
Collecting buffer KAO 
SORTING OF BETA /BETA  PAIRS
IBATCH = 1 of  1
Closing buffer KAO[bb] ( 0.00 GB; CompressionRatio= 1.00)
Collecting buffer KAO 
SORTING OF ALPHA/BETA  PAIRS
IBATCH = 1 of  1
Closing buffer KAO[ab] ( 0.00 GB; CompressionRatio= 0.999912600146)
Collecting buffer KAO[ab] 
------------------------
SORTING OF (i,mue|a,nue)
------------------------

Number of alpha/alpha (i,a) pairs in trafo  ...  248
Number of beta /beta  (i,a) pairs in trafo  ...  125
Number of alpha/ beta (i,a) pairs in trafo  ...  250
Number of beta /alpha (i,a) pairs in trafo  ...  124
Setting up the alpha/alpha list             ... done
Setting up the beta /beta  list             ... done
Setting up the alpha/beta  list             ... done
Setting up the beta /alpha list             ... done
    ... Now sorting (i,mue|a,nue)integrals
    ... Integrals (i,b|a,c) will be made on the fly
SORTING OF ALPHA/ALPHA PAIRS
IBATCH = 1 of  1
Closing buffer IPAQ[aa]  0.01 GB; CompressionRatio= 1.00)
SORTING OF BETA /BETA  PAIRS
IBATCH = 1 of  1
Closing buffer IPAQ[bb]( 0.00 GB; CompressionRatio= 1.00)
SORTING OF ALPHA/BETA  PAIRS (NMatSort_ab=84)
IBATCH = 1 of  1
Closing buffer IPAQ[ab]( 0.01 GB; CompressionRatio= 1.00)
SORTING OF BETA/ALPHA  PAIRS
IBATCH = 1 of  1
Closing buffer IPAQ[ba]( 0.00 GB; CompressionRatio= 1.00)
N(AO-Batches) Done                         ...    113535 
N(AO-Batches) Skipped                      ...         0 
N(IJ)-pairs Skipped                        ...         0 
TOTAL TIME for half transformation         ...    24.900 sec
AO-integral generation                     ...     7.981 sec
Half transformation                        ...    10.452 sec
K-integral sorting                         ...     0.601 sec
<ss|**>: 
------------------------------
PARTIAL COULOMB TRANSFORMATION
------------------------------

Transformation type                        ... two-operators
Dimension of the basis                     ...  131
Number of internal alpha-MOs               ...    2 (5-6)
Number of internal beta-MOs                ...    1 (5-5)
Pair cutoff                                ... 0.000e+00 Eh
Number of AO pairs included in the trafo   ... 8646
Total Number of distinct AO pairs          ... 8646
Memory devoted for trafo                   ... 2500.0 MB 
Max. Number of MO pairs treated together   ... 37899      
Max. Number of MOs treated per batch       ...  289      
Number Format for Storage                  ... Double (8 Byte)
AO-integral source                         ... DIRECT
Integral package used                      ... LIBINT

Starting integral evaluation:
<sp|**>:        15660 b        0 skpd     0.306 s (  0.020 ms/b)
       24360 b        0 skpd     0.329 s (  0.014 ms/b)
<sd|**>: <sf|**>:        17400 b        0 skpd     0.176 s (  0.010 ms/b)
<sg|**>:        13920 b        0 skpd     0.290 s (  0.021 ms/b)
       10440 b        0 skpd     0.390 s (  0.037 ms/b)
<sh|**>: <pp|**>:         6960 b        0 skpd     0.378 s (  0.054 ms/b)
       12180 b        0 skpd     0.247 s (  0.020 ms/b)
<pd|**>:        15225 b        0 skpd     0.308 s (  0.020 ms/b)
<pf|**>:        12180 b        0 skpd     0.433 s (  0.036 ms/b)
<pg|**>:         9135 b        0 skpd     0.486 s (  0.053 ms/b)
<ph|**>:         6090 b        0 skpd     0.521 s (  0.086 ms/b)
<dd|**>:         6525 b        0 skpd     0.156 s (  0.024 ms/b)
<df|**>:         8700 b        0 skpd     0.355 s (  0.041 ms/b)
<dg|**>:         6525 b        0 skpd     0.359 s (  0.055 ms/b)
<dh|**>:         4350 b        0 skpd     0.369 s (  0.085 ms/b)
<ff|**>:         4350 b        0 skpd     0.254 s (  0.058 ms/b)
<fg|**>:         5220 b        0 skpd     0.442 s (  0.085 ms/b)
<fh|**>:         3480 b        0 skpd     0.431 s (  0.124 ms/b)
<gg|**>:         2610 b        0 skpd     0.295 s (  0.113 ms/b)
<gh|**>:         2610 b        0 skpd     0.425 s (  0.163 ms/b)
<hh|**>:         1305 b        0 skpd     0.272 s (  0.209 ms/b)
Closing buffer AOJ[aa] ( 0.00 GB; CompressionRatio= 0.67)
Closing buffer AOJ[bb] ( 0.00 GB; CompressionRatio= 0.00)
Collecting buffer AOJ 
    ... done with AO integral generation
Number of Alpha-MO pairs included          ...    3
Number of Beta-MO pairs included           ...    1
    ... Now sorting integrals
SORTING ALPHA/ALPHA PAIRS
IBATCH = 1 of  1
Closing buffer JAO[aa] ( 0.00 GB; CompressionRatio= 1.00)
SORTING BETA/BETA PAIRS
IBATCH = 1 of  1
Closing buffer JAO[bb] ( 0.00 GB; CompressionRatio= 1.00)
Collecting buffer JAO 
TOTAL TIME for half transformation         ...     7.269 sec
AO-integral generation                     ...     5.489 sec
Half transformation                        ...     1.743 sec
J-integral sorting                         ...     0.027 sec

-------------------------- SECOND HALF TRANSFORMATION -------------------------
Formation of (ij|kl),(ij|ka), (ij|ab)      ... ok (     0.019 sec)
Formation of (ik|jl),(ik|ja), (ia|jb)      ... ok (     0.027 sec)


-----------------------
SPIN UNRESTRICTED GUESS
-----------------------

Entering MDCI_UHF_Guess, Tailored=0
Spin-components of the MP2 energy:
EMP2(aa)=     -0.002686094
EMP2(bb)=      0.000000000
EMP2(ab)=     -0.036487236

Initial guess performed in     0.002 sec
E(0)                                       ...   -241.880761270
E(MP2)                                     ...     -0.039173330
Initial E(tot)                             ...   -241.919934600
<T|T>                                      ...      0.031120027
Number of pairs included                   ... 3

------------------------------------------------
                  UHF COUPLED CLUSTER ITERATIONS
------------------------------------------------

Number of amplitudes to be optimized       ...        38874

Iter       E(tot)           E(Corr)          Delta-E          Residual     Time      <S|S>**1/2
  0   -241.919934600     -0.039173330     -0.000000000      0.010299072    2.04      0.000000713
                           *** Turning on DIIS ***
  1   -241.925798429     -0.045037159     -0.005863829      0.006383289    2.90      0.013086654
  2   -241.930919862     -0.050158593     -0.005121434      0.003198350    2.88      0.025412746
  3   -241.932984375     -0.052223106     -0.002064513      0.000956304    2.86      0.033029077
  4   -241.933164900     -0.052403631     -0.000180525      0.000191722    2.88      0.035417286
  5   -241.933222031     -0.052460762     -0.000057131      0.000049928    2.87      0.035863623
  6   -241.933216614     -0.052455345      0.000005417      0.000024951    2.86      0.035871914
  7   -241.933217838     -0.052456568     -0.000001223      0.000011686    2.88      0.035880286
  8   -241.933218122     -0.052456853     -0.000000285      0.000004402    2.88      0.035883549
               --- The Coupled-Cluster iterations have converged ---

----------------------
COUPLED CLUSTER ENERGY
----------------------

E(0)                                       ...   -241.880761270
E(CORR)                                    ...     -0.052456853
E(TOT)                                     ...   -241.933218122
Singles norm <S|S>**1/2                    ...      0.035883549 ( 0.030072494, 0.005811055)  
T1 diagnostic                              ...      0.020717376                              

------------------
LARGEST AMPLITUDES
------------------
   6a-> 29a   5b-> 12b       0.053197
   5a->  7a   5b-> 11b       0.051160
   5a->  8a   5b-> 10b       0.051160
   5a->  8a   5b->  6b       0.046282
   5a->  7a   5b->  7b       0.046282
   5a->  7a   5b-> 19b       0.040227
   5a->  8a   5b-> 18b       0.040227
   6a-> 30a   5b-> 11b       0.039961
   6a-> 31a   5b-> 10b       0.039961
   5a-> 11a   5b-> 11b       0.039483
   5a-> 12a   5b-> 10b       0.039483
   6a-> 29a   5b-> 28b       0.038898
   5a-> 19a   5b-> 11b       0.038478
   5a-> 20a   5b-> 10b       0.038478
   6a-> 31a   5b->  6b       0.036606
   6a-> 30a   5b->  7b       0.036606

----------------------
UHF TRIPLES CORRECTION (Algorithm 1)
----------------------

Multiplier for the singles contribution    ...      1.000000000

SPIN-CASE Alpha-Alpha-Alpha:

SPIN-CASE Beta-Beta-Beta:

SPIN-CASE Alpha-Alpha-Beta:
10% done
20% done
30% done
40% done
50% done
60% done
70% done
80% done
90% done


SPIN-CASE Beta-Beta-Alpha:

Triples Correction (T)                     ...     -0.001318887
    alpha-alpha-alpha ...  0.000000000 ( -0.0%)
    alpha-alpha-beta  ... -0.001318887 (100.0%)
    alpha-beta -beta  ...  0.000000000 ( -0.0%)
    beta -beta -beta  ...  0.000000000 ( -0.0%)
Scaling of triples based on CCSD energies (Peterson et al. Molecular Physics 113, 1551 (2015))
E(T*) = f*E(T) where f = E(F12-CCSD)/E(CCSD) 
f = CCSD (with F12)/ CCSD (without F12)    ...      1.000000000
Scaled triples correction (T)              ...     -0.001318887

Final correlation energy                   ...     -0.053775739
E(CCSD)                                    ...   -241.933218122
E(CCSD(T))                                 ...   -241.934537009



        !!!!!!!!!!!!!!!!!!!!!!!!!!!!!!!!!!!!!!!!!!!!!!!!!!!!!!!!!!!!!!!!!!!!!!!!!! 
        !  Warning: Densities are linearized densities                           !
        !!!!!!!!!!!!!!!!!!!!!!!!!!!!!!!!!!!!!!!!!!!!!!!!!!!!!!!!!!!!!!!!!!!!!!!!!! 

NORM  =      1.073832075 sqrt=     1.036258691
W(HF) =      0.931244301
------------------------------------------------------------------------------
                           ORCA POPULATION ANALYSIS
------------------------------------------------------------------------------
Input electron density              ... 13_Al.mdcip
Input spin density                  ... 13_Al.mdcir
BaseName (.gbw .S,...)              ... 13_Al

                    ********************************
                    * MULLIKEN POPULATION ANALYSIS *
                    ********************************

------------------------------------------
MULLIKEN ATOMIC CHARGES AND SPIN DENSITIES
------------------------------------------
   0 Al:    0.000000    1.000000
Sum of atomic charges       :    0.0000000
Sum of atomic spin densities:    1.0000000

---------------------------------------------------
MULLIKEN REDUCED ORBITAL CHARGES AND SPIN DENSITIES
---------------------------------------------------
CHARGE
  0 Als       :     5.889033  s :     5.889033
      pz      :     2.061220  p :     7.072513
      px      :     2.966774
      py      :     2.044520
      dz2     :     0.004082  d :     0.036876
      dxz     :     0.010912
      dyz     :     0.000721
      dx2y2   :     0.010410
      dxy     :     0.010751
      f0      :     0.000139  f :     0.001372
      f+1     :     0.000240
      f-1     :     0.000056
      f+2     :     0.000205
      f-2     :     0.000170
      f+3     :     0.000279
      f-3     :     0.000283
      g0      :     0.000014  g :     0.000170
      g+1     :     0.000022
      g-1     :     0.000008
      g+2     :     0.000017
      g-2     :     0.000017
      g+3     :     0.000020
      g-3     :     0.000020
      g+4     :     0.000025
      g-4     :     0.000025
      h0      :     0.000003  h :     0.000036
      h+1     :     0.000004
      h-1     :     0.000002
      h+2     :     0.000003
      h-2     :     0.000003
      h+3     :     0.000003
      h-3     :     0.000003
      h+4     :     0.000004
      h-4     :     0.000004
      h+5     :     0.000004
      h-5     :     0.000004

SPIN
  0 Als       :     0.025464  s :     0.025464
      pz      :     0.014005  p :     0.956777
      px      :     0.945955
      py      :    -0.003182
      dz2     :     0.001829  d :     0.016961
      dxz     :     0.004983
      dyz     :     0.000054
      dx2y2   :     0.005227
      dxy     :     0.004868
      f0      :     0.000067  f :     0.000732
      f+1     :     0.000134
      f-1     :     0.000011
      f+2     :     0.000112
      f-2     :     0.000083
      f+3     :     0.000162
      f-3     :     0.000164
      g0      :     0.000004  g :     0.000054
      g+1     :     0.000008
      g-1     :     0.000001
      g+2     :     0.000005
      g-2     :     0.000005
      g+3     :     0.000007
      g-3     :     0.000007
      g+4     :     0.000009
      g-4     :     0.000009
      h0      :     0.000001  h :     0.000011
      h+1     :     0.000001
      h-1     :     0.000000
      h+2     :     0.000001
      h-2     :     0.000001
      h+3     :     0.000001
      h-3     :     0.000001
      h+4     :     0.000001
      h-4     :     0.000001
      h+5     :     0.000001
      h-5     :     0.000001


                     *******************************
                     * LOEWDIN POPULATION ANALYSIS *
                     *******************************

-----------------------------------------
LOEWDIN ATOMIC CHARGES AND SPIN DENSITIES
-----------------------------------------
   0 Al:    0.000000    1.000000

--------------------------------------------------
LOEWDIN REDUCED ORBITAL CHARGES AND SPIN DENSITIES
--------------------------------------------------
CHARGE
  0 Als       :     5.889033  s :     5.889033
      pz      :     2.061220  p :     7.072513
      px      :     2.966774
      py      :     2.044520
      dz2     :     0.004082  d :     0.036876
      dxz     :     0.010912
      dyz     :     0.000721
      dx2y2   :     0.010410
      dxy     :     0.010751
      f0      :     0.000139  f :     0.001372
      f+1     :     0.000240
      f-1     :     0.000056
      f+2     :     0.000205
      f-2     :     0.000170
      f+3     :     0.000279
      f-3     :     0.000283
      g0      :     0.000014  g :     0.000170
      g+1     :     0.000022
      g-1     :     0.000008
      g+2     :     0.000017
      g-2     :     0.000017
      g+3     :     0.000020
      g-3     :     0.000020
      g+4     :     0.000025
      g-4     :     0.000025
      h0      :     0.000003  h :     0.000036
      h+1     :     0.000004
      h-1     :     0.000002
      h+2     :     0.000003
      h-2     :     0.000003
      h+3     :     0.000003
      h-3     :     0.000003
      h+4     :     0.000004
      h-4     :     0.000004
      h+5     :     0.000004
      h-5     :     0.000004

SPIN
  0 Als       :     0.025464  s :     0.025464
      pz      :     0.014005  p :     0.956777
      px      :     0.945955
      py      :    -0.003182
      dz2     :     0.001829  d :     0.016961
      dxz     :     0.004983
      dyz     :     0.000054
      dx2y2   :     0.005227
      dxy     :     0.004868
      f0      :     0.000067  f :     0.000732
      f+1     :     0.000134
      f-1     :     0.000011
      f+2     :     0.000112
      f-2     :     0.000083
      f+3     :     0.000162
      f-3     :     0.000164
      g0      :     0.000004  g :     0.000054
      g+1     :     0.000008
      g-1     :     0.000001
      g+2     :     0.000005
      g-2     :     0.000005
      g+3     :     0.000007
      g-3     :     0.000007
      g+4     :     0.000009
      g-4     :     0.000009
      h0      :     0.000001  h :     0.000011
      h+1     :     0.000001
      h-1     :     0.000000
      h+2     :     0.000001
      h-2     :     0.000001
      h+3     :     0.000001
      h-3     :     0.000001
      h+4     :     0.000001
      h-4     :     0.000001
      h+5     :     0.000001
      h-5     :     0.000001


                      *****************************
                      * MAYER POPULATION ANALYSIS *
                      *****************************

  NA   - Mulliken gross atomic population
  ZA   - Total nuclear charge
  QA   - Mulliken gross atomic charge
  VA   - Mayer's total valence
  BVA  - Mayer's bonded valence
  FA   - Mayer's free valence

  ATOM       NA         ZA         QA         VA         BVA        FA
  0 Al    13.0000    13.0000     0.0000     1.4884     0.0000     1.4884





------------------------------------------------------------------------------- 
                                     TIMINGS                                   
------------------------------------------------------------------------------- 


Total execution time                   ...       60.251 sec

Fock Matrix Formation                  ...        2.414 sec (  4.0%)
Initial Guess                          ...        0.002 sec (  0.0%)
DIIS Solver                            ...        0.019 sec (  0.0%)
State Vector Update                    ...        0.001 sec (  0.0%)
Sigma-vector construction              ...       25.018 sec ( 41.5%)
  <D|H|D>(2-ext Fock)                  ...        0.002 sec (  0.0% of sigma)
  <D|H|D>(2-ext)                       ...        0.008 sec (  0.0% of sigma)
  <D|H|D>(4-ext)                       ...        8.679 sec ( 34.7% of sigma)
  <S|H|0>                              ...        0.025 sec (  0.1% of sigma)
  <D|H|S>(1-ext)                       ...        0.005 sec (  0.0% of sigma)
  Fock-dressing                        ...       15.814 sec ( 63.2% of sigma)
  (ij|ab),(ia|jb)-dressing             ...        0.352 sec (  1.4% of sigma)
Total Time for computing (T)           ...        0.244 sec (  0.4% of ALL)
  I/O of integral and amplitudes       ...        0.068 sec ( 27.8% of (T))
  External N**7 contributions          ...        0.047 sec ( 19.1% of (T))
  Internal N**7 contributions          ...        0.010 sec (  4.3% of (T))
  N**6 triples energy contributions    ...        0.046 sec ( 18.8% of (T))


-------------------------   --------------------
FINAL SINGLE POINT ENERGY      -241.934537008828
-------------------------   --------------------


                            ***************************************
                            *     ORCA property calculations      *
                            ***************************************

                                    ---------------------
                                    Active property flags
                                    ---------------------
   (+) Dipole Moment


------------------------------------------------------------------------------
                       ORCA ELECTRIC PROPERTIES CALCULATION
------------------------------------------------------------------------------

Dipole Moment Calculation                       ... on
Quadrupole Moment Calculation                   ... off
Polarizability Calculation                      ... off
GBWName                                         ... 13_Al.gbw
Electron density file                           ... 13_Al.scfp
The origin for moment calculation is the CENTER OF MASS  = ( 0.000000,  0.000000  0.000000)

-------------
DIPOLE MOMENT
-------------
                                X             Y             Z
Electronic contribution:     -0.00000       0.00000      -0.00000
Nuclear contribution   :      0.00000       0.00000       0.00000
                        -----------------------------------------
Total Dipole Moment    :     -0.00000       0.00000      -0.00000
                        -----------------------------------------
Magnitude (a.u.)       :      0.00000
Magnitude (Debye)      :      0.00000



--------------------
Rotational spectrum 
--------------------
 
Rotational constants in cm-1:     0.000000     0.000000     0.000000 
Rotational constants in MHz :     0.000000     0.000000     0.000000 

 Dipole components along the rotational axes: 
x,y,z [a.u.] :    -0.000000     0.000000    -0.000000 
x,y,z [Debye]:    -0.000000     0.000000    -0.000000 

 

                           *** MDCI DENSITY ***

------------------------------------------------------------------------------
                       ORCA ELECTRIC PROPERTIES CALCULATION
------------------------------------------------------------------------------

Dipole Moment Calculation                       ... on
Quadrupole Moment Calculation                   ... off
Polarizability Calculation                      ... off
GBWName                                         ... 13_Al.gbw
Electron density file                           ... 13_Al.mdcip
The origin for moment calculation is the CENTER OF MASS  = ( 0.000000,  0.000000  0.000000)

-------------
DIPOLE MOMENT
-------------
                                X             Y             Z
Electronic contribution:     -0.00000       0.00000      -0.00000
Nuclear contribution   :      0.00000       0.00000       0.00000
                        -----------------------------------------
Total Dipole Moment    :     -0.00000       0.00000      -0.00000
                        -----------------------------------------
Magnitude (a.u.)       :      0.00000
Magnitude (Debye)      :      0.00000



--------------------
Rotational spectrum 
--------------------
 
Rotational constants in cm-1:     0.000000     0.000000     0.000000 
Rotational constants in MHz :     0.000000     0.000000     0.000000 

 Dipole components along the rotational axes: 
x,y,z [a.u.] :    -0.000000     0.000000    -0.000000 
x,y,z [Debye]:    -0.000000     0.000000    -0.000000 

 

Timings for individual modules:

Sum of individual times         ...       83.422 sec (=   1.390 min)
GTO integral calculation        ...        0.892 sec (=   0.015 min)   1.1 %
SCF iterations                  ...       21.545 sec (=   0.359 min)  25.8 %
MDCI module                     ...       60.985 sec (=   1.016 min)  73.1 %
                             ****ORCA TERMINATED NORMALLY****
TOTAL RUN TIME: 0 days 0 hours 1 minutes 24 seconds 42 msec
