
                                 *****************
                                 * O   R   C   A *
                                 *****************

           --- An Ab Initio, DFT and Semiempirical electronic structure package ---

                  #######################################################
                  #                        -***-                        #
                  #          Department of theory and spectroscopy      #
                  #               Directorship: Frank Neese             #
                  #        Max Planck Institute fuer Kohlenforschung    #
                  #                Kaiser Wilhelm Platz 1               #
                  #                 D-45470 Muelheim/Ruhr               #
                  #                      Germany                        #
                  #                                                     #
                  #                  All rights reserved                #
                  #                        -***-                        #
                  #######################################################


                         Program Version 4.2.0 -  RELEASE  -


 With contributions from (in alphabetic order):
   Daniel Aravena         : Magnetic Suceptibility
   Michael Atanasov       : Ab Initio Ligand Field Theory (pilot matlab implementation)
   Alexander A. Auer      : GIAO ZORA, VPT2
   Ute Becker             : Parallelization
   Giovanni Bistoni       : ED, misc. LED, open-shell LED, HFLED
   Martin Brehm           : Molecular dynamics
   Dmytro Bykov           : SCF Hessian
   Vijay G. Chilkuri      : MRCI spin determinant printing, contributions to CSF-ICE
   Dipayan Datta          : RHF DLPNO-CCSD density
   Achintya Kumar Dutta   : EOM-CC, STEOM-CC
   Dmitry Ganyushin       : Spin-Orbit,Spin-Spin,Magnetic field MRCI
   Miquel Garcia          : C-PCM Hessian, Gaussian charge scheme
   Yang Guo               : DLPNO-NEVPT2, CIM, IAO-localization
   Andreas Hansen         : Spin unrestricted coupled pair/coupled cluster methods
   Benjamin Helmich-Paris : CASSCF linear response (MC-RPA)
   Lee Huntington         : MR-EOM, pCC
   Robert Izsak           : Overlap fitted RIJCOSX, COSX-SCS-MP3, EOM
   Christian Kollmar      : KDIIS, OOCD, Brueckner-CCSD(T), CCSD density
   Simone Kossmann        : Meta GGA functionals, TD-DFT gradient, OOMP2, MP2 Hessian
   Martin Krupicka        : AUTO-CI
   Lucas Lang             : DCDCAS
   Dagmar Lenk            : GEPOL surface, SMD
   Dimitrios Liakos       : Extrapolation schemes; Compound Job, initial MDCI parallelization
   Dimitrios Manganas     : Further ROCIS development; embedding schemes
   Dimitrios Pantazis     : SARC Basis sets
   Taras Petrenko         : DFT Hessian,TD-DFT gradient, ASA, ECA, R-Raman, ABS, FL, XAS/XES, NRVS
   Peter Pinski           : DLPNO-MP2, DLPNO-MP2 Gradient
   Christoph Reimann      : Effective Core Potentials
   Marius Retegan         : Local ZFS, SOC
   Christoph Riplinger    : Optimizer, TS searches, QM/MM, DLPNO-CCSD(T), (RO)-DLPNO pert. Triples
   Tobias Risthaus        : Range-separated hybrids, TD-DFT gradient, RPA, STAB
   Michael Roemelt        : Original ROCIS implementation
   Masaaki Saitow         : Open-shell DLPNO-CCSD energy and density
   Barbara Sandhoefer     : DKH picture change effects
   Avijit Sen             : IP-ROCIS
   Kantharuban Sivalingam : CASSCF convergence, NEVPT2, FIC-MRCI
   Bernardo de Souza      : ESD, SOC TD-DFT
   Georgi Stoychev        : AutoAux, RI-MP2 NMR
   Willem Van den Heuvel  : Paramagnetic NMR
   Boris Wezisla          : Elementary symmetry handling
   Frank Wennmohs         : Technical directorship


 We gratefully acknowledge several colleagues who have allowed us to
 interface, adapt or use parts of their codes:
   Stefan Grimme, W. Hujo, H. Kruse,             : VdW corrections, initial TS optimization,
                  C. Bannwarth                     DFT functionals, gCP, sTDA/sTD-DF
   Ed Valeev, F. Pavosevic, A. Kumar             : LibInt (2-el integral package), F12 methods
   Garnet Chan, S. Sharma, J. Yang, R. Olivares  : DMRG
   Ulf Ekstrom                                   : XCFun DFT Library
   Mihaly Kallay                                 : mrcc  (arbitrary order and MRCC methods)
   Andreas Klamt, Michael Diedenhofen            : otool_cosmo (COSMO solvation model)
   Jiri Pittner, Ondrej Demel                    : Mk-CCSD
   Frank Weinhold                                : gennbo (NPA and NBO analysis)
   Christopher J. Cramer and Donald G. Truhlar   : smd solvation model
   Lars Goerigk                                  : TD-DFT with DH, B97 family of functionals
   V. Asgeirsson, H. Jonsson                     : NEB implementation
   FAccTs GmbH                                   : IRC, NEB, NEB-TS, Multilevel, MM, QM/MM, CI optimization
   S Lehtola, MJT Oliveira, MAL Marques          : LibXC Library


 Your calculation uses the libint2 library for the computation of 2-el integrals
 For citations please refer to: http://libint.valeyev.net

 Your ORCA version has been built with support for libXC version: 4.2.3
 For citations please refer to: https://tddft.org/programs/libxc/

 This ORCA versions uses:
   CBLAS   interface :  Fast vector & matrix operations
   LAPACKE interface :  Fast linear algebra routines
   SCALAPACK package :  Parallel linear algebra routines


----- Orbital basis set information -----
Your calculation utilizes the basis: aug-cc-pV5Z 
          H : Obtained from the ccRepo (grant-hill.group.shef.ac.uk/ccrepo) Feb. 2017
              T. H. Dunning, Jr., J. Chem. Phys. 90, 1007 (1989)
              Diffuse s exponent - S. Mielke, unpublished
         He : Obtained from the ccRepo (grant-hill.group.shef.ac.uk/ccrepo) Feb. 2017
              D. E. Woon, T. H. Dunning, Jr., J. Chem. Phys. 100, 2975 (1994)
  Li-Be, Na : Obtained from the ccRepo (grant-hill.group.shef.ac.uk/ccrepo) Feb. 2017
              B. P. Prascher, D. E. Woon, K. A. Peterson, T. H. Dunning, Jr., A. K. Wilson, Theor. Chem. Acc. 128, 69 (2011)
        B-F : Obtained from the ccRepo (grant-hill.group.shef.ac.uk/ccrepo) Feb. 2017
              R. A. Kendall, T. H. Dunning, Jr., R. J. Harrison, J. Chem. Phys. 96, 6796 (1992)
              T. H. Dunning, Jr., J. Chem. Phys. 90, 1007 (1989)
         Ne : Obtained from the ccRepo (grant-hill.group.shef.ac.uk/ccrepo) Feb. 2017
              T. H. Dunning, Jr., J. Chem. Phys. 90, 1007 (1989)
         Mg : Obtained from the Peterson Research Group Website (tyr0.chem.wsu.edu/~kipeters) Feb. 2017
              B. P. Prascher, D. E. Woon, K. A. Peterson, T. H. Dunning, Jr., A. K. Wilson, Theor. Chem. Acc. 128, 69 (2011)
      Al-Ar : Obtained from the ccRepo (grant-hill.group.shef.ac.uk/ccrepo) Feb. 2017
              D. E. Woon, T. H. Dunning, Jr., J. Chem. Phys. 98, 1358 (1993)
      Sc-Zn : Obtained from the ccRepo (grant-hill.group.shef.ac.uk/ccrepo) Feb. 2017
              N. B. Balabanov, K. A. Peterson, J. Chem. Phys. 123, 064107 (2005)
              N. B. Balabanov, K. A. Peterson, J. Chem. Phys. 125, 074110 (2006)
      Ga-Kr : Obtained from the ccRepo (grant-hill.group.shef.ac.uk/ccrepo) Feb. 2017
              A. K. Wilson, D. E. Woon, K. A. Peterson, T. H. Dunning, Jr., J. Chem. Phys. 110, 7667 (1999)

================================================================================
                                        WARNINGS
                       Please study these warnings very carefully!
================================================================================


WARNING: your system is open-shell and RHF/RKS was chosen
  ===> : WILL SWITCH to UHF/UKS


WARNING: MDCI localization with Augmented Hessian Foster-Boys
  ===> : Switching off randomization!

WARNING: Post HF methods need fully converged wavefunctions
  ===> : Setting SCFConvForced true
         You can overwrite this default with %scf ConvForced false 


INFO   : the flag for use of LIBINT has been found!

================================================================================
                                       INPUT FILE
================================================================================
NAME = 17_Cl.in
|  1> #
|  2> # 17_Cl CCSD(T)/aug-cc-pV5Z
|  3> #
|  4> ! CCSD(T) aug-cc-pV5Z tightscf
|  5> 
|  6> *xyz 0 2
|  7>  Cl 0.0 0.0 0.0
|  8> *
|  9> 
| 10> %maxcore 5000 
| 11> 
| 12> %pal
| 13> nprocs 21
| 14> end
| 15> 
| 16> 
| 17>                          ****END OF INPUT****
================================================================================

                       ****************************
                       * Single Point Calculation *
                       ****************************

---------------------------------
CARTESIAN COORDINATES (ANGSTROEM)
---------------------------------
  Cl     0.000000    0.000000    0.000000

----------------------------
CARTESIAN COORDINATES (A.U.)
----------------------------
  NO LB      ZA    FRAG     MASS         X           Y           Z
   0 Cl   17.0000    0    35.453    0.000000    0.000000    0.000000

--------------------------------
INTERNAL COORDINATES (ANGSTROEM)
--------------------------------
 Cl     0   0   0     0.000000000000     0.00000000     0.00000000

---------------------------
INTERNAL COORDINATES (A.U.)
---------------------------
 Cl     0   0   0     0.000000000000     0.00000000     0.00000000

---------------------
BASIS SET INFORMATION
---------------------
There are 1 groups of distinct atoms

 Group   1 Type Cl  : 53s21p5d4f3g2h contracted to 8s7p5d4f3g2h pattern {16161611111/8811111/11111/1111/111/11}

Atom   0Cl   basis set group =>   1


           ************************************************************
           *        Program running with 21 parallel MPI-processes    *
           *              working on a common directory               *
           ************************************************************
------------------------------------------------------------------------------
                           ORCA GTO INTEGRAL CALCULATION
------------------------------------------------------------------------------

                         BASIS SET STATISTICS AND STARTUP INFO

 # of primitive gaussian shells          ...   88
 # of primitive gaussian functions       ...  218
 # of contracted shells                  ...   29
 # of contracted basis functions         ...  131
 Highest angular momentum                ...    5
 Maximum contraction depth               ...   16
 Integral package used                   ... LIBINT
 Integral threshhold            Thresh   ...  2.500e-11
 Primitive cut-off              TCut     ...  2.500e-12


------------------------------ INTEGRAL EVALUATION ----------------------------


 * One electron integrals 
 Pre-screening matrix                    ... done
 Shell pair data                         ... done (   0.000 sec)



           ************************************************************
           *        Program running with 21 parallel MPI-processes    *
           *              working on a common directory               *
           ************************************************************
-------------------------------------------------------------------------------
                                 ORCA SCF
-------------------------------------------------------------------------------

------------
SCF SETTINGS
------------
Hamiltonian:
 Ab initio Hamiltonian  Method          .... Hartree-Fock(GTOs)


General Settings:
 Integral files         IntName         .... 17_Cl
 Hartree-Fock type      HFTyp           .... UHF
 Total Charge           Charge          ....    0
 Multiplicity           Mult            ....    2
 Number of Electrons    NEL             ....   17
 Basis Dimension        Dim             ....  131
 Nuclear Repulsion      ENuc            ....      0.0000000000 Eh

Convergence Acceleration:
 DIIS                   CNVDIIS         .... on
   Start iteration      DIISMaxIt       ....    12
   Startup error        DIISStart       ....  0.200000
   # of expansion vecs  DIISMaxEq       ....     5
   Bias factor          DIISBfac        ....   1.050
   Max. coefficient     DIISMaxC        ....  10.000
 Newton-Raphson         CNVNR           .... off
 SOSCF                  CNVSOSCF        .... off
 Level Shifting         CNVShift        .... on
   Level shift para.    LevelShift      ....    0.2500
   Turn off err/grad.   ShiftErr        ....    0.0010
 Zerner damping         CNVZerner       .... off
 Static damping         CNVDamp         .... on
   Fraction old density DampFac         ....    0.7000
   Max. Damping (<1)    DampMax         ....    0.9800
   Min. Damping (>=0)   DampMin         ....    0.0000
   Turn off err/grad.   DampErr         ....    0.1000
 Fernandez-Rico         CNVRico         .... off

SCF Procedure:
 Maximum # iterations   MaxIter         ....   125
 SCF integral mode      SCFMode         .... Direct
   Integral package                     .... LIBINT
 Reset frequency        DirectResetFreq ....    20
 Integral Threshold     Thresh          ....  2.500e-11 Eh
 Primitive CutOff       TCut            ....  2.500e-12 Eh

Convergence Tolerance:
 Convergence Check Mode ConvCheckMode   .... Total+1el-Energy
 Convergence forced     ConvForced      .... 1
 Energy Change          TolE            ....  1.000e-08 Eh
 1-El. energy change                    ....  1.000e-05 Eh
 DIIS Error             TolErr          ....  5.000e-07


Diagonalization of the overlap matrix:
Smallest eigenvalue                        ... 6.216e-05
Time for diagonalization                   ...    0.005 sec
Threshold for overlap eigenvalues          ... 1.000e-08
Number of eigenvalues below threshold      ... 0
Time for construction of square roots      ...    0.011 sec
Total time needed                          ...    0.016 sec

-------------------
DFT GRID GENERATION
-------------------

General Integration Accuracy     IntAcc      ...  4.340
Radial Grid Type                 RadialGrid  ... Gauss-Chebyshev
Angular Grid (max. acc.)         AngularGrid ... Lebedev-110
Angular grid pruning method      GridPruning ... 3 (G Style)
Weight generation scheme         WeightScheme... Becke
Basis function cutoff            BFCut       ...    1.0000e-11
Integration weight cutoff        WCut        ...    1.0000e-14
Grids for H and He will be reduced by one unit

# of grid points (after initial pruning)     ...   1844 (   0.0 sec)
# of grid points (after weights+screening)   ...   1844 (   0.0 sec)
Grid point division into batches done        ...    0.0 sec
Reduced shell lists constructed in    0.0 sec

Total number of grid points                  ...     1844
Total number of batches                      ...       29
Average number of points per batch           ...       63
Average number of grid points per atom       ...     1844
Average number of shells per batch           ...    12.67 (43.68%)
Average number of basis functions per batch  ...    67.33 (51.40%)
Average number of large shells per batch     ...    10.67 (84.21%)
Average number of large basis fcns per batch ...    53.33 (79.21%)
Maximum spatial batch extension              ...  16.21, 29.83, 29.83 au
Average spatial batch extension              ...   1.12,  2.06,  2.06 au

Time for grid setup =    0.040 sec

------------------------------
INITIAL GUESS: MODEL POTENTIAL
------------------------------
Loading Hartree-Fock densities                     ... done
Calculating cut-offs                               ... done
Setting up the integral package                    ... done
Initializing the effective Hamiltonian             ... done
Starting the Coulomb interaction                   ... done (   0.0 sec)
Reading the grid                                   ... done
Mapping shells                                     ... done
Starting the XC term evaluation                    ... done (   0.0 sec)
Transforming the Hamiltonian                       ... done (   0.0 sec)
Diagonalizing the Hamiltonian                      ... done (   0.0 sec)
Back transforming the eigenvectors                 ... done (   0.0 sec)
Now organizing SCF variables                       ... done
                      ------------------
                      INITIAL GUESS DONE (   0.2 sec)
                      ------------------
--------------
SCF ITERATIONS
--------------
ITER       Energy         Delta-E        Max-DP      RMS-DP      [F,P]     Damp
               ***  Starting incremental Fock matrix formation  ***
  0   -459.4653571136   0.000000000000 0.20021095  0.00272882  0.1490121 0.7000
  1   -459.4716596061  -0.006302492535 0.14514201  0.00198285  0.1078597 0.7000
                               ***Turning on DIIS***
  2   -459.4764471211  -0.004787514929 0.34830520  0.00476860  0.0776406 0.0000
  3   -459.4904498398  -0.014002718764 0.02448072  0.00035786  0.0064442 0.0000
  4   -459.4844534406   0.005996399263 0.00211373  0.00003899  0.0033370 0.0000
  5   -459.4882533524  -0.003799911850 0.00080450  0.00001545  0.0014213 0.0000
  6   -459.4892471643  -0.000993811831 0.00032904  0.00000631  0.0004998 0.0000
  7   -459.4897091331  -0.000461968869 0.00004156  0.00000101  0.0000603 0.0000
  8   -459.4897747211  -0.000065587966 0.00000971  0.00000028  0.0000082 0.0000
  9   -459.4897618603   0.000012860771 0.00000615  0.00000012  0.0000014 0.0000
                            ***DIIS convergence achieved***

               *****************************************************
               *                     SUCCESS                       *
               *           SCF CONVERGED AFTER  10 CYCLES          *
               *****************************************************


----------------
TOTAL SCF ENERGY
----------------

Total Energy       :         -459.48976143 Eh          -12503.35207 eV

Components:
Nuclear Repulsion  :            0.00000000 Eh               0.00000 eV
Electronic Energy  :         -459.48976143 Eh          -12503.35207 eV
One Electron Energy:         -634.87067343 Eh          -17275.70930 eV
Two Electron Energy:          175.38091199 Eh            4772.35724 eV

Virial components:
Potential Energy   :         -918.97989143 Eh          -25006.71416 eV
Kinetic Energy     :          459.49013000 Eh           12503.36210 eV
Virial Ratio       :            1.99999920


---------------
SCF CONVERGENCE
---------------

  Last Energy change         ...    4.2651e-07  Tolerance :   1.0000e-08
  Last MAX-Density change    ...    2.4655e-06  Tolerance :   1.0000e-07
  Last RMS-Density change    ...    5.7654e-08  Tolerance :   5.0000e-09
  Last DIIS Error            ...    6.3143e-07  Tolerance :   5.0000e-07

             **** THE GBW FILE WAS UPDATED (17_Cl.gbw) ****
             **** DENSITY FILE WAS UPDATED (17_Cl.scfp) ****
             **** ENERGY FILE WAS UPDATED (17_Cl.en.tmp) ****
----------------------
UHF SPIN CONTAMINATION
----------------------

Expectation value of <S**2>     :     0.760742
Ideal value S*(S+1) for S=0.5   :     0.750000
Deviation                       :     0.010742

             **** THE GBW FILE WAS UPDATED (17_Cl.gbw) ****
             **** DENSITY FILE WAS UPDATED (17_Cl.scfp) ****
----------------
ORBITAL ENERGIES
----------------
                 SPIN UP ORBITALS
  NO   OCC          E(Eh)            E(eV) 
   0   1.0000    -104.889538     -2854.1894 
   1   1.0000     -10.612227      -288.7734 
   2   1.0000      -8.098000      -220.3578 
   3   1.0000      -8.073723      -219.6972 
   4   1.0000      -8.073723      -219.6972 
   5   1.0000      -1.136096       -30.9148 
   6   1.0000      -0.581779       -15.8310 
   7   1.0000      -0.502522       -13.6743 
   8   1.0000      -0.502522       -13.6743 
   9   0.0000       0.081271         2.2115 
  10   0.0000       0.086859         2.3635 
  11   0.0000       0.086859         2.3635 
  12   0.0000       0.086909         2.3649 
  13   0.0000       0.254220         6.9177 
  14   0.0000       0.258477         7.0335 
  15   0.0000       0.258477         7.0335 
  16   0.0000       0.272842         7.4244 
  17   0.0000       0.272842         7.4244 
  18   0.0000       0.377289        10.2666 
  19   0.0000       0.398026        10.8309 
  20   0.0000       0.398026        10.8309 
  21   0.0000       0.510278        13.8854 
  22   0.0000       0.600347        16.3363 
  23   0.0000       0.602058        16.3828 
  24   0.0000       0.602058        16.3828 
  25   0.0000       0.607273        16.5247 
  26   0.0000       0.607273        16.5247 
  27   0.0000       0.616452        16.7745 
  28   0.0000       0.616452        16.7745 
  29   0.0000       0.628094        17.0913 
  30   0.0000       0.638156        17.3651 
  31   0.0000       0.638156        17.3651 
  32   0.0000       0.673979        18.3399 
  33   0.0000       0.673979        18.3399 
  34   0.0000       1.320205        35.9246 
  35   0.0000       1.321797        35.9679 
  36   0.0000       1.321797        35.9679 
  37   0.0000       1.326578        36.0980 
  38   0.0000       1.326578        36.0980 
  39   0.0000       1.334581        36.3158 
  40   0.0000       1.334581        36.3158 
  41   0.0000       1.342105        36.5205 
  42   0.0000       1.345990        36.6262 
  43   0.0000       1.345990        36.6262 
  44   0.0000       1.386265        37.7222 
  45   0.0000       1.386265        37.7222 
  46   0.0000       1.495390        40.6916 
  47   0.0000       1.499609        40.8064 
  48   0.0000       1.499609        40.8064 
  49   0.0000       1.511985        41.1432 
  50   0.0000       1.511985        41.1432 
  51   0.0000       1.534661        41.7602 
  52   0.0000       1.534661        41.7602 
  53   0.0000       1.592748        43.3409 
  54   0.0000       1.604268        43.6543 
  55   0.0000       1.604268        43.6543 
  56   0.0000       1.640357        44.6364 
  57   0.0000       1.640357        44.6364 
  58   0.0000       1.936123        52.6846 
  59   0.0000       3.194670        86.9314 
  60   0.0000       3.201091        87.1061 
  61   0.0000       3.201091        87.1061 
  62   0.0000       3.220513        87.6346 
  63   0.0000       3.220513        87.6346 
  64   0.0000       3.246503        88.3418 
  65   0.0000       3.249846        88.4328 
  66   0.0000       3.249846        88.4328 
  67   0.0000       3.253663        88.5367 
  68   0.0000       3.253663        88.5367 
  69   0.0000       3.259907        88.7066 
  70   0.0000       3.259907        88.7066 
  71   0.0000       3.276795        89.1661 
  72   0.0000       3.276795        89.1661 
  73   0.0000       3.300726        89.8173 
  74   0.0000       3.300726        89.8173 
  75   0.0000       3.383254        92.0630 
  76   0.0000       3.385075        92.1126 
  77   0.0000       3.385075        92.1126 
  78   0.0000       3.390562        92.2619 
  79   0.0000       3.390562        92.2619 
  80   0.0000       3.399787        92.5129 
  81   0.0000       3.399787        92.5129 
  82   0.0000       3.412885        92.8693 
  83   0.0000       3.412885        92.8693 
  84   0.0000       3.430135        93.3387 
  85   0.0000       3.430135        93.3387 
  86   0.0000       4.152453       112.9940 
  87   0.0000       4.164130       113.3117 
  88   0.0000       4.164130       113.3117 
  89   0.0000       4.200299       114.2959 
  90   0.0000       4.200299       114.2959 
  91   0.0000       4.368359       118.8691 
  92   0.0000       4.418960       120.2460 
  93   0.0000       4.418960       120.2460 
  94   0.0000       6.540864       177.9860 
  95   0.0000       6.547133       178.1565 
  96   0.0000       6.547133       178.1565 
  97   0.0000       6.566143       178.6738 
  98   0.0000       6.566143       178.6738 
  99   0.0000       6.598624       179.5577 
 100   0.0000       6.598624       179.5577 
 101   0.0000       6.705747       182.4727 
 102   0.0000       7.365546       200.4267 
 103   0.0000       7.369679       200.5392 
 104   0.0000       7.369679       200.5392 
 105   0.0000       7.382130       200.8780 
 106   0.0000       7.382130       200.8780 
 107   0.0000       7.403055       201.4474 
 108   0.0000       7.403055       201.4474 
 109   0.0000       7.432723       202.2547 
 110   0.0000       7.432723       202.2547 
 111   0.0000       7.646522       208.0724 
 112   0.0000       7.649189       208.1450 
 113   0.0000       7.649189       208.1450 
 114   0.0000       7.657223       208.3636 
 115   0.0000       7.657223       208.3636 
 116   0.0000       7.670716       208.7308 
 117   0.0000       7.670716       208.7308 
 118   0.0000       7.689832       209.2510 
 119   0.0000       7.689832       209.2510 
 120   0.0000       7.714810       209.9306 
 121   0.0000       7.714810       209.9306 
 122   0.0000      10.668701       290.3101 
 123   0.0000      10.678637       290.5805 
 124   0.0000      10.678637       290.5805 
 125   0.0000      10.709346       291.4161 
 126   0.0000      10.709346       291.4161 
 127   0.0000      37.911236      1031.6172 
 128   0.0000      37.932718      1032.2017 
 129   0.0000      37.932718      1032.2017 
 130   0.0000      72.670592      1977.4673 

                 SPIN DOWN ORBITALS
  NO   OCC          E(Eh)            E(eV) 
   0   1.0000    -104.877737     -2853.8683 
   1   1.0000     -10.601118      -288.4711 
   2   1.0000      -8.067706      -219.5334 
   3   1.0000      -8.067706      -219.5334 
   4   1.0000      -8.048187      -219.0023 
   5   1.0000      -1.014443       -27.6044 
   6   1.0000      -0.480913       -13.0863 
   7   1.0000      -0.480913       -13.0863 
   8   0.0000      -0.040836        -1.1112 
   9   0.0000       0.087337         2.3765 
  10   0.0000       0.087337         2.3765 
  11   0.0000       0.090392         2.4597 
  12   0.0000       0.095125         2.5885 
  13   0.0000       0.272517         7.4156 
  14   0.0000       0.272517         7.4156 
  15   0.0000       0.275790         7.5046 
  16   0.0000       0.275790         7.5046 
  17   0.0000       0.277142         7.5414 
  18   0.0000       0.401169        10.9164 
  19   0.0000       0.401169        10.9164 
  20   0.0000       0.422823        11.5056 
  21   0.0000       0.523893        14.2558 
  22   0.0000       0.606074        16.4921 
  23   0.0000       0.607106        16.5202 
  24   0.0000       0.607106        16.5202 
  25   0.0000       0.610356        16.6086 
  26   0.0000       0.610356        16.6086 
  27   0.0000       0.615932        16.7604 
  28   0.0000       0.615932        16.7604 
  29   0.0000       0.676885        18.4190 
  30   0.0000       0.676885        18.4190 
  31   0.0000       0.699948        19.0466 
  32   0.0000       0.699948        19.0466 
  33   0.0000       0.709165        19.2974 
  34   0.0000       1.326905        36.1069 
  35   0.0000       1.328063        36.1384 
  36   0.0000       1.328063        36.1384 
  37   0.0000       1.331536        36.2329 
  38   0.0000       1.331536        36.2329 
  39   0.0000       1.337308        36.3900 
  40   0.0000       1.337308        36.3900 
  41   0.0000       1.345318        36.6080 
  42   0.0000       1.345318        36.6080 
  43   0.0000       1.393909        37.9302 
  44   0.0000       1.393909        37.9302 
  45   0.0000       1.410031        38.3689 
  46   0.0000       1.523412        41.4542 
  47   0.0000       1.524443        41.4822 
  48   0.0000       1.524443        41.4822 
  49   0.0000       1.528042        41.5801 
  50   0.0000       1.528042        41.5801 
  51   0.0000       1.534441        41.7543 
  52   0.0000       1.534441        41.7543 
  53   0.0000       1.642014        44.6815 
  54   0.0000       1.642250        44.6879 
  55   0.0000       1.642250        44.6879 
  56   0.0000       1.643524        44.7226 
  57   0.0000       1.643524        44.7226 
  58   0.0000       1.957462        53.2653 
  59   0.0000       3.236588        88.0720 
  60   0.0000       3.238668        88.1286 
  61   0.0000       3.238668        88.1286 
  62   0.0000       3.244835        88.2965 
  63   0.0000       3.244835        88.2965 
  64   0.0000       3.254860        88.5692 
  65   0.0000       3.254860        88.5692 
  66   0.0000       3.271399        89.0193 
  67   0.0000       3.273203        89.0684 
  68   0.0000       3.273203        89.0684 
  69   0.0000       3.278611        89.2155 
  70   0.0000       3.278611        89.2155 
  71   0.0000       3.287608        89.4604 
  72   0.0000       3.287608        89.4604 
  73   0.0000       3.300169        89.8022 
  74   0.0000       3.300169        89.8022 
  75   0.0000       3.396089        92.4123 
  76   0.0000       3.397397        92.4479 
  77   0.0000       3.397397        92.4479 
  78   0.0000       3.401329        92.5549 
  79   0.0000       3.401329        92.5549 
  80   0.0000       3.407912        92.7340 
  81   0.0000       3.407912        92.7340 
  82   0.0000       3.417186        92.9864 
  83   0.0000       3.417186        92.9864 
  84   0.0000       3.429209        93.3135 
  85   0.0000       3.429209        93.3135 
  86   0.0000       4.176956       113.6608 
  87   0.0000       4.183302       113.8334 
  88   0.0000       4.183302       113.8334 
  89   0.0000       4.202224       114.3483 
  90   0.0000       4.202224       114.3483 
  91   0.0000       4.426120       120.4408 
  92   0.0000       4.426120       120.4408 
  93   0.0000       4.426659       120.4555 
  94   0.0000       6.568251       178.7312 
  95   0.0000       6.571692       178.8248 
  96   0.0000       6.571692       178.8248 
  97   0.0000       6.582080       179.1075 
  98   0.0000       6.582080       179.1075 
  99   0.0000       6.599587       179.5839 
 100   0.0000       6.599587       179.5839 
 101   0.0000       6.722808       182.9369 
 102   0.0000       7.395243       201.2348 
 103   0.0000       7.397573       201.2982 
 104   0.0000       7.397573       201.2982 
 105   0.0000       7.404578       201.4888 
 106   0.0000       7.404578       201.4888 
 107   0.0000       7.416305       201.8079 
 108   0.0000       7.416305       201.8079 
 109   0.0000       7.432832       202.2576 
 110   0.0000       7.432832       202.2576 
 111   0.0000       7.669457       208.6965 
 112   0.0000       7.671221       208.7445 
 113   0.0000       7.671221       208.7445 
 114   0.0000       7.676526       208.8889 
 115   0.0000       7.676526       208.8889 
 116   0.0000       7.685414       209.1307 
 117   0.0000       7.685414       209.1307 
 118   0.0000       7.697952       209.4719 
 119   0.0000       7.697952       209.4719 
 120   0.0000       7.714236       209.9150 
 121   0.0000       7.714236       209.9150 
 122   0.0000      10.687875       290.8319 
 123   0.0000      10.693675       290.9897 
 124   0.0000      10.693675       290.9897 
 125   0.0000      10.711416       291.4724 
 126   0.0000      10.711416       291.4724 
 127   0.0000      37.937197      1032.3236 
 128   0.0000      37.937197      1032.3236 
 129   0.0000      37.947388      1032.6009 
 130   0.0000      72.678621      1977.6858 

                    ********************************
                    * MULLIKEN POPULATION ANALYSIS *
                    ********************************

--------------------------------------------
MULLIKEN ATOMIC CHARGES AND SPIN POPULATIONS
--------------------------------------------
   0 Cl:    0.000000    1.000000
Sum of atomic charges         :    0.0000000
Sum of atomic spin populations:    1.0000000

-----------------------------------------------------
MULLIKEN REDUCED ORBITAL CHARGES AND SPIN POPULATIONS
-----------------------------------------------------
CHARGE
  0 Cls       :     5.995363  s :     5.995363
      pz      :     3.010637  p :    10.998636
      px      :     3.988416
      py      :     3.999583
      dz2     :     0.004483  d :     0.004637
      dxz     :     0.000154
      dyz     :     0.000000
      dx2y2   :     0.000000
      dxy     :     0.000000
      f0      :     0.000523  f :     0.001364
      f+1     :     0.000413
      f-1     :     0.000405
      f+2     :     0.000011
      f-2     :     0.000011
      f+3     :     0.000000
      f-3     :     0.000000
      g0      :     0.000000  g :     0.000000
      g+1     :     0.000000
      g-1     :     0.000000
      g+2     :     0.000000
      g-2     :     0.000000
      g+3     :     0.000000
      g-3     :     0.000000
      g+4     :     0.000000
      g-4     :     0.000000
      h0      :     0.000000  h :     0.000000
      h+1     :     0.000000
      h-1     :     0.000000
      h+2     :     0.000000
      h-2     :     0.000000
      h+3     :     0.000000
      h-3     :     0.000000
      h+4     :     0.000000
      h-4     :     0.000000
      h+5     :     0.000000
      h-5     :     0.000000

SPIN
  0 Cls       :     0.001001  s :     0.001001
      pz      :     0.988305  p :     0.998726
      px      :     0.010793
      py      :    -0.000372
      dz2     :    -0.000968  d :    -0.001001
      dxz     :    -0.000033
      dyz     :    -0.000000
      dx2y2   :    -0.000000
      dxy     :    -0.000000
      f0      :     0.000520  f :     0.001274
      f+1     :     0.000372
      f-1     :     0.000361
      f+2     :     0.000010
      f-2     :     0.000010
      f+3     :     0.000000
      f-3     :     0.000000
      g0      :     0.000000  g :     0.000000
      g+1     :     0.000000
      g-1     :     0.000000
      g+2     :     0.000000
      g-2     :     0.000000
      g+3     :     0.000000
      g-3     :     0.000000
      g+4     :     0.000000
      g-4     :    -0.000000
      h0      :     0.000000  h :     0.000000
      h+1     :     0.000000
      h-1     :     0.000000
      h+2     :     0.000000
      h-2     :     0.000000
      h+3     :     0.000000
      h-3     :     0.000000
      h+4     :     0.000000
      h-4     :     0.000000
      h+5     :     0.000000
      h-5     :     0.000000


                     *******************************
                     * LOEWDIN POPULATION ANALYSIS *
                     *******************************

-------------------------------------------
LOEWDIN ATOMIC CHARGES AND SPIN POPULATIONS
-------------------------------------------
   0 Cl:    0.000000    1.000000

----------------------------------------------------
LOEWDIN REDUCED ORBITAL CHARGES AND SPIN POPULATIONS
----------------------------------------------------
CHARGE
  0 Cls       :     5.995363  s :     5.995363
      pz      :     3.010637  p :    10.998636
      px      :     3.988416
      py      :     3.999583
      dz2     :     0.004483  d :     0.004637
      dxz     :     0.000154
      dyz     :     0.000000
      dx2y2   :     0.000000
      dxy     :     0.000000
      f0      :     0.000523  f :     0.001364
      f+1     :     0.000413
      f-1     :     0.000405
      f+2     :     0.000011
      f-2     :     0.000011
      f+3     :     0.000000
      f-3     :     0.000000
      g0      :     0.000000  g :     0.000000
      g+1     :     0.000000
      g-1     :     0.000000
      g+2     :     0.000000
      g-2     :     0.000000
      g+3     :     0.000000
      g-3     :     0.000000
      g+4     :     0.000000
      g-4     :     0.000000
      h0      :     0.000000  h :     0.000000
      h+1     :     0.000000
      h-1     :     0.000000
      h+2     :     0.000000
      h-2     :     0.000000
      h+3     :     0.000000
      h-3     :     0.000000
      h+4     :     0.000000
      h-4     :     0.000000
      h+5     :     0.000000
      h-5     :     0.000000

SPIN
  0 Cls       :     0.001001  s :     0.001001
      pz      :     0.988305  p :     0.998726
      px      :     0.010793
      py      :    -0.000372
      dz2     :    -0.000968  d :    -0.001001
      dxz     :    -0.000033
      dyz     :    -0.000000
      dx2y2   :    -0.000000
      dxy     :    -0.000000
      f0      :     0.000520  f :     0.001274
      f+1     :     0.000372
      f-1     :     0.000361
      f+2     :     0.000010
      f-2     :     0.000010
      f+3     :     0.000000
      f-3     :     0.000000
      g0      :     0.000000  g :     0.000000
      g+1     :     0.000000
      g-1     :     0.000000
      g+2     :     0.000000
      g-2     :     0.000000
      g+3     :     0.000000
      g-3     :     0.000000
      g+4     :     0.000000
      g-4     :    -0.000000
      h0      :     0.000000  h :     0.000000
      h+1     :     0.000000
      h-1     :     0.000000
      h+2     :     0.000000
      h-2     :     0.000000
      h+3     :     0.000000
      h-3     :     0.000000
      h+4     :     0.000000
      h-4     :     0.000000
      h+5     :     0.000000
      h-5     :     0.000000


                      *****************************
                      * MAYER POPULATION ANALYSIS *
                      *****************************

  NA   - Mulliken gross atomic population
  ZA   - Total nuclear charge
  QA   - Mulliken gross atomic charge
  VA   - Mayer's total valence
  BVA  - Mayer's bonded valence
  FA   - Mayer's free valence

  ATOM       NA         ZA         QA         VA         BVA        FA
  0 Cl    17.0000    17.0000     0.0000     1.0215     0.0000     1.0215

  Mayer bond orders larger than 0.100000


-------
TIMINGS
-------

Total SCF time: 0 days 0 hours 0 min 6 sec 

Total time                  ....       6.243 sec
Sum of individual times     ....       5.697 sec  ( 91.3%)

Fock matrix formation       ....       5.188 sec  ( 83.1%)
Diagonalization             ....       0.103 sec  (  1.6%)
Density matrix formation    ....       0.012 sec  (  0.2%)
Population analysis         ....       0.068 sec  (  1.1%)
Initial guess               ....       0.113 sec  (  1.8%)
Orbital Transformation      ....       0.000 sec  (  0.0%)
Orbital Orthonormalization  ....       0.000 sec  (  0.0%)
DIIS solution               ....       0.173 sec  (  2.8%)


           ************************************************************
           *        Program running with 21 parallel MPI-processes    *
           *              working on a common directory               *
           ************************************************************


------------------------------------------------------------------------------- 
                              ORCA-MATRIX DRIVEN CI                            
------------------------------------------------------------------------------- 

--------------------------------
AUTOMATIC CHOICE OF INCORE LEVEL
--------------------------------

Memory available                           ...   2500.00 MB
Memory needed for S+T                      ...      3.41 MB
Memory needed for J+K                      ...      6.83 MB
Memory needed for DIIS                     ...     47.69 MB
Memory needed for 3-ext                    ...     55.42 MB
Memory needed for 4-ext                    ...    852.01 MB
Memory needed for triples                  ...     69.27 MB
 -> Final InCoreLevel    ... 5
 -> check shows that triples correction can be computed


Wavefunction type
-----------------
Correlation treatment                      ...      CCSD     
Single excitations                         ... ON
Orbital optimization                       ... OFF
Calculation of Z vector                    ... OFF
Calculation of Brueckner orbitals          ... OFF
Perturbative triple excitations            ... ON
Calculation of F12 correction              ... OFF
Frozen core treatment                      ... chemical core (10 el)
Reference Wavefunction                     ... UHF
  Alpha-MOs occ    :     5 ...    8 (  4 MO's/  4 electrons)
  Beta-MOs occ     :     5 ...    7 (  3 MO's/  3 electrons)
  Alpha-MOs virt   :     9 ...  130 (122 MO's              )
  Beta-MOs virt    :     8 ...  130 (123 MO's              )
Number of AO's                             ...    131
Number of electrons                        ...     17
Number of correlated electrons             ...      7

Algorithmic settings
--------------------
Integral transformation                    ... AO direct full transformation
K(C) Formation                             ... FULL-MO TRAFO
Maximum number of iterations               ...        50
Convergence tolerance (max. residuum)      ... 1.000e-05
Level shift for amplitude update           ... 2.000e-01
Maximum number of DIIS vectors             ...         7
DIIS turned on at iteration                ...         0
Damping before turning on DIIS             ...     0.500
Damping after turning on DIIS              ...     0.000
Pair specific amplitude update             ... OFF
Natural orbital iterations                 ... OFF
Perturbative natural orbital generation    ... OFF
Printlevel                                 ... 2

Memory handling:
----------------
Maximum memory for working arrays          ...   2500 MB
Data storage in matrix containers          ... UNCOMPRESSED
Data type for integral storage             ... DOUBLE
In-Core Storage of quantities:
   Amplitudes+Sigma Vector      ... YES
   J+K operators                ... YES
   DIIS vectors                 ... YES
   3-external integrals         ... YES
   4-external integrals         ... YES


Initializing the integral package          ... done
Warning: reference  - re-canonicalizations have been set to INT 1 VIRT 1

--------------------------
UNRESTRICTED FOCK OPERATOR
--------------------------

<ss|ss>:          666 b            0 skpd (  0.0%)    0.010 s ( 0.015 ms/b)
<ss|sp>:         2016 b            0 skpd (  0.0%)    0.031 s ( 0.015 ms/b)
<ss|sd>:         1440 b            0 skpd (  0.0%)    0.005 s ( 0.003 ms/b)
<ss|sf>:         1152 b            0 skpd (  0.0%)    0.003 s ( 0.003 ms/b)
<ss|sg>:          864 b            0 skpd (  0.0%)    0.005 s ( 0.005 ms/b)
<ss|sh>:          576 b            0 skpd (  0.0%)    0.006 s ( 0.011 ms/b)
<ss|pp>:         1008 b            0 skpd (  0.0%)    0.018 s ( 0.018 ms/b)
<ss|pd>:         1260 b            0 skpd (  0.0%)    0.003 s ( 0.003 ms/b)
<ss|pf>:         1008 b            0 skpd (  0.0%)    0.003 s ( 0.003 ms/b)
<ss|pg>:          756 b            0 skpd (  0.0%)    0.004 s ( 0.005 ms/b)
<ss|ph>:          504 b            0 skpd (  0.0%)    0.006 s ( 0.012 ms/b)
<ss|dd>:          540 b            0 skpd (  0.0%)    0.000 s ( 0.001 ms/b)
<ss|df>:          720 b            0 skpd (  0.0%)    0.001 s ( 0.001 ms/b)
<ss|dg>:          540 b            0 skpd (  0.0%)    0.001 s ( 0.001 ms/b)
<ss|dh>:          360 b            0 skpd (  0.0%)    0.001 s ( 0.003 ms/b)
<ss|ff>:          360 b            0 skpd (  0.0%)    0.001 s ( 0.002 ms/b)
<ss|fg>:          432 b            0 skpd (  0.0%)    0.001 s ( 0.003 ms/b)
<ss|fh>:          288 b            0 skpd (  0.0%)    0.002 s ( 0.006 ms/b)
<ss|gg>:          216 b            0 skpd (  0.0%)    0.002 s ( 0.008 ms/b)
<ss|gh>:          216 b            0 skpd (  0.0%)    0.002 s ( 0.011 ms/b)
<ss|hh>:          108 b            0 skpd (  0.0%)    0.003 s ( 0.031 ms/b)
<sp|sp>:         1596 b            0 skpd (  0.0%)    0.018 s ( 0.011 ms/b)
<sp|sd>:         2240 b            0 skpd (  0.0%)    0.004 s ( 0.002 ms/b)
<sp|sf>:         1792 b            1 skpd (  0.1%)    0.003 s ( 0.002 ms/b)
<sp|sg>:         1344 b           11 skpd (  0.8%)    0.005 s ( 0.004 ms/b)
<sp|sh>:          896 b            5 skpd (  0.6%)    0.007 s ( 0.008 ms/b)
<sp|pp>:         1568 b            0 skpd (  0.0%)    0.011 s ( 0.007 ms/b)
<sp|pd>:         1960 b            0 skpd (  0.0%)    0.004 s ( 0.002 ms/b)
<sp|pf>:         1568 b            0 skpd (  0.0%)    0.004 s ( 0.002 ms/b)
<sp|pg>:         1176 b            0 skpd (  0.0%)    0.005 s ( 0.004 ms/b)
<sp|ph>:          784 b            0 skpd (  0.0%)    0.007 s ( 0.009 ms/b)
<sp|dd>:          840 b            0 skpd (  0.0%)    0.001 s ( 0.001 ms/b)
<sp|df>:         1120 b            0 skpd (  0.0%)    0.001 s ( 0.001 ms/b)
<sp|dg>:          840 b            0 skpd (  0.0%)    0.001 s ( 0.001 ms/b)
<sp|dh>:          560 b            0 skpd (  0.0%)    0.002 s ( 0.003 ms/b)
<sp|ff>:          560 b            0 skpd (  0.0%)    0.001 s ( 0.002 ms/b)
<sp|fg>:          672 b            0 skpd (  0.0%)    0.002 s ( 0.003 ms/b)
<sp|fh>:          448 b            0 skpd (  0.0%)    0.003 s ( 0.006 ms/b)
<sp|gg>:          336 b            8 skpd (  2.4%)    0.003 s ( 0.008 ms/b)
<sp|gh>:          336 b            5 skpd (  1.5%)    0.004 s ( 0.011 ms/b)
<sp|hh>:          168 b            0 skpd (  0.0%)    0.005 s ( 0.030 ms/b)
<sd|sd>:          820 b            0 skpd (  0.0%)    0.001 s ( 0.001 ms/b)
<sd|sf>:         1280 b            3 skpd (  0.2%)    0.002 s ( 0.001 ms/b)
<sd|sg>:          960 b            5 skpd (  0.5%)    0.003 s ( 0.003 ms/b)
<sd|sh>:          640 b            3 skpd (  0.5%)    0.004 s ( 0.006 ms/b)
<sd|pp>:         1120 b            0 skpd (  0.0%)    0.005 s ( 0.004 ms/b)
<sd|pd>:         1400 b            3 skpd (  0.2%)    0.002 s ( 0.002 ms/b)
<sd|pf>:         1120 b            2 skpd (  0.2%)    0.002 s ( 0.002 ms/b)
<sd|pg>:          840 b           17 skpd (  2.0%)    0.003 s ( 0.004 ms/b)
<sd|ph>:          560 b            7 skpd (  1.2%)    0.004 s ( 0.008 ms/b)
<sd|dd>:          600 b            0 skpd (  0.0%)    0.000 s ( 0.001 ms/b)
<sd|df>:          800 b            1 skpd (  0.1%)    0.001 s ( 0.001 ms/b)
<sd|dg>:          600 b            1 skpd (  0.2%)    0.001 s ( 0.002 ms/b)
<sd|dh>:          400 b            1 skpd (  0.2%)    0.001 s ( 0.004 ms/b)
<sd|ff>:          400 b            0 skpd (  0.0%)    0.001 s ( 0.003 ms/b)
<sd|fg>:          480 b            2 skpd (  0.4%)    0.002 s ( 0.003 ms/b)
<sd|fh>:          320 b            1 skpd (  0.3%)    0.002 s ( 0.007 ms/b)
<sd|gg>:          240 b            0 skpd (  0.0%)    0.002 s ( 0.010 ms/b)
<sd|gh>:          240 b            0 skpd (  0.0%)    0.003 s ( 0.013 ms/b)
<sd|hh>:          120 b            0 skpd (  0.0%)    0.004 s ( 0.036 ms/b)
<sf|sf>:          528 b            6 skpd (  1.1%)    0.002 s ( 0.004 ms/b)
<sf|sg>:          768 b           21 skpd (  2.7%)    0.004 s ( 0.006 ms/b)
<sf|sh>:          512 b           15 skpd (  2.9%)    0.008 s ( 0.015 ms/b)
<sf|pp>:          896 b            0 skpd (  0.0%)    0.009 s ( 0.010 ms/b)
<sf|pd>:         1120 b            7 skpd (  0.6%)    0.004 s ( 0.003 ms/b)
<sf|pf>:          896 b            5 skpd (  0.6%)    0.004 s ( 0.004 ms/b)
<sf|pg>:          672 b            7 skpd (  1.0%)    0.006 s ( 0.009 ms/b)
<sf|ph>:          448 b            3 skpd (  0.7%)    0.009 s ( 0.021 ms/b)
<sf|dd>:          480 b            1 skpd (  0.2%)    0.001 s ( 0.001 ms/b)
<sf|df>:          640 b            6 skpd (  0.9%)    0.001 s ( 0.002 ms/b)
<sf|dg>:          480 b           13 skpd (  2.7%)    0.002 s ( 0.004 ms/b)
<sf|dh>:          320 b            9 skpd (  2.8%)    0.003 s ( 0.008 ms/b)
<sf|ff>:          320 b            1 skpd (  0.3%)    0.002 s ( 0.006 ms/b)
<sf|fg>:          384 b            2 skpd (  0.5%)    0.003 s ( 0.008 ms/b)
<sf|fh>:          256 b            3 skpd (  1.2%)    0.004 s ( 0.016 ms/b)
<sf|gg>:          192 b           21 skpd ( 10.9%)    0.003 s ( 0.019 ms/b)
<sf|gh>:          192 b           13 skpd (  6.8%)    0.005 s ( 0.028 ms/b)
<sf|hh>:           96 b            4 skpd (  4.2%)    0.007 s ( 0.079 ms/b)
<sg|sg>:          300 b           14 skpd (  4.7%)    0.006 s ( 0.020 ms/b)
<sg|sh>:          384 b           20 skpd (  5.2%)    0.011 s ( 0.031 ms/b)
<sg|pp>:          672 b            1 skpd (  0.1%)    0.013 s ( 0.019 ms/b)
<sg|pd>:          840 b           38 skpd (  4.5%)    0.005 s ( 0.006 ms/b)
<sg|pf>:          672 b            9 skpd (  1.3%)    0.005 s ( 0.008 ms/b)
<sg|pg>:          504 b           79 skpd ( 15.7%)    0.006 s ( 0.015 ms/b)
<sg|ph>:          336 b           32 skpd (  9.5%)    0.012 s ( 0.039 ms/b)
<sg|dd>:          360 b            4 skpd (  1.1%)    0.001 s ( 0.002 ms/b)
<sg|df>:          480 b           23 skpd (  4.8%)    0.002 s ( 0.003 ms/b)
<sg|dg>:          360 b           20 skpd (  5.6%)    0.003 s ( 0.007 ms/b)
<sg|dh>:          240 b           14 skpd (  5.8%)    0.003 s ( 0.015 ms/b)
<sg|ff>:          240 b            1 skpd (  0.4%)    0.003 s ( 0.011 ms/b)
<sg|fg>:          288 b           37 skpd ( 12.8%)    0.003 s ( 0.012 ms/b)
<sg|fh>:          192 b           22 skpd ( 11.5%)    0.005 s ( 0.027 ms/b)
<sg|gg>:          144 b           18 skpd ( 12.5%)    0.005 s ( 0.037 ms/b)
<sg|gh>:          144 b           18 skpd ( 12.5%)    0.006 s ( 0.049 ms/b)
<sg|hh>:           72 b            9 skpd ( 12.5%)    0.008 s ( 0.129 ms/b)
<sh|sh>:          136 b            6 skpd (  4.4%)    0.011 s ( 0.086 ms/b)
<sh|pp>:          448 b            0 skpd (  0.0%)    0.017 s ( 0.039 ms/b)
<sh|pd>:          560 b           23 skpd (  4.1%)    0.006 s ( 0.012 ms/b)
<sh|pf>:          448 b            8 skpd (  1.8%)    0.007 s ( 0.016 ms/b)
<sh|pg>:          336 b           32 skpd (  9.5%)    0.008 s ( 0.027 ms/b)
<sh|ph>:          224 b           28 skpd ( 12.5%)    0.013 s ( 0.068 ms/b)
<sh|dd>:          240 b            3 skpd (  1.2%)    0.001 s ( 0.004 ms/b)
<sh|df>:          320 b           18 skpd (  5.6%)    0.002 s ( 0.006 ms/b)
<sh|dg>:          240 b           17 skpd (  7.1%)    0.003 s ( 0.014 ms/b)
<sh|dh>:          160 b           12 skpd (  7.5%)    0.005 s ( 0.031 ms/b)
<sh|ff>:          160 b            1 skpd (  0.6%)    0.003 s ( 0.021 ms/b)
<sh|fg>:          192 b           24 skpd ( 12.5%)    0.004 s ( 0.022 ms/b)
<sh|fh>:          128 b           16 skpd ( 12.5%)    0.005 s ( 0.045 ms/b)
<sh|gg>:           96 b           12 skpd ( 12.5%)    0.005 s ( 0.062 ms/b)
<sh|gh>:           96 b           12 skpd ( 12.5%)    0.007 s ( 0.086 ms/b)
<sh|hh>:           48 b           16 skpd ( 33.3%)    0.006 s ( 0.192 ms/b)
<pp|pp>:          406 b            0 skpd (  0.0%)    0.006 s ( 0.014 ms/b)
<pp|pd>:          980 b            0 skpd (  0.0%)    0.003 s ( 0.003 ms/b)
<pp|pf>:          784 b            0 skpd (  0.0%)    0.003 s ( 0.003 ms/b)
<pp|pg>:          588 b            0 skpd (  0.0%)    0.003 s ( 0.006 ms/b)
<pp|ph>:          392 b            0 skpd (  0.0%)    0.005 s ( 0.014 ms/b)
<pp|dd>:          420 b            0 skpd (  0.0%)    0.000 s ( 0.001 ms/b)
<pp|df>:          560 b            0 skpd (  0.0%)    0.001 s ( 0.001 ms/b)
<pp|dg>:          420 b            0 skpd (  0.0%)    0.001 s ( 0.003 ms/b)
<pp|dh>:          280 b            0 skpd (  0.0%)    0.002 s ( 0.006 ms/b)
<pp|ff>:          280 b            0 skpd (  0.0%)    0.001 s ( 0.005 ms/b)
<pp|fg>:          336 b            0 skpd (  0.0%)    0.002 s ( 0.006 ms/b)
<pp|fh>:          224 b            0 skpd (  0.0%)    0.003 s ( 0.011 ms/b)
<pp|gg>:          168 b            0 skpd (  0.0%)    0.003 s ( 0.017 ms/b)
<pp|gh>:          168 b            0 skpd (  0.0%)    0.004 s ( 0.022 ms/b)
<pp|hh>:           84 b            0 skpd (  0.0%)    0.005 s ( 0.061 ms/b)
<pd|pd>:          630 b            0 skpd (  0.0%)    0.001 s ( 0.002 ms/b)
<pd|pf>:          980 b            0 skpd (  0.0%)    0.003 s ( 0.003 ms/b)
<pd|pg>:          735 b            0 skpd (  0.0%)    0.003 s ( 0.005 ms/b)
<pd|ph>:          490 b            0 skpd (  0.0%)    0.005 s ( 0.011 ms/b)
<pd|dd>:          525 b            0 skpd (  0.0%)    0.001 s ( 0.002 ms/b)
<pd|df>:          700 b            0 skpd (  0.0%)    0.001 s ( 0.002 ms/b)
<pd|dg>:          525 b            0 skpd (  0.0%)    0.002 s ( 0.004 ms/b)
<pd|dh>:          350 b            0 skpd (  0.0%)    0.002 s ( 0.007 ms/b)
<pd|ff>:          350 b            0 skpd (  0.0%)    0.002 s ( 0.005 ms/b)
<pd|fg>:          420 b            0 skpd (  0.0%)    0.003 s ( 0.007 ms/b)
<pd|fh>:          280 b            0 skpd (  0.0%)    0.004 s ( 0.013 ms/b)
<pd|gg>:          210 b            2 skpd (  1.0%)    0.004 s ( 0.019 ms/b)
<pd|gh>:          210 b            0 skpd (  0.0%)    0.005 s ( 0.025 ms/b)
<pd|hh>:          105 b            0 skpd (  0.0%)    0.007 s ( 0.068 ms/b)
<pf|pf>:          406 b            0 skpd (  0.0%)    0.002 s ( 0.006 ms/b)
<pf|pg>:          588 b            0 skpd (  0.0%)    0.005 s ( 0.009 ms/b)
<pf|ph>:          392 b            0 skpd (  0.0%)    0.009 s ( 0.024 ms/b)
<pf|dd>:          420 b            0 skpd (  0.0%)    0.001 s ( 0.002 ms/b)
<pf|df>:          560 b            0 skpd (  0.0%)    0.002 s ( 0.003 ms/b)
<pf|dg>:          420 b            0 skpd (  0.0%)    0.002 s ( 0.005 ms/b)
<pf|dh>:          280 b            0 skpd (  0.0%)    0.003 s ( 0.011 ms/b)
<pf|ff>:          280 b            0 skpd (  0.0%)    0.003 s ( 0.010 ms/b)
<pf|fg>:          336 b            0 skpd (  0.0%)    0.004 s ( 0.012 ms/b)
<pf|fh>:          224 b            0 skpd (  0.0%)    0.005 s ( 0.023 ms/b)
<pf|gg>:          168 b            0 skpd (  0.0%)    0.005 s ( 0.032 ms/b)
<pf|gh>:          168 b            0 skpd (  0.0%)    0.007 s ( 0.044 ms/b)
<pf|hh>:           84 b            0 skpd (  0.0%)    0.010 s ( 0.120 ms/b)
<pg|pg>:          231 b            0 skpd (  0.0%)    0.006 s ( 0.026 ms/b)
<pg|ph>:          294 b            0 skpd (  0.0%)    0.012 s ( 0.042 ms/b)
<pg|dd>:          315 b            0 skpd (  0.0%)    0.001 s ( 0.003 ms/b)
<pg|df>:          420 b            0 skpd (  0.0%)    0.002 s ( 0.004 ms/b)
<pg|dg>:          315 b           21 skpd (  6.7%)    0.003 s ( 0.010 ms/b)
<pg|dh>:          210 b            1 skpd (  0.5%)    0.004 s ( 0.019 ms/b)
<pg|ff>:          210 b            0 skpd (  0.0%)    0.003 s ( 0.014 ms/b)
<pg|fg>:          252 b            0 skpd (  0.0%)    0.005 s ( 0.019 ms/b)
<pg|fh>:          168 b            0 skpd (  0.0%)    0.006 s ( 0.037 ms/b)
<pg|gg>:          126 b           12 skpd (  9.5%)    0.006 s ( 0.056 ms/b)
<pg|gh>:          126 b            0 skpd (  0.0%)    0.010 s ( 0.076 ms/b)
<pg|hh>:           63 b            0 skpd (  0.0%)    0.013 s ( 0.206 ms/b)
<ph|ph>:          105 b            0 skpd (  0.0%)    0.011 s ( 0.100 ms/b)
<ph|dd>:          210 b            0 skpd (  0.0%)    0.001 s ( 0.005 ms/b)
<ph|df>:          280 b            0 skpd (  0.0%)    0.002 s ( 0.007 ms/b)
<ph|dg>:          210 b            2 skpd (  1.0%)    0.003 s ( 0.015 ms/b)
<ph|dh>:          140 b            1 skpd (  0.7%)    0.004 s ( 0.032 ms/b)
<ph|ff>:          140 b            0 skpd (  0.0%)    0.003 s ( 0.023 ms/b)
<ph|fg>:          168 b            0 skpd (  0.0%)    0.005 s ( 0.028 ms/b)
<ph|fh>:          112 b            0 skpd (  0.0%)    0.007 s ( 0.059 ms/b)
<ph|gg>:           84 b            0 skpd (  0.0%)    0.007 s ( 0.081 ms/b)
<ph|gh>:           84 b            0 skpd (  0.0%)    0.011 s ( 0.129 ms/b)
<ph|hh>:           42 b            0 skpd (  0.0%)    0.014 s ( 0.338 ms/b)
<dd|dd>:          120 b            0 skpd (  0.0%)    0.000 s ( 0.004 ms/b)
<dd|df>:          300 b            0 skpd (  0.0%)    0.001 s ( 0.005 ms/b)
<dd|dg>:          225 b            0 skpd (  0.0%)    0.002 s ( 0.007 ms/b)
<dd|dh>:          150 b            0 skpd (  0.0%)    0.001 s ( 0.010 ms/b)
<dd|ff>:          150 b            0 skpd (  0.0%)    0.001 s ( 0.008 ms/b)
<dd|fg>:          180 b            0 skpd (  0.0%)    0.002 s ( 0.009 ms/b)
<dd|fh>:          120 b            0 skpd (  0.0%)    0.002 s ( 0.017 ms/b)
<dd|gg>:           90 b            0 skpd (  0.0%)    0.002 s ( 0.026 ms/b)
<dd|gh>:           90 b            0 skpd (  0.0%)    0.003 s ( 0.035 ms/b)
<dd|hh>:           45 b            0 skpd (  0.0%)    0.004 s ( 0.096 ms/b)
<df|df>:          210 b            0 skpd (  0.0%)    0.002 s ( 0.008 ms/b)
<df|dg>:          300 b            0 skpd (  0.0%)    0.002 s ( 0.008 ms/b)
<df|dh>:          200 b            0 skpd (  0.0%)    0.003 s ( 0.015 ms/b)
<df|ff>:          200 b            0 skpd (  0.0%)    0.003 s ( 0.014 ms/b)
<df|fg>:          240 b            0 skpd (  0.0%)    0.004 s ( 0.015 ms/b)
<df|fh>:          160 b            0 skpd (  0.0%)    0.005 s ( 0.030 ms/b)
<df|gg>:          120 b            0 skpd (  0.0%)    0.005 s ( 0.043 ms/b)
<df|gh>:          120 b            0 skpd (  0.0%)    0.007 s ( 0.058 ms/b)
<df|hh>:           60 b            0 skpd (  0.0%)    0.010 s ( 0.161 ms/b)
<dg|dg>:          120 b            0 skpd (  0.0%)    0.002 s ( 0.021 ms/b)
<dg|dh>:          150 b            0 skpd (  0.0%)    0.004 s ( 0.024 ms/b)
<dg|ff>:          150 b            0 skpd (  0.0%)    0.002 s ( 0.017 ms/b)
<dg|fg>:          180 b            1 skpd (  0.6%)    0.004 s ( 0.022 ms/b)
<dg|fh>:          120 b            0 skpd (  0.0%)    0.005 s ( 0.041 ms/b)
<dg|gg>:           90 b            0 skpd (  0.0%)    0.006 s ( 0.070 ms/b)
<dg|gh>:           90 b            0 skpd (  0.0%)    0.008 s ( 0.094 ms/b)
<dg|hh>:           45 b            0 skpd (  0.0%)    0.011 s ( 0.238 ms/b)
<dh|dh>:           55 b            0 skpd (  0.0%)    0.003 s ( 0.057 ms/b)
<dh|ff>:          100 b            0 skpd (  0.0%)    0.002 s ( 0.024 ms/b)
<dh|fg>:          120 b            0 skpd (  0.0%)    0.004 s ( 0.032 ms/b)
<dh|fh>:           80 b            0 skpd (  0.0%)    0.005 s ( 0.067 ms/b)
<dh|gg>:           60 b            0 skpd (  0.0%)    0.006 s ( 0.092 ms/b)
<dh|gh>:           60 b            0 skpd (  0.0%)    0.008 s ( 0.133 ms/b)
<dh|hh>:           30 b            0 skpd (  0.0%)    0.012 s ( 0.386 ms/b)
<ff|ff>:           55 b            0 skpd (  0.0%)    0.002 s ( 0.033 ms/b)
<ff|fg>:          120 b            0 skpd (  0.0%)    0.003 s ( 0.029 ms/b)
<ff|fh>:           80 b            0 skpd (  0.0%)    0.004 s ( 0.052 ms/b)
<ff|gg>:           60 b            0 skpd (  0.0%)    0.004 s ( 0.074 ms/b)
<ff|gh>:           60 b            0 skpd (  0.0%)    0.007 s ( 0.109 ms/b)
<ff|hh>:           30 b            0 skpd (  0.0%)    0.009 s ( 0.294 ms/b)
<fg|fg>:           78 b            0 skpd (  0.0%)    0.005 s ( 0.070 ms/b)
<fg|fh>:           96 b            0 skpd (  0.0%)    0.008 s ( 0.084 ms/b)
<fg|gg>:           72 b            0 skpd (  0.0%)    0.009 s ( 0.125 ms/b)
<fg|gh>:           72 b            0 skpd (  0.0%)    0.012 s ( 0.171 ms/b)
<fg|hh>:           36 b            0 skpd (  0.0%)    0.016 s ( 0.451 ms/b)
<fh|fh>:           36 b            0 skpd (  0.0%)    0.007 s ( 0.201 ms/b)
<fh|gg>:           48 b            0 skpd (  0.0%)    0.008 s ( 0.157 ms/b)
<fh|gh>:           48 b            0 skpd (  0.0%)    0.012 s ( 0.248 ms/b)
<fh|hh>:           24 b            0 skpd (  0.0%)    0.017 s ( 0.713 ms/b)
<gg|gg>:           21 b            0 skpd (  0.0%)    0.007 s ( 0.320 ms/b)
<gg|gh>:           36 b            0 skpd (  0.0%)    0.011 s ( 0.319 ms/b)
<gg|hh>:           18 b            0 skpd (  0.0%)    0.015 s ( 0.810 ms/b)
<gh|gh>:           21 b            0 skpd (  0.0%)    0.015 s ( 0.735 ms/b)
<gh|hh>:           18 b            0 skpd (  0.0%)    0.023 s ( 1.278 ms/b)
<hh|hh>:            6 b            0 skpd (  0.0%)    0.019 s ( 3.206 ms/b)
Recanonicalizing the internal orbitals
Recanonicalizing the virtual orbitals
Time needed for Fock operator              ...            1.228 sec
Reference energy                           ...   -459.489762892
Warning: for UHF the TrafoType has to be JK
Warning: for UHF the K(C)-option cannot be MO but must be AOX

-------------------------------
PARTIAL EXCHANGE TRANSFORMATION
-------------------------------

Transformation type                        ... two-operators
Generation of integrals (i,mue|j,nue)      ... ON
Generation of integrals (mue,kappa|nue,tau)... ON
Generation of integrals (i,mue|a,nue)      ... ON
Dimension of the basis                     ...  131
Number of internal alpha-MOs               ...    4 (   5-   8)
Number of internal beta-MOs                ...    3 (   5-   7)
Number of external alpha-MOs               ...  122 (   9- 130)
Number of external beta-MOs                ...  123 (   8- 130)
Pair cutoff                                ... 0.000e+00 Eh
Number of AO pairs in the trafo            ... 8646
Total Number of distinct AO pairs          ... 8646
Memory devoted for trafo                   ... 2500.0 MB 
Max. Number of MO pairs treated together   ... 19094      
Number Format for Storage                  ... Double (8 Byte)
Integral package used                      ... LIBINT

Starting integral evaluation:
    ... done with AO integral generation
Closing buffer AOK[aa] ( 0.00 GB; CompressionRatio= 0.91)
Closing buffer AOK[bb] ( 0.00 GB; CompressionRatio= 0.86)
Closing buffer AOK[ab] ( 0.00 GB; CompressionRatio= 0.89)
Closing buffer AOK[ba] ( 0.00 GB; CompressionRatio= 0.89)
Collecting buffer AOK 
Closing buffer IAAO1[aa] ( 0.00 GB; CompressionRatio= 1.00)
Closing buffer IAAO1[bb] ( 0.00 GB; CompressionRatio= 1.00)
Closing buffer IAAO1[ab] ( 0.00 GB; CompressionRatio= 1.00)
Closing buffer IAAO1[ba] ( 0.00 GB; CompressionRatio= 1.00)
Closing buffer IAAO2[aa] ( 0.00 GB; CompressionRatio= 1.00)
Closing buffer IAAO2[bb] ( 0.00 GB; CompressionRatio= 1.00)
Closing buffer IAAO2[ab] ( 0.00 GB; CompressionRatio= 1.00)
Closing buffer IAAO2[ba] ( 0.00 GB; CompressionRatio= 1.00)
Collecting buffer IAAO 
Closing buffer PRQS    ( 0.01 GB; CompressionRatio= 1.00)
Collecting buffer PRQS 
Number of alpha/alpha MO pairs in trafo    ...   10
Number of beta /beta  MO pairs in trafo    ...    6
Number of alpha/ beta MO pairs in trafo    ...   12
------------------------
SORTING OF (i,mue|j,nue)
------------------------

SORTING OF ALPHA/ALPHA PAIRS
IBATCH = 1 of  1
Closing buffer KAO[aa] ( 0.00 GB; CompressionRatio= 1.00)
Collecting buffer KAO 
SORTING OF BETA /BETA  PAIRS
IBATCH = 1 of  1
Closing buffer KAO[bb] ( 0.00 GB; CompressionRatio= 1.00)
Collecting buffer KAO 
SORTING OF ALPHA/BETA  PAIRS
IBATCH = 1 of  1
Closing buffer KAO[ab] ( 0.00 GB; CompressionRatio= 0.999912600146)
Collecting buffer KAO[ab] 
------------------------
SORTING OF (i,mue|a,nue)
------------------------

Number of alpha/alpha (i,a) pairs in trafo  ...  488
Number of beta /beta  (i,a) pairs in trafo  ...  369
Number of alpha/ beta (i,a) pairs in trafo  ...  492
Number of beta /alpha (i,a) pairs in trafo  ...  366
Setting up the alpha/alpha list             ... done
Setting up the beta /beta  list             ... done
Setting up the alpha/beta  list             ... done
Setting up the beta /alpha list             ... done
    ... Now sorting (i,mue|a,nue)integrals
    ... Integrals (i,b|a,c) will be made on the fly
SORTING OF ALPHA/ALPHA PAIRS
IBATCH = 1 of  1
Closing buffer IPAQ[aa]  0.00 GB; CompressionRatio= 1.00)
SORTING OF BETA /BETA  PAIRS
IBATCH = 1 of  1
Closing buffer IPAQ[bb]( 0.00 GB; CompressionRatio= 1.00)
SORTING OF ALPHA/BETA  PAIRS (NMatSort_ab=24)
IBATCH = 1 of  1
Closing buffer IPAQ[ab]( 0.00 GB; CompressionRatio= 1.00)
SORTING OF BETA/ALPHA  PAIRS
IBATCH = 1 of  1
Closing buffer IPAQ[ba]( 0.00 GB; CompressionRatio= 1.00)
N(AO-Batches) Done                         ...      7569 
N(AO-Batches) Skipped                      ...         0 
N(IJ)-pairs Skipped                        ...         0 
TOTAL TIME for half transformation         ...    14.056 sec
AO-integral generation                     ...     0.662 sec
Half transformation                        ...     1.650 sec
K-integral sorting                         ...     1.819 sec
<ss|**>: 
------------------------------
PARTIAL COULOMB TRANSFORMATION
------------------------------

Transformation type                        ... two-operators
Dimension of the basis                     ...  131
Number of internal alpha-MOs               ...    4 (5-8)
Number of internal beta-MOs                ...    3 (5-7)
Pair cutoff                                ... 0.000e+00 Eh
Number of AO pairs included in the trafo   ... 8646
Total Number of distinct AO pairs          ... 8646
Memory devoted for trafo                   ... 2500.0 MB 
Max. Number of MO pairs treated together   ... 37899      
Max. Number of MOs treated per batch       ...  289      
Number Format for Storage                  ... Double (8 Byte)
AO-integral source                         ... DIRECT
Integral package used                      ... LIBINT

Starting integral evaluation:
       15660 b        0 skpd     0.110 s (  0.007 ms/b)
<sp|**>: <sd|**>:        24360 b        0 skpd     0.124 s (  0.005 ms/b)
       17400 b        0 skpd     0.062 s (  0.004 ms/b)
<sf|**>:        13920 b        0 skpd     0.093 s (  0.007 ms/b)
<sg|**>:        10440 b        0 skpd     0.131 s (  0.013 ms/b)
<sh|**>:         6960 b        0 skpd     0.178 s (  0.026 ms/b)
<pp|**>:        12180 b        0 skpd     0.144 s (  0.012 ms/b)
<pd|**>:        15225 b        0 skpd     0.110 s (  0.007 ms/b)
<pf|**>:        12180 b        0 skpd     0.162 s (  0.013 ms/b)
<pg|**>:         9135 b        0 skpd     0.126 s (  0.014 ms/b)
<ph|**>:         6090 b        0 skpd     0.192 s (  0.032 ms/b)
<dd|**>:         6525 b        0 skpd     0.061 s (  0.009 ms/b)
<df|**>:         8700 b        0 skpd     0.131 s (  0.015 ms/b)
<dg|**>:         6525 b        0 skpd     0.138 s (  0.021 ms/b)
<dh|**>:         4350 b        0 skpd     0.136 s (  0.031 ms/b)
<ff|**>:         4350 b        0 skpd     0.115 s (  0.027 ms/b)
<fg|**>:         5220 b        0 skpd     0.184 s (  0.035 ms/b)
<fh|**>:         3480 b        0 skpd     0.189 s (  0.054 ms/b)
<gg|**>:         2610 b        0 skpd     0.187 s (  0.072 ms/b)
<gh|**>:         2610 b        0 skpd     0.250 s (  0.096 ms/b)
<hh|**>:         1305 b        0 skpd     0.295 s (  0.226 ms/b)
Closing buffer AOJ[aa] ( 0.00 GB; CompressionRatio= 0.87)
Closing buffer AOJ[bb] ( 0.00 GB; CompressionRatio= 0.00)
Collecting buffer AOJ 
    ... done with AO integral generation
Number of Alpha-MO pairs included          ...   10
Number of Beta-MO pairs included           ...    6
    ... Now sorting integrals
SORTING ALPHA/ALPHA PAIRS
IBATCH = 1 of  1
Closing buffer JAO[aa] ( 0.00 GB; CompressionRatio= 1.00)
SORTING BETA/BETA PAIRS
IBATCH = 1 of  1
Closing buffer JAO[bb] ( 0.00 GB; CompressionRatio= 1.00)
Collecting buffer JAO 
TOTAL TIME for half transformation         ...    13.307 sec
AO-integral generation                     ...     2.575 sec
Half transformation                        ...     0.586 sec
J-integral sorting                         ...     0.114 sec

-------------------------- SECOND HALF TRANSFORMATION -------------------------
Formation of (ij|kl),(ij|ka), (ij|ab)      ... ok (     0.144 sec)
Formation of (ik|jl),(ik|ja), (ia|jb)      ... ok (     0.223 sec)


-----------------------
SPIN UNRESTRICTED GUESS
-----------------------

Entering MDCI_UHF_Guess, Tailored=0
Spin-components of the MP2 energy:
EMP2(aa)=     -0.026746149
EMP2(bb)=     -0.012295662
EMP2(ab)=     -0.144207760

Initial guess performed in     0.009 sec
E(0)                                       ...   -459.489762892
E(MP2)                                     ...     -0.183249571
Initial E(tot)                             ...   -459.673012463
<T|T>                                      ...      0.059513172
Number of pairs included                   ... 21

------------------------------------------------
                  UHF COUPLED CLUSTER ITERATIONS
------------------------------------------------

Number of amplitudes to be optimized       ...       247844

Iter       E(tot)           E(Corr)          Delta-E          Residual     Time      <S|S>**1/2
  0   -459.673012463     -0.183249571     -0.000000000      0.019774574    2.88      0.000002041
                           *** Turning on DIIS ***
  1   -459.686631437     -0.196868544     -0.013618973      0.008413825    3.21      0.010497261
  2   -459.692019712     -0.202256820     -0.005388275      0.003140524    3.19      0.015569979
  3   -459.692858179     -0.203095286     -0.000838467      0.000907015    3.28      0.017575313
  4   -459.692974859     -0.203211967     -0.000116681      0.000159404    3.27      0.018338872
  5   -459.692994744     -0.203231852     -0.000019885      0.000044642    3.32      0.018489583
  6   -459.692995940     -0.203233048     -0.000001195      0.000019527    3.26      0.018515758
  7   -459.692995582     -0.203232690      0.000000357      0.000006582    3.29      0.018518802
               --- The Coupled-Cluster iterations have converged ---

----------------------
COUPLED CLUSTER ENERGY
----------------------

E(0)                                       ...   -459.489762892
E(CORR)                                    ...     -0.203232690
E(TOT)                                     ...   -459.692995582
Singles norm <S|S>**1/2                    ...      0.018518802 ( 0.007238596, 0.011280206)  
T1 diagnostic                              ...      0.006999449                              

------------------
LARGEST AMPLITUDES
------------------
   6a-> 29a   5b->  8b       0.040150
   8a-> 31a   5b->  8b       0.034905
   7a-> 30a   5b->  8b       0.034905
   7a-> 30a   7b-> 31b       0.029530
   8a-> 31a   6b-> 32b       0.029530
   8a-> 32a   6b-> 29b       0.028316
   7a-> 32a   7b-> 29b       0.028316
   8a-> 33a   6b-> 30b       0.028316
   7a-> 33a   7b-> 30b       0.028316
   8a-> 33a   7a-> 32a       0.027816
   8a-> 32a   7a-> 33a       0.027816
   6a-> 13a   5b->  8b       0.027652
   7b-> 30b   6b-> 29b       0.026917
   7b-> 29b   6b-> 30b       0.026917
   8a-> 15a   5b->  8b       0.022936
   7a-> 14a   5b->  8b       0.022936

----------------------
UHF TRIPLES CORRECTION (Algorithm 1)
----------------------

Multiplier for the singles contribution    ...      1.000000000

SPIN-CASE Alpha-Alpha-Alpha:
10% done
20% done
30% done
40% done
50% done
60% done
70% done
80% done
90% done


SPIN-CASE Beta-Beta-Beta:
10% done
20% done
30% done
40% done
50% done
60% done
70% done
80% done
90% done


SPIN-CASE Alpha-Alpha-Beta:
10% done
20% done
30% done
40% done
50% done
60% done
70% done
80% done
90% done


SPIN-CASE Beta-Beta-Alpha:
10% done
20% done
30% done
40% done
50% done
60% done
70% done
80% done
90% done


Triples Correction (T)                     ...     -0.007791682
    alpha-alpha-alpha ... -0.000267877 (  3.4%)
    alpha-alpha-beta  ... -0.004596212 ( 59.0%)
    alpha-beta -beta  ... -0.002879725 ( 37.0%)
    beta -beta -beta  ... -0.000047868 (  0.6%)
Scaling of triples based on CCSD energies (Peterson et al. Molecular Physics 113, 1551 (2015))
E(T*) = f*E(T) where f = E(F12-CCSD)/E(CCSD) 
f = CCSD (with F12)/ CCSD (without F12)    ...      1.000000000
Scaled triples correction (T)              ...     -0.007791682

Final correlation energy                   ...     -0.211024372
E(CCSD)                                    ...   -459.692995582
E(CCSD(T))                                 ...   -459.700787264



        !!!!!!!!!!!!!!!!!!!!!!!!!!!!!!!!!!!!!!!!!!!!!!!!!!!!!!!!!!!!!!!!!!!!!!!!!! 
        !  Warning: Densities are linearized densities                           !
        !!!!!!!!!!!!!!!!!!!!!!!!!!!!!!!!!!!!!!!!!!!!!!!!!!!!!!!!!!!!!!!!!!!!!!!!!! 

NORM  =      1.078697151 sqrt=     1.038603462
W(HF) =      0.927044258
------------------------------------------------------------------------------
                           ORCA POPULATION ANALYSIS
------------------------------------------------------------------------------
Input electron density              ... 17_Cl.mdcip
Input spin density                  ... 17_Cl.mdcir
BaseName (.gbw .S,...)              ... 17_Cl

                    ********************************
                    * MULLIKEN POPULATION ANALYSIS *
                    ********************************

------------------------------------------
MULLIKEN ATOMIC CHARGES AND SPIN DENSITIES
------------------------------------------
   0 Cl:    0.000000    1.000000
Sum of atomic charges       :    0.0000000
Sum of atomic spin densities:    1.0000000

---------------------------------------------------
MULLIKEN REDUCED ORBITAL CHARGES AND SPIN DENSITIES
---------------------------------------------------
CHARGE
  0 Cls       :     5.972909  s :     5.972909
      pz      :     3.007904  p :    10.912310
      px      :     3.946841
      py      :     3.957565
      dz2     :     0.017978  d :     0.099239
      dxz     :     0.018842
      dyz     :     0.018872
      dx2y2   :     0.021773
      dxy     :     0.021773
      f0      :     0.001870  f :     0.012853
      f+1     :     0.001837
      f-1     :     0.001835
      f+2     :     0.001812
      f-2     :     0.001812
      f+3     :     0.001844
      f-3     :     0.001844
      g0      :     0.000177  g :     0.002327
      g+1     :     0.000188
      g-1     :     0.000189
      g+2     :     0.000224
      g-2     :     0.000224
      g+3     :     0.000285
      g-3     :     0.000285
      g+4     :     0.000377
      g-4     :     0.000377
      h0      :     0.000024  h :     0.000362
      h+1     :     0.000025
      h-1     :     0.000025
      h+2     :     0.000028
      h-2     :     0.000028
      h+3     :     0.000032
      h-3     :     0.000032
      h+4     :     0.000038
      h-4     :     0.000038
      h+5     :     0.000046
      h-5     :     0.000046

SPIN
  0 Cls       :     0.009024  s :     0.009024
      pz      :     0.958405  p :     0.968498
      px      :     0.010460
      py      :    -0.000367
      dz2     :     0.008475  d :     0.019156
      dxz     :     0.006047
      dyz     :     0.005963
      dx2y2   :    -0.000664
      dxy     :    -0.000664
      f0      :     0.000899  f :     0.003386
      f+1     :     0.000786
      f-1     :     0.000778
      f+2     :     0.000469
      f-2     :     0.000469
      f+3     :    -0.000008
      f-3     :    -0.000008
      g0      :    -0.000008  g :    -0.000070
      g+1     :    -0.000009
      g-1     :    -0.000009
      g+2     :    -0.000010
      g-2     :    -0.000010
      g+3     :    -0.000009
      g-3     :    -0.000009
      g+4     :    -0.000002
      g-4     :    -0.000002
      h0      :     0.000001  h :     0.000006
      h+1     :     0.000001
      h-1     :     0.000001
      h+2     :     0.000001
      h-2     :     0.000001
      h+3     :     0.000001
      h-3     :     0.000001
      h+4     :     0.000000
      h-4     :     0.000000
      h+5     :    -0.000000
      h-5     :    -0.000000


                     *******************************
                     * LOEWDIN POPULATION ANALYSIS *
                     *******************************

-----------------------------------------
LOEWDIN ATOMIC CHARGES AND SPIN DENSITIES
-----------------------------------------
   0 Cl:    0.000000    1.000000

--------------------------------------------------
LOEWDIN REDUCED ORBITAL CHARGES AND SPIN DENSITIES
--------------------------------------------------
CHARGE
  0 Cls       :     5.972909  s :     5.972909
      pz      :     3.007904  p :    10.912310
      px      :     3.946841
      py      :     3.957565
      dz2     :     0.017978  d :     0.099239
      dxz     :     0.018842
      dyz     :     0.018872
      dx2y2   :     0.021773
      dxy     :     0.021773
      f0      :     0.001870  f :     0.012853
      f+1     :     0.001837
      f-1     :     0.001835
      f+2     :     0.001812
      f-2     :     0.001812
      f+3     :     0.001844
      f-3     :     0.001844
      g0      :     0.000177  g :     0.002327
      g+1     :     0.000188
      g-1     :     0.000189
      g+2     :     0.000224
      g-2     :     0.000224
      g+3     :     0.000285
      g-3     :     0.000285
      g+4     :     0.000377
      g-4     :     0.000377
      h0      :     0.000024  h :     0.000362
      h+1     :     0.000025
      h-1     :     0.000025
      h+2     :     0.000028
      h-2     :     0.000028
      h+3     :     0.000032
      h-3     :     0.000032
      h+4     :     0.000038
      h-4     :     0.000038
      h+5     :     0.000046
      h-5     :     0.000046

SPIN
  0 Cls       :     0.009024  s :     0.009024
      pz      :     0.958405  p :     0.968498
      px      :     0.010460
      py      :    -0.000367
      dz2     :     0.008475  d :     0.019156
      dxz     :     0.006047
      dyz     :     0.005963
      dx2y2   :    -0.000664
      dxy     :    -0.000664
      f0      :     0.000899  f :     0.003386
      f+1     :     0.000786
      f-1     :     0.000778
      f+2     :     0.000469
      f-2     :     0.000469
      f+3     :    -0.000008
      f-3     :    -0.000008
      g0      :    -0.000008  g :    -0.000070
      g+1     :    -0.000009
      g-1     :    -0.000009
      g+2     :    -0.000010
      g-2     :    -0.000010
      g+3     :    -0.000009
      g-3     :    -0.000009
      g+4     :    -0.000002
      g-4     :    -0.000002
      h0      :     0.000001  h :     0.000006
      h+1     :     0.000001
      h-1     :     0.000001
      h+2     :     0.000001
      h-2     :     0.000001
      h+3     :     0.000001
      h-3     :     0.000001
      h+4     :     0.000000
      h-4     :     0.000000
      h+5     :    -0.000000
      h-5     :    -0.000000


                      *****************************
                      * MAYER POPULATION ANALYSIS *
                      *****************************

  NA   - Mulliken gross atomic population
  ZA   - Total nuclear charge
  QA   - Mulliken gross atomic charge
  VA   - Mayer's total valence
  BVA  - Mayer's bonded valence
  FA   - Mayer's free valence

  ATOM       NA         ZA         QA         VA         BVA        FA
  0 Cl    17.0000    17.0000     0.0000     1.5569     0.0000     1.5569





------------------------------------------------------------------------------- 
                                     TIMINGS                                   
------------------------------------------------------------------------------- 


Total execution time                   ...       57.204 sec

Fock Matrix Formation                  ...        1.228 sec (  2.1%)
Initial Guess                          ...        0.009 sec (  0.0%)
DIIS Solver                            ...        0.213 sec (  0.4%)
State Vector Update                    ...        0.011 sec (  0.0%)
Sigma-vector construction              ...       25.492 sec ( 44.6%)
  <D|H|D>(0-ext Fock)                  ...        0.002 sec (  0.0% of sigma)
  <D|H|D>(0-ext)                       ...        0.003 sec (  0.0% of sigma)
  <D|H|D>(2-ext Fock)                  ...        0.002 sec (  0.0% of sigma)
  <D|H|D>(2-ext)                       ...        0.022 sec (  0.1% of sigma)
  <D|H|D>(4-ext)                       ...       17.963 sec ( 70.5% of sigma)
  <S|H|0>                              ...        0.231 sec (  0.9% of sigma)
  <D|H|S>(1-ext)                       ...        0.018 sec (  0.1% of sigma)
  Fock-dressing                        ...        5.936 sec ( 23.3% of sigma)
  (ik|jl)-dressing                     ...        0.003 sec (  0.0% of sigma)
  (ij|ab),(ia|jb)-dressing             ...        0.949 sec (  3.7% of sigma)
  Pair energies                        ...        0.001 sec (  0.0% of sigma)
Total Time for computing (T)           ...        1.681 sec (  2.9% of ALL)
  I/O of integral and amplitudes       ...        0.562 sec ( 33.4% of (T))
  External N**7 contributions          ...        0.442 sec ( 26.3% of (T))
  Internal N**7 contributions          ...        0.141 sec (  8.4% of (T))
  N**6 triples energy contributions    ...        0.422 sec ( 25.1% of (T))


-------------------------   --------------------
FINAL SINGLE POINT ENERGY      -459.700787263970
-------------------------   --------------------


                            ***************************************
                            *     ORCA property calculations      *
                            ***************************************

                                    ---------------------
                                    Active property flags
                                    ---------------------
   (+) Dipole Moment


------------------------------------------------------------------------------
                       ORCA ELECTRIC PROPERTIES CALCULATION
------------------------------------------------------------------------------

Dipole Moment Calculation                       ... on
Quadrupole Moment Calculation                   ... off
Polarizability Calculation                      ... off
GBWName                                         ... 17_Cl.gbw
Electron density file                           ... 17_Cl.scfp
The origin for moment calculation is the CENTER OF MASS  = ( 0.000000,  0.000000  0.000000)

-------------
DIPOLE MOMENT
-------------
                                X             Y             Z
Electronic contribution:     -0.00000      -0.00000      -0.00000
Nuclear contribution   :      0.00000       0.00000       0.00000
                        -----------------------------------------
Total Dipole Moment    :     -0.00000      -0.00000      -0.00000
                        -----------------------------------------
Magnitude (a.u.)       :      0.00000
Magnitude (Debye)      :      0.00000



--------------------
Rotational spectrum 
--------------------
 
Rotational constants in cm-1:     0.000000     0.000000     0.000000 
Rotational constants in MHz :     0.000000     0.000000     0.000000 

 Dipole components along the rotational axes: 
x,y,z [a.u.] :    -0.000000    -0.000000    -0.000000 
x,y,z [Debye]:    -0.000000    -0.000000    -0.000000 

 

                           *** MDCI DENSITY ***

------------------------------------------------------------------------------
                       ORCA ELECTRIC PROPERTIES CALCULATION
------------------------------------------------------------------------------

Dipole Moment Calculation                       ... on
Quadrupole Moment Calculation                   ... off
Polarizability Calculation                      ... off
GBWName                                         ... 17_Cl.gbw
Electron density file                           ... 17_Cl.mdcip
The origin for moment calculation is the CENTER OF MASS  = ( 0.000000,  0.000000  0.000000)

-------------
DIPOLE MOMENT
-------------
                                X             Y             Z
Electronic contribution:     -0.00000      -0.00000       0.00000
Nuclear contribution   :      0.00000       0.00000       0.00000
                        -----------------------------------------
Total Dipole Moment    :     -0.00000      -0.00000       0.00000
                        -----------------------------------------
Magnitude (a.u.)       :      0.00000
Magnitude (Debye)      :      0.00000



--------------------
Rotational spectrum 
--------------------
 
Rotational constants in cm-1:     0.000000     0.000000     0.000000 
Rotational constants in MHz :     0.000000     0.000000     0.000000 

 Dipole components along the rotational axes: 
x,y,z [a.u.] :    -0.000000    -0.000000     0.000000 
x,y,z [Debye]:    -0.000000    -0.000000     0.000000 

 

Timings for individual modules:

Sum of individual times         ...       66.328 sec (=   1.105 min)
GTO integral calculation        ...        1.111 sec (=   0.019 min)   1.7 %
SCF iterations                  ...        6.642 sec (=   0.111 min)  10.0 %
MDCI module                     ...       58.575 sec (=   0.976 min)  88.3 %
                             ****ORCA TERMINATED NORMALLY****
TOTAL RUN TIME: 0 days 0 hours 1 minutes 7 seconds 152 msec
