
                                 *****************
                                 * O   R   C   A *
                                 *****************

           --- An Ab Initio, DFT and Semiempirical electronic structure package ---

                  #######################################################
                  #                        -***-                        #
                  #          Department of theory and spectroscopy      #
                  #               Directorship: Frank Neese             #
                  #        Max Planck Institute fuer Kohlenforschung    #
                  #                Kaiser Wilhelm Platz 1               #
                  #                 D-45470 Muelheim/Ruhr               #
                  #                      Germany                        #
                  #                                                     #
                  #                  All rights reserved                #
                  #                        -***-                        #
                  #######################################################


                         Program Version 4.2.0 -  RELEASE  -


 With contributions from (in alphabetic order):
   Daniel Aravena         : Magnetic Suceptibility
   Michael Atanasov       : Ab Initio Ligand Field Theory (pilot matlab implementation)
   Alexander A. Auer      : GIAO ZORA, VPT2
   Ute Becker             : Parallelization
   Giovanni Bistoni       : ED, misc. LED, open-shell LED, HFLED
   Martin Brehm           : Molecular dynamics
   Dmytro Bykov           : SCF Hessian
   Vijay G. Chilkuri      : MRCI spin determinant printing, contributions to CSF-ICE
   Dipayan Datta          : RHF DLPNO-CCSD density
   Achintya Kumar Dutta   : EOM-CC, STEOM-CC
   Dmitry Ganyushin       : Spin-Orbit,Spin-Spin,Magnetic field MRCI
   Miquel Garcia          : C-PCM Hessian, Gaussian charge scheme
   Yang Guo               : DLPNO-NEVPT2, CIM, IAO-localization
   Andreas Hansen         : Spin unrestricted coupled pair/coupled cluster methods
   Benjamin Helmich-Paris : CASSCF linear response (MC-RPA)
   Lee Huntington         : MR-EOM, pCC
   Robert Izsak           : Overlap fitted RIJCOSX, COSX-SCS-MP3, EOM
   Christian Kollmar      : KDIIS, OOCD, Brueckner-CCSD(T), CCSD density
   Simone Kossmann        : Meta GGA functionals, TD-DFT gradient, OOMP2, MP2 Hessian
   Martin Krupicka        : AUTO-CI
   Lucas Lang             : DCDCAS
   Dagmar Lenk            : GEPOL surface, SMD
   Dimitrios Liakos       : Extrapolation schemes; Compound Job, initial MDCI parallelization
   Dimitrios Manganas     : Further ROCIS development; embedding schemes
   Dimitrios Pantazis     : SARC Basis sets
   Taras Petrenko         : DFT Hessian,TD-DFT gradient, ASA, ECA, R-Raman, ABS, FL, XAS/XES, NRVS
   Peter Pinski           : DLPNO-MP2, DLPNO-MP2 Gradient
   Christoph Reimann      : Effective Core Potentials
   Marius Retegan         : Local ZFS, SOC
   Christoph Riplinger    : Optimizer, TS searches, QM/MM, DLPNO-CCSD(T), (RO)-DLPNO pert. Triples
   Tobias Risthaus        : Range-separated hybrids, TD-DFT gradient, RPA, STAB
   Michael Roemelt        : Original ROCIS implementation
   Masaaki Saitow         : Open-shell DLPNO-CCSD energy and density
   Barbara Sandhoefer     : DKH picture change effects
   Avijit Sen             : IP-ROCIS
   Kantharuban Sivalingam : CASSCF convergence, NEVPT2, FIC-MRCI
   Bernardo de Souza      : ESD, SOC TD-DFT
   Georgi Stoychev        : AutoAux, RI-MP2 NMR
   Willem Van den Heuvel  : Paramagnetic NMR
   Boris Wezisla          : Elementary symmetry handling
   Frank Wennmohs         : Technical directorship


 We gratefully acknowledge several colleagues who have allowed us to
 interface, adapt or use parts of their codes:
   Stefan Grimme, W. Hujo, H. Kruse,             : VdW corrections, initial TS optimization,
                  C. Bannwarth                     DFT functionals, gCP, sTDA/sTD-DF
   Ed Valeev, F. Pavosevic, A. Kumar             : LibInt (2-el integral package), F12 methods
   Garnet Chan, S. Sharma, J. Yang, R. Olivares  : DMRG
   Ulf Ekstrom                                   : XCFun DFT Library
   Mihaly Kallay                                 : mrcc  (arbitrary order and MRCC methods)
   Andreas Klamt, Michael Diedenhofen            : otool_cosmo (COSMO solvation model)
   Jiri Pittner, Ondrej Demel                    : Mk-CCSD
   Frank Weinhold                                : gennbo (NPA and NBO analysis)
   Christopher J. Cramer and Donald G. Truhlar   : smd solvation model
   Lars Goerigk                                  : TD-DFT with DH, B97 family of functionals
   V. Asgeirsson, H. Jonsson                     : NEB implementation
   FAccTs GmbH                                   : IRC, NEB, NEB-TS, Multilevel, MM, QM/MM, CI optimization
   S Lehtola, MJT Oliveira, MAL Marques          : LibXC Library


 Your calculation uses the libint2 library for the computation of 2-el integrals
 For citations please refer to: http://libint.valeyev.net

 Your ORCA version has been built with support for libXC version: 4.2.3
 For citations please refer to: https://tddft.org/programs/libxc/

 This ORCA versions uses:
   CBLAS   interface :  Fast vector & matrix operations
   LAPACKE interface :  Fast linear algebra routines
   SCALAPACK package :  Parallel linear algebra routines


----- Orbital basis set information -----
Your calculation utilizes the basis: aug-cc-pV5Z 
          H : Obtained from the ccRepo (grant-hill.group.shef.ac.uk/ccrepo) Feb. 2017
              T. H. Dunning, Jr., J. Chem. Phys. 90, 1007 (1989)
              Diffuse s exponent - S. Mielke, unpublished
         He : Obtained from the ccRepo (grant-hill.group.shef.ac.uk/ccrepo) Feb. 2017
              D. E. Woon, T. H. Dunning, Jr., J. Chem. Phys. 100, 2975 (1994)
  Li-Be, Na : Obtained from the ccRepo (grant-hill.group.shef.ac.uk/ccrepo) Feb. 2017
              B. P. Prascher, D. E. Woon, K. A. Peterson, T. H. Dunning, Jr., A. K. Wilson, Theor. Chem. Acc. 128, 69 (2011)
        B-F : Obtained from the ccRepo (grant-hill.group.shef.ac.uk/ccrepo) Feb. 2017
              R. A. Kendall, T. H. Dunning, Jr., R. J. Harrison, J. Chem. Phys. 96, 6796 (1992)
              T. H. Dunning, Jr., J. Chem. Phys. 90, 1007 (1989)
         Ne : Obtained from the ccRepo (grant-hill.group.shef.ac.uk/ccrepo) Feb. 2017
              T. H. Dunning, Jr., J. Chem. Phys. 90, 1007 (1989)
         Mg : Obtained from the Peterson Research Group Website (tyr0.chem.wsu.edu/~kipeters) Feb. 2017
              B. P. Prascher, D. E. Woon, K. A. Peterson, T. H. Dunning, Jr., A. K. Wilson, Theor. Chem. Acc. 128, 69 (2011)
      Al-Ar : Obtained from the ccRepo (grant-hill.group.shef.ac.uk/ccrepo) Feb. 2017
              D. E. Woon, T. H. Dunning, Jr., J. Chem. Phys. 98, 1358 (1993)
      Sc-Zn : Obtained from the ccRepo (grant-hill.group.shef.ac.uk/ccrepo) Feb. 2017
              N. B. Balabanov, K. A. Peterson, J. Chem. Phys. 123, 064107 (2005)
              N. B. Balabanov, K. A. Peterson, J. Chem. Phys. 125, 074110 (2006)
      Ga-Kr : Obtained from the ccRepo (grant-hill.group.shef.ac.uk/ccrepo) Feb. 2017
              A. K. Wilson, D. E. Woon, K. A. Peterson, T. H. Dunning, Jr., J. Chem. Phys. 110, 7667 (1999)

================================================================================
                                        WARNINGS
                       Please study these warnings very carefully!
================================================================================


WARNING: MDCI localization with Augmented Hessian Foster-Boys
  ===> : Switching off randomization!

WARNING: Post HF methods need fully converged wavefunctions
  ===> : Setting SCFConvForced true
         You can overwrite this default with %scf ConvForced false 


INFO   : the flag for use of LIBINT has been found!

================================================================================
                                       INPUT FILE
================================================================================
NAME = 18_Ar.in
|  1> #
|  2> # 18_Ar CCSD(T)/aug-cc-pV5Z
|  3> #
|  4> ! CCSD(T) aug-cc-pV5Z tightscf
|  5> 
|  6> *xyz 0 1
|  7>  Ar 0.0 0.0 0.0
|  8> *
|  9> 
| 10> %maxcore 5000 
| 11> 
| 12> %pal
| 13> nprocs 10
| 14> end
| 15> 
| 16> 
| 17>                          ****END OF INPUT****
================================================================================

                       ****************************
                       * Single Point Calculation *
                       ****************************

---------------------------------
CARTESIAN COORDINATES (ANGSTROEM)
---------------------------------
  Ar     0.000000    0.000000    0.000000

----------------------------
CARTESIAN COORDINATES (A.U.)
----------------------------
  NO LB      ZA    FRAG     MASS         X           Y           Z
   0 Ar   18.0000    0    39.948    0.000000    0.000000    0.000000

--------------------------------
INTERNAL COORDINATES (ANGSTROEM)
--------------------------------
 Ar     0   0   0     0.000000000000     0.00000000     0.00000000

---------------------------
INTERNAL COORDINATES (A.U.)
---------------------------
 Ar     0   0   0     0.000000000000     0.00000000     0.00000000

---------------------
BASIS SET INFORMATION
---------------------
There are 1 groups of distinct atoms

 Group   1 Type Ar  : 53s21p5d4f3g2h contracted to 8s7p5d4f3g2h pattern {16161611111/8811111/11111/1111/111/11}

Atom   0Ar   basis set group =>   1


           ************************************************************
           *        Program running with 10 parallel MPI-processes    *
           *              working on a common directory               *
           ************************************************************
------------------------------------------------------------------------------
                           ORCA GTO INTEGRAL CALCULATION
------------------------------------------------------------------------------

                         BASIS SET STATISTICS AND STARTUP INFO

 # of primitive gaussian shells          ...   88
 # of primitive gaussian functions       ...  218
 # of contracted shells                  ...   29
 # of contracted basis functions         ...  131
 Highest angular momentum                ...    5
 Maximum contraction depth               ...   16
 Integral package used                   ... LIBINT
 Integral threshhold            Thresh   ...  2.500e-11
 Primitive cut-off              TCut     ...  2.500e-12


------------------------------ INTEGRAL EVALUATION ----------------------------


 * One electron integrals 
 Pre-screening matrix                    ... done
 Shell pair data                         ... done (   0.000 sec)



           ************************************************************
           *        Program running with 10 parallel MPI-processes    *
           *              working on a common directory               *
           ************************************************************
-------------------------------------------------------------------------------
                                 ORCA SCF
-------------------------------------------------------------------------------

------------
SCF SETTINGS
------------
Hamiltonian:
 Ab initio Hamiltonian  Method          .... Hartree-Fock(GTOs)


General Settings:
 Integral files         IntName         .... 18_Ar
 Hartree-Fock type      HFTyp           .... RHF
 Total Charge           Charge          ....    0
 Multiplicity           Mult            ....    1
 Number of Electrons    NEL             ....   18
 Basis Dimension        Dim             ....  131
 Nuclear Repulsion      ENuc            ....      0.0000000000 Eh

Convergence Acceleration:
 DIIS                   CNVDIIS         .... on
   Start iteration      DIISMaxIt       ....    12
   Startup error        DIISStart       ....  0.200000
   # of expansion vecs  DIISMaxEq       ....     5
   Bias factor          DIISBfac        ....   1.050
   Max. coefficient     DIISMaxC        ....  10.000
 Newton-Raphson         CNVNR           .... off
 SOSCF                  CNVSOSCF        .... on
   Start iteration      SOSCFMaxIt      ....   150
   Startup grad/error   SOSCFStart      ....  0.003300
 Level Shifting         CNVShift        .... on
   Level shift para.    LevelShift      ....    0.2500
   Turn off err/grad.   ShiftErr        ....    0.0010
 Zerner damping         CNVZerner       .... off
 Static damping         CNVDamp         .... on
   Fraction old density DampFac         ....    0.7000
   Max. Damping (<1)    DampMax         ....    0.9800
   Min. Damping (>=0)   DampMin         ....    0.0000
   Turn off err/grad.   DampErr         ....    0.1000
 Fernandez-Rico         CNVRico         .... off

SCF Procedure:
 Maximum # iterations   MaxIter         ....   125
 SCF integral mode      SCFMode         .... Direct
   Integral package                     .... LIBINT
 Reset frequency        DirectResetFreq ....    20
 Integral Threshold     Thresh          ....  2.500e-11 Eh
 Primitive CutOff       TCut            ....  2.500e-12 Eh

Convergence Tolerance:
 Convergence Check Mode ConvCheckMode   .... Total+1el-Energy
 Convergence forced     ConvForced      .... 1
 Energy Change          TolE            ....  1.000e-08 Eh
 1-El. energy change                    ....  1.000e-05 Eh
 Orbital Gradient       TolG            ....  1.000e-05
 Orbital Rotation angle TolX            ....  1.000e-05
 DIIS Error             TolErr          ....  5.000e-07


Diagonalization of the overlap matrix:
Smallest eigenvalue                        ... 4.602e-05
Time for diagonalization                   ...    0.004 sec
Threshold for overlap eigenvalues          ... 1.000e-08
Number of eigenvalues below threshold      ... 0
Time for construction of square roots      ...    0.007 sec
Total time needed                          ...    0.011 sec

-------------------
DFT GRID GENERATION
-------------------

General Integration Accuracy     IntAcc      ...  4.340
Radial Grid Type                 RadialGrid  ... Gauss-Chebyshev
Angular Grid (max. acc.)         AngularGrid ... Lebedev-110
Angular grid pruning method      GridPruning ... 3 (G Style)
Weight generation scheme         WeightScheme... Becke
Basis function cutoff            BFCut       ...    1.0000e-11
Integration weight cutoff        WCut        ...    1.0000e-14
Grids for H and He will be reduced by one unit

# of grid points (after initial pruning)     ...   1904 (   0.0 sec)
# of grid points (after weights+screening)   ...   1904 (   0.0 sec)
Grid point division into batches done        ...    0.0 sec
Reduced shell lists constructed in    0.0 sec

Total number of grid points                  ...     1904
Total number of batches                      ...       30
Average number of points per batch           ...       63
Average number of grid points per atom       ...     1904
Average number of shells per batch           ...    13.50 (46.55%)
Average number of basis functions per batch  ...    69.00 (52.67%)
Average number of large shells per batch     ...    10.50 (77.78%)
Average number of large basis fcns per batch ...    51.00 (73.91%)
Maximum spatial batch extension              ...  16.21, 29.83, 29.83 au
Average spatial batch extension              ...   1.50,  2.53,  2.98 au

Time for grid setup =    0.028 sec

------------------------------
INITIAL GUESS: MODEL POTENTIAL
------------------------------
Loading Hartree-Fock densities                     ... done
Calculating cut-offs                               ... done
Setting up the integral package                    ... done
Initializing the effective Hamiltonian             ... done
Starting the Coulomb interaction                   ... done (   0.0 sec)
Reading the grid                                   ... done
Mapping shells                                     ... done
Starting the XC term evaluation                    ... done (   0.0 sec)
Transforming the Hamiltonian                       ... done (   0.0 sec)
Diagonalizing the Hamiltonian                      ... done (   0.0 sec)
Back transforming the eigenvectors                 ... done (   0.0 sec)
Now organizing SCF variables                       ... done
                      ------------------
                      INITIAL GUESS DONE (   0.1 sec)
                      ------------------
--------------
SCF ITERATIONS
--------------
ITER       Energy         Delta-E        Max-DP      RMS-DP      [F,P]     Damp
               ***  Starting incremental Fock matrix formation  ***
  0   -526.8000538968   0.000000000000 0.33096207  0.00500432  0.1619095 0.7000
  1   -526.8049983904  -0.004944493599 0.23965236  0.00362030  0.1168587 0.7000
                               ***Turning on DIIS***
  2   -526.8085761802  -0.003577789816 0.57545022  0.00868516  0.0839326 0.0000
  3   -526.8172888904  -0.008712710178 0.03949878  0.00058441  0.0051441 0.0000
                      *** Initiating the SOSCF procedure ***
                           *** Shutting down DIIS ***
                      *** Re-Reading the Fockian *** 
                      *** Removing any level shift *** 
ITER      Energy       Delta-E        Grad      Rot      Max-DP    RMS-DP
  4   -526.81538402   0.0019048659  0.000472  0.000472  0.001252  0.000024
               *** Restarting incremental Fock matrix formation ***
  5   -526.81736752  -0.0019834934  0.000070  0.000088  0.000167  0.000004
  6   -526.81736758  -0.0000000615  0.000016  0.000029  0.000049  0.000001
                  ***Gradient check signals convergence***
              ***Rediagonalizing the Fockian in SOSCF/NRSCF***

               *****************************************************
               *                     SUCCESS                       *
               *           SCF CONVERGED AFTER   7 CYCLES          *
               *****************************************************


----------------
TOTAL SCF ENERGY
----------------

Total Energy       :         -526.81736758 Eh          -14335.42937 eV

Components:
Nuclear Repulsion  :            0.00000000 Eh               0.00000 eV
Electronic Energy  :         -526.81736758 Eh          -14335.42937 eV
One Electron Energy:         -728.23989778 Eh          -19816.41507 eV
Two Electron Energy:          201.42253020 Eh            5480.98569 eV

Virial components:
Potential Energy   :        -1053.63540066 Eh          -28670.87685 eV
Kinetic Energy     :          526.81803308 Eh           14335.44748 eV
Virial Ratio       :            1.99999874


---------------
SCF CONVERGENCE
---------------

  Last Energy change         ...   -3.7878e-09  Tolerance :   1.0000e-08
  Last MAX-Density change    ...    1.1946e-05  Tolerance :   1.0000e-07
  Last RMS-Density change    ...    1.7944e-07  Tolerance :   5.0000e-09
  Last Orbital Gradient      ...    1.9944e-06  Tolerance :   1.0000e-05
  Last Orbital Rotation      ...    4.7113e-07  Tolerance :   1.0000e-05

             **** THE GBW FILE WAS UPDATED (18_Ar.gbw) ****
             **** DENSITY FILE WAS UPDATED (18_Ar.scfp) ****
             **** ENERGY FILE WAS UPDATED (18_Ar.en.tmp) ****
             **** THE GBW FILE WAS UPDATED (18_Ar.gbw) ****
             **** DENSITY FILE WAS UPDATED (18_Ar.scfp) ****
----------------
ORBITAL ENERGIES
----------------

  NO   OCC          E(Eh)            E(eV) 
   0   2.0000    -118.610366     -3227.5521 
   1   2.0000     -12.322180      -335.3036 
   2   2.0000      -9.571463      -260.4528 
   3   2.0000      -9.571463      -260.4528 
   4   2.0000      -9.571463      -260.4528 
   5   2.0000      -1.277375       -34.7591 
   6   2.0000      -0.591030       -16.0827 
   7   2.0000      -0.591030       -16.0827 
   8   2.0000      -0.591030       -16.0827 
   9   0.0000       0.098253         2.6736 
  10   0.0000       0.098253         2.6736 
  11   0.0000       0.098253         2.6736 
  12   0.0000       0.100192         2.7264 
  13   0.0000       0.320057         8.7092 
  14   0.0000       0.320057         8.7092 
  15   0.0000       0.320057         8.7092 
  16   0.0000       0.320057         8.7092 
  17   0.0000       0.320057         8.7092 
  18   0.0000       0.453647        12.3444 
  19   0.0000       0.453647        12.3444 
  20   0.0000       0.453647        12.3444 
  21   0.0000       0.598073        16.2744 
  22   0.0000       0.770657        20.9707 
  23   0.0000       0.770657        20.9707 
  24   0.0000       0.770657        20.9707 
  25   0.0000       0.770657        20.9707 
  26   0.0000       0.770657        20.9707 
  27   0.0000       0.770657        20.9707 
  28   0.0000       0.770657        20.9707 
  29   0.0000       0.780860        21.2483 
  30   0.0000       0.780860        21.2483 
  31   0.0000       0.780860        21.2483 
  32   0.0000       0.780860        21.2483 
  33   0.0000       0.780860        21.2483 
  34   0.0000       1.584481        43.1159 
  35   0.0000       1.584481        43.1159 
  36   0.0000       1.584481        43.1159 
  37   0.0000       1.602307        43.6010 
  38   0.0000       1.602307        43.6010 
  39   0.0000       1.602307        43.6010 
  40   0.0000       1.602307        43.6010 
  41   0.0000       1.602307        43.6010 
  42   0.0000       1.602307        43.6010 
  43   0.0000       1.602307        43.6010 
  44   0.0000       1.602307        43.6010 
  45   0.0000       1.602307        43.6010 
  46   0.0000       1.909041        51.9476 
  47   0.0000       1.909041        51.9476 
  48   0.0000       1.909041        51.9476 
  49   0.0000       1.909041        51.9476 
  50   0.0000       1.909041        51.9476 
  51   0.0000       1.909041        51.9476 
  52   0.0000       1.909041        51.9476 
  53   0.0000       1.938523        52.7499 
  54   0.0000       1.938523        52.7499 
  55   0.0000       1.938523        52.7499 
  56   0.0000       1.938523        52.7499 
  57   0.0000       1.938523        52.7499 
  58   0.0000       2.282767        62.1173 
  59   0.0000       3.917690       106.6058 
  60   0.0000       3.917690       106.6058 
  61   0.0000       3.917690       106.6058 
  62   0.0000       3.917690       106.6058 
  63   0.0000       3.917690       106.6058 
  64   0.0000       3.917690       106.6058 
  65   0.0000       3.917690       106.6058 
  66   0.0000       3.917690       106.6058 
  67   0.0000       3.917690       106.6058 
  68   0.0000       4.035225       109.8040 
  69   0.0000       4.035225       109.8040 
  70   0.0000       4.035225       109.8040 
  71   0.0000       4.035225       109.8040 
  72   0.0000       4.035225       109.8040 
  73   0.0000       4.035225       109.8040 
  74   0.0000       4.035225       109.8040 
  75   0.0000       4.135007       112.5193 
  76   0.0000       4.135007       112.5193 
  77   0.0000       4.135007       112.5193 
  78   0.0000       4.135007       112.5193 
  79   0.0000       4.135007       112.5193 
  80   0.0000       4.135007       112.5193 
  81   0.0000       4.135007       112.5193 
  82   0.0000       4.135007       112.5193 
  83   0.0000       4.135007       112.5193 
  84   0.0000       4.135007       112.5193 
  85   0.0000       4.135007       112.5193 
  86   0.0000       5.038953       137.1169 
  87   0.0000       5.038953       137.1169 
  88   0.0000       5.038953       137.1169 
  89   0.0000       5.068956       137.9333 
  90   0.0000       5.068956       137.9333 
  91   0.0000       5.068956       137.9333 
  92   0.0000       5.068956       137.9333 
  93   0.0000       5.068956       137.9333 
  94   0.0000       7.848151       213.5590 
  95   0.0000       8.133879       221.3341 
  96   0.0000       8.133879       221.3341 
  97   0.0000       8.133879       221.3341 
  98   0.0000       8.133879       221.3341 
  99   0.0000       8.133879       221.3341 
 100   0.0000       8.133879       221.3341 
 101   0.0000       8.133879       221.3341 
 102   0.0000       8.811961       239.7857 
 103   0.0000       8.811961       239.7857 
 104   0.0000       8.811961       239.7857 
 105   0.0000       8.811961       239.7857 
 106   0.0000       8.811961       239.7857 
 107   0.0000       8.811961       239.7857 
 108   0.0000       8.811961       239.7857 
 109   0.0000       8.811961       239.7857 
 110   0.0000       8.811961       239.7857 
 111   0.0000       9.242584       251.5035 
 112   0.0000       9.242584       251.5035 
 113   0.0000       9.242584       251.5035 
 114   0.0000       9.242584       251.5035 
 115   0.0000       9.242584       251.5035 
 116   0.0000       9.242584       251.5035 
 117   0.0000       9.242584       251.5035 
 118   0.0000       9.242584       251.5035 
 119   0.0000       9.242584       251.5035 
 120   0.0000       9.242584       251.5035 
 121   0.0000       9.242584       251.5035 
 122   0.0000      13.223504       359.8298 
 123   0.0000      13.223504       359.8298 
 124   0.0000      13.223504       359.8298 
 125   0.0000      13.223504       359.8298 
 126   0.0000      13.223504       359.8298 
 127   0.0000      55.129978      1500.1630 
 128   0.0000      55.129978      1500.1630 
 129   0.0000      55.129978      1500.1630 
 130   0.0000      91.756655      2496.8255 

                    ********************************
                    * MULLIKEN POPULATION ANALYSIS *
                    ********************************

-----------------------
MULLIKEN ATOMIC CHARGES
-----------------------
   0 Ar:   -0.000000
Sum of atomic charges:   -0.0000000

--------------------------------
MULLIKEN REDUCED ORBITAL CHARGES
--------------------------------
  0 Ars       :     6.000000  s :     6.000000
      pz      :     4.000000  p :    12.000000
      px      :     4.000000
      py      :     4.000000
      dz2     :     0.000000  d :     0.000000
      dxz     :     0.000000
      dyz     :     0.000000
      dx2y2   :     0.000000
      dxy     :     0.000000
      f0      :     0.000000  f :     0.000000
      f+1     :     0.000000
      f-1     :     0.000000
      f+2     :     0.000000
      f-2     :     0.000000
      f+3     :     0.000000
      f-3     :     0.000000
      g0      :     0.000000  g :     0.000000
      g+1     :     0.000000
      g-1     :     0.000000
      g+2     :     0.000000
      g-2     :     0.000000
      g+3     :     0.000000
      g-3     :     0.000000
      g+4     :     0.000000
      g-4     :     0.000000
      h0      :     0.000000  h :     0.000000
      h+1     :     0.000000
      h-1     :     0.000000
      h+2     :     0.000000
      h-2     :     0.000000
      h+3     :     0.000000
      h-3     :     0.000000
      h+4     :     0.000000
      h-4     :     0.000000
      h+5     :     0.000000
      h-5     :     0.000000


                     *******************************
                     * LOEWDIN POPULATION ANALYSIS *
                     *******************************

----------------------
LOEWDIN ATOMIC CHARGES
----------------------
   0 Ar:   -0.000000

-------------------------------
LOEWDIN REDUCED ORBITAL CHARGES
-------------------------------
  0 Ars       :     6.000000  s :     6.000000
      pz      :     4.000000  p :    12.000000
      px      :     4.000000
      py      :     4.000000
      dz2     :     0.000000  d :     0.000000
      dxz     :     0.000000
      dyz     :     0.000000
      dx2y2   :     0.000000
      dxy     :     0.000000
      f0      :     0.000000  f :     0.000000
      f+1     :     0.000000
      f-1     :     0.000000
      f+2     :     0.000000
      f-2     :     0.000000
      f+3     :     0.000000
      f-3     :     0.000000
      g0      :     0.000000  g :     0.000000
      g+1     :     0.000000
      g-1     :     0.000000
      g+2     :     0.000000
      g-2     :     0.000000
      g+3     :     0.000000
      g-3     :     0.000000
      g+4     :     0.000000
      g-4     :     0.000000
      h0      :     0.000000  h :     0.000000
      h+1     :     0.000000
      h-1     :     0.000000
      h+2     :     0.000000
      h-2     :     0.000000
      h+3     :     0.000000
      h-3     :     0.000000
      h+4     :     0.000000
      h-4     :     0.000000
      h+5     :     0.000000
      h-5     :     0.000000


                      *****************************
                      * MAYER POPULATION ANALYSIS *
                      *****************************

  NA   - Mulliken gross atomic population
  ZA   - Total nuclear charge
  QA   - Mulliken gross atomic charge
  VA   - Mayer's total valence
  BVA  - Mayer's bonded valence
  FA   - Mayer's free valence

  ATOM       NA         ZA         QA         VA         BVA        FA
  0 Ar    18.0000    18.0000    -0.0000    -0.0000     0.0000    -0.0000

  Mayer bond orders larger than 0.100000


--------------------------
ATOM BASIS FOR ELEMENT Ar
--------------------------
 NewGTO Ar
 S 53
    1    7401000.000000000000         0.000001750045
    2    1108000.000000000000         0.000013610348
    3     252100.000000000000         0.000071631832
    4      71380.000000000000         0.000303037752
    5      23260.000000000000         0.001106108294
    6       8390.000000000000         0.003606802262
    7       3271.000000000000         0.010713484052
    8       1357.000000000000         0.029107514572
    9        592.000000000000         0.071661943118
   10        269.100000000000         0.154144443026
   11        126.500000000000         0.270424017467
   12         61.030000000000         0.334863265828
   13         29.860000000000         0.224352038942
   14         14.170000000000         0.050004119109
   15          7.022000000000         0.000064591652
   16          3.511000000000         0.001686453140
   17    7401000.000000000000        -0.000000000088
   18    1108000.000000000000        -0.000000000681
   19     252100.000000000000        -0.000000003581
   20      71380.000000000000        -0.000000015158
   21      23260.000000000000        -0.000000055365
   22       8390.000000000000        -0.000000181077
   23       3271.000000000000        -0.000000541021
   24       1357.000000000000        -0.000001492293
   25        592.000000000000        -0.000003789151
   26        269.100000000000        -0.000008706797
   27        126.500000000000        -0.000017391986
   28         61.030000000000        -0.000027874141
   29         29.860000000000        -0.000026658307
   30         14.170000000000         0.000010255082
   31          7.022000000000         0.000075603679
   32          3.511000000000         0.000087877139
   33    7401000.000000000000         0.000000000055
   34    1108000.000000000000         0.000000000413
   35     252100.000000000000         0.000000002171
   36      71380.000000000000         0.000000009180
   37      23260.000000000000         0.000000033572
   38       8390.000000000000         0.000000109683
   39       3271.000000000000         0.000000328410
   40       1357.000000000000         0.000000905499
   41        592.000000000000         0.000002311276
   42        269.100000000000         0.000005331457
   43        126.500000000000         0.000010827500
   44         61.030000000000         0.000017750989
   45         29.860000000000         0.000017914074
   46         14.170000000000        -0.000007729393
   47          7.022000000000        -0.000063518340
   48          3.511000000000        -0.000119533409
   49          1.758000000000        -0.000551008915
   50          0.784100000000         0.000185445082
   51          0.348000000000        -0.000117646931
   52          0.149100000000         0.000034215816
   53          0.053800000000        -0.000008264731
 S 51
    1    7401000.000000000000        -0.000000000004
    2    1108000.000000000000        -0.000000000029
    3     252100.000000000000        -0.000000000152
    4      71380.000000000000        -0.000000000645
    5      23260.000000000000        -0.000000002354
    6       8390.000000000000        -0.000000007677
    7       3271.000000000000        -0.000000022803
    8       1357.000000000000        -0.000000061953
    9        592.000000000000        -0.000000152526
   10        269.100000000000        -0.000000328082
   11        126.500000000000        -0.000000575572
   12         61.030000000000        -0.000000712725
   13         29.860000000000        -0.000000477512
   14         14.170000000000        -0.000000106429
   15    7401000.000000000000         0.000000500007
   16    1108000.000000000000         0.000003870053
   17     252100.000000000000         0.000020340277
   18      71380.000000000000         0.000086091174
   19      23260.000000000000         0.000314444288
   20       8390.000000000000         0.001028424023
   21       3271.000000000000         0.003072711898
   22       1357.000000000000         0.008475435568
   23        592.000000000000         0.021520373444
   24        269.100000000000         0.049449994283
   25        126.500000000000         0.098777266892
   26         61.030000000000         0.158310358664
   27         29.860000000000         0.151405064506
   28         14.170000000000        -0.058243434187
   29          7.022000000000        -0.429388854995
   30          3.511000000000        -0.499095605492
   31    7401000.000000000000        -0.000000000004
   32    1108000.000000000000        -0.000000000030
   33     252100.000000000000        -0.000000000156
   34      71380.000000000000        -0.000000000658
   35      23260.000000000000        -0.000000002406
   36       8390.000000000000        -0.000000007860
   37       3271.000000000000        -0.000000023535
   38       1357.000000000000        -0.000000064892
   39        592.000000000000        -0.000000165636
   40        269.100000000000        -0.000000382075
   41        126.500000000000        -0.000000775946
   42         61.030000000000        -0.000001272113
   43         29.860000000000        -0.000001283801
   44         14.170000000000         0.000000553922
   45          7.022000000000         0.000004552001
   46          3.511000000000         0.000008566285
   47          1.758000000000        -0.160281766801
   48          0.784100000000        -0.008830188501
   49          0.348000000000        -0.001146845451
   50          0.149100000000        -0.000208340794
   51          0.053800000000        -0.000007820841
 S 51
    1    7401000.000000000000         0.000000000054
    2    1108000.000000000000         0.000000000422
    3     252100.000000000000         0.000000002222
    4      71380.000000000000         0.000000009400
    5      23260.000000000000         0.000000034309
    6       8390.000000000000         0.000000111876
    7       3271.000000000000         0.000000332311
    8       1357.000000000000         0.000000902858
    9        592.000000000000         0.000002222813
   10        269.100000000000         0.000004781259
   11        126.500000000000         0.000008388024
   12         61.030000000000         0.000010386804
   13         29.860000000000         0.000006958962
   14         14.170000000000         0.000001551030
   15    7401000.000000000000        -0.000000000148
   16    1108000.000000000000        -0.000000001143
   17     252100.000000000000        -0.000000006005
   18      71380.000000000000        -0.000000025417
   19      23260.000000000000        -0.000000092834
   20       8390.000000000000        -0.000000303625
   21       3271.000000000000        -0.000000907166
   22       1357.000000000000        -0.000002502227
   23        592.000000000000        -0.000006353521
   24        269.100000000000        -0.000014599263
   25        126.500000000000        -0.000029162295
   26         61.030000000000        -0.000046738421
   27         29.860000000000        -0.000044699751
   28         14.170000000000         0.000017195376
   29          7.022000000000         0.000126769702
   30          3.511000000000         0.000147349425
   31    7401000.000000000000         0.000000160112
   32    1108000.000000000000         0.000001210846
   33     252100.000000000000         0.000006364446
   34      71380.000000000000         0.000026908797
   35      23260.000000000000         0.000098408745
   36       8390.000000000000         0.000321514598
   37       3271.000000000000         0.000962672486
   38       1357.000000000000         0.002654304194
   39        592.000000000000         0.006775082810
   40        269.100000000000         0.015628187246
   41        126.500000000000         0.031738831518
   42         61.030000000000         0.052033768775
   43         29.860000000000         0.052511822725
   44         14.170000000000        -0.022657297510
   45          7.022000000000        -0.186192366773
   46          3.511000000000        -0.350390269065
   47          1.758000000000        -0.127324380681
   48          0.784100000000         0.452517116558
   49          0.348000000000         0.611320368950
   50          0.149100000000         0.186482961098
   51          0.053800000000         0.000928545194
 S 53
    1    7401000.000000000000        -0.000000015026
    2    1108000.000000000000        -0.000000116860
    3     252100.000000000000        -0.000000615040
    4      71380.000000000000        -0.000002601921
    5      23260.000000000000        -0.000009497188
    6       8390.000000000000        -0.000030968469
    7       3271.000000000000        -0.000091987356
    8       1357.000000000000        -0.000249920873
    9        592.000000000000        -0.000615298684
   10        269.100000000000        -0.001323504064
   11        126.500000000000        -0.002321895484
   12         61.030000000000        -0.002875179180
   13         29.860000000000        -0.001926315536
   14         14.170000000000        -0.000429341815
   15          7.022000000000        -0.000000554592
   16          3.511000000000        -0.000014480104
   17    7401000.000000000000         0.000000037838
   18    1108000.000000000000         0.000000292868
   19     252100.000000000000         0.000001539259
   20      71380.000000000000         0.000006514987
   21      23260.000000000000         0.000023795708
   22       8390.000000000000         0.000077826434
   23       3271.000000000000         0.000232528806
   24       1357.000000000000         0.000641382263
   25        592.000000000000         0.001628563594
   26        269.100000000000         0.003742149765
   27        126.500000000000         0.007475012513
   28         61.030000000000         0.011980205054
   29         29.860000000000         0.011457643923
   30         14.170000000000        -0.004407597143
   31          7.022000000000        -0.032494187834
   32          3.511000000000        -0.037769276411
   33    7401000.000000000000         0.000000006188
   34    1108000.000000000000         0.000000046794
   35     252100.000000000000         0.000000245958
   36      71380.000000000000         0.000001039907
   37      23260.000000000000         0.000003803068
   38       8390.000000000000         0.000012425135
   39       3271.000000000000         0.000037203087
   40       1357.000000000000         0.000102577263
   41        592.000000000000         0.000261827357
   42        269.100000000000         0.000603961172
   43        126.500000000000         0.001226567201
   44         61.030000000000         0.002010877876
   45         29.860000000000         0.002029352573
   46         14.170000000000        -0.000875605580
   47          7.022000000000        -0.007195521674
   48          3.511000000000        -0.013541053370
   49          1.758000000000        -0.147042297729
   50          0.784100000000         0.440432174805
   51          0.348000000000        -0.533638438086
   52          0.149100000000         1.497225180049
   53          0.053800000000        -1.822152271302
 S 53
    1    7401000.000000000000         0.000000063380
    2    1108000.000000000000         0.000000492914
    3     252100.000000000000         0.000002594228
    4      71380.000000000000         0.000010974856
    5      23260.000000000000         0.000040058968
    6       8390.000000000000         0.000130624440
    7       3271.000000000000         0.000388000991
    8       1357.000000000000         0.001054161694
    9        592.000000000000         0.002595318648
   10        269.100000000000         0.005582516047
   11        126.500000000000         0.009793712880
   12         61.030000000000         0.012127453435
   13         29.860000000000         0.008125163860
   14         14.170000000000         0.001810955957
   15          7.022000000000         0.000002339260
   16          3.511000000000         0.000061076816
   17    7401000.000000000000        -0.000000193908
   18    1108000.000000000000        -0.000001500845
   19     252100.000000000000        -0.000007888161
   20      71380.000000000000        -0.000033387011
   21      23260.000000000000        -0.000121944614
   22       8390.000000000000        -0.000398833039
   23       3271.000000000000        -0.001191628158
   24       1357.000000000000        -0.003286857996
   25        592.000000000000        -0.008345814319
   26        269.100000000000        -0.019177198363
   27        126.500000000000        -0.038306804043
   28         61.030000000000        -0.061394327644
   29         29.860000000000        -0.058716386064
   30         14.170000000000         0.022587381595
   31          7.022000000000         0.166521257817
   32          3.511000000000         0.193554227202
   33    7401000.000000000000         0.000000233673
   34    1108000.000000000000         0.000001767152
   35     252100.000000000000         0.000009288502
   36      71380.000000000000         0.000039271669
   37      23260.000000000000         0.000143621268
   38       8390.000000000000         0.000469229990
   39       3271.000000000000         0.001404958917
   40       1357.000000000000         0.003873787193
   41        592.000000000000         0.009887800004
   42        269.100000000000         0.022808339653
   43        126.500000000000         0.046320794476
   44         61.030000000000         0.075939957269
   45         29.860000000000         0.076637646431
   46         14.170000000000        -0.033066876478
   47          7.022000000000        -0.271735849805
   48          3.511000000000        -0.511372185542
   49          1.758000000000         0.434863724255
   50          0.784100000000        -1.112134275662
   51          0.348000000000         3.927282326674
   52          0.149100000000        -4.584131200620
   53          0.053800000000         1.681042634098
 S 53
    1    7401000.000000000000        -0.000000201099
    2    1108000.000000000000        -0.000001563972
    3     252100.000000000000        -0.000008231251
    4      71380.000000000000        -0.000034822225
    5      23260.000000000000        -0.000127103478
    6       8390.000000000000        -0.000414459520
    7       3271.000000000000        -0.001231092014
    8       1357.000000000000        -0.003344759609
    9        592.000000000000        -0.008234711084
   10        269.100000000000        -0.017712817965
   11        126.500000000000        -0.031074564225
   12         61.030000000000        -0.038479311705
   13         29.860000000000        -0.025780409257
   14         14.170000000000        -0.005745999284
   15          7.022000000000        -0.000007422260
   16          3.511000000000        -0.000193791206
   17    7401000.000000000000         0.000000520580
   18    1108000.000000000000         0.000004029285
   19     252100.000000000000         0.000021177174
   20      71380.000000000000         0.000089633380
   21      23260.000000000000         0.000327382041
   22       8390.000000000000         0.001070738342
   23       3271.000000000000         0.003199138069
   24       1357.000000000000         0.008824155819
   25        592.000000000000         0.022405825285
   26        269.100000000000         0.051484605281
   27        126.500000000000         0.102841439527
   28         61.030000000000         0.164824009505
   29         29.860000000000         0.157634598277
   30         14.170000000000        -0.060639849666
   31          7.022000000000        -0.447055981138
   32          3.511000000000        -0.519630803173
   33    7401000.000000000000        -0.000000226348
   34    1108000.000000000000        -0.000001711758
   35     252100.000000000000        -0.000008997340
   36      71380.000000000000        -0.000038040640
   37      23260.000000000000        -0.000139119248
   38       8390.000000000000        -0.000454521285
   39       3271.000000000000        -0.001360918410
   40       1357.000000000000        -0.003752357628
   41        592.000000000000        -0.009577852350
   42        269.100000000000        -0.022093378653
   43        126.500000000000        -0.044868800949
   44         61.030000000000        -0.073559507458
   45         29.860000000000        -0.074235326526
   46         14.170000000000         0.032030346531
   47          7.022000000000         0.263217889360
   48          3.511000000000         0.495342471198
   49          1.758000000000        -2.099883735785
   50          0.784100000000         6.623532999865
   51          0.348000000000        -7.481728469551
   52          0.149100000000         3.949525557156
   53          0.053800000000        -0.946423503803
 S 53
    1    7401000.000000000000        -0.000000778064
    2    1108000.000000000000        -0.000006051119
    3     252100.000000000000        -0.000031847291
    4      71380.000000000000        -0.000134729646
    5      23260.000000000000        -0.000491772322
    6       8390.000000000000        -0.001603573115
    7       3271.000000000000        -0.004763181828
    8       1357.000000000000        -0.012941110829
    9        592.000000000000        -0.031860677964
   10        269.100000000000        -0.068532141964
   11        126.500000000000        -0.120229680627
   12         61.030000000000        -0.148879170871
   13         29.860000000000        -0.099746221666
   14         14.170000000000        -0.022231676487
   15          7.022000000000        -0.000028717249
   16          3.511000000000        -0.000749791843
   17    7401000.000000000000         0.000002958764
   18    1108000.000000000000         0.000022900830
   19     252100.000000000000         0.000120362501
   20      71380.000000000000         0.000509439905
   21      23260.000000000000         0.001860707212
   22       8390.000000000000         0.006085644013
   23       3271.000000000000         0.018182607900
   24       1357.000000000000         0.050152935522
   25        592.000000000000         0.127345655937
   26        269.100000000000         0.292617689666
   27        126.500000000000         0.584509180410
   28         61.030000000000         0.936793058815
   29         29.860000000000         0.895931350896
   30         14.170000000000        -0.344652398796
   31          7.022000000000        -2.540885525660
   32          3.511000000000        -2.953371484058
   33    7401000.000000000000        -0.000002757260
   34    1108000.000000000000        -0.000020851778
   35     252100.000000000000        -0.000109601080
   36      71380.000000000000        -0.000463391989
   37      23260.000000000000        -0.001694680855
   38       8390.000000000000        -0.005536750171
   39       3271.000000000000        -0.016578025038
   40       1357.000000000000        -0.045709337330
   41        592.000000000000        -0.116672590245
   42        269.100000000000        -0.269130450191
   43        126.500000000000        -0.546569213720
   44         61.030000000000        -0.896065000692
   45         29.860000000000        -0.904297489383
   46         14.170000000000         0.390177605566
   47          7.022000000000         3.206388220382
   48          3.511000000000         6.034013374122
   49          1.758000000000        -8.364128938824
   50          0.784100000000         8.585738762578
   51          0.348000000000        -5.411313476712
   52          0.149100000000         2.201352050072
   53          0.053800000000        -0.492469205191
 S 53
    1    7401000.000000000000        -0.000017001730
    2    1108000.000000000000        -0.000132224880
    3     252100.000000000000        -0.000695905080
    4      71380.000000000000        -0.002944019494
    5      23260.000000000000        -0.010745870317
    6       8390.000000000000        -0.035040176055
    7       3271.000000000000        -0.104081771063
    8       1357.000000000000        -0.282780247147
    9        592.000000000000        -0.696197606823
   10        269.100000000000        -1.497517199102
   11        126.500000000000        -2.627176233250
   12         61.030000000000        -3.253205176123
   13         29.860000000000        -2.179585785727
   14         14.170000000000        -0.485791293683
   15          7.022000000000        -0.000627509551
   16          3.511000000000        -0.016383935304
   17    7401000.000000000000         0.000033440012
   18    1108000.000000000000         0.000258825693
   19     252100.000000000000         0.001360339689
   20      71380.000000000000         0.005757701272
   21      23260.000000000000         0.021029754767
   22       8390.000000000000         0.068780085547
   23       3271.000000000000         0.205500243540
   24       1357.000000000000         0.566829605547
   25        592.000000000000         1.439263468252
   26        269.100000000000         3.307171711532
   27        126.500000000000         6.606135906510
   28         61.030000000000        10.587656225475
   29         29.860000000000        10.125836283310
   30         14.170000000000        -3.895269164731
   31          7.022000000000       -28.717145372527
   32          3.511000000000       -33.379070953904
   33    7401000.000000000000        -0.000020673063
   34    1108000.000000000000        -0.000156340036
   35     252100.000000000000        -0.000821754241
   36      71380.000000000000        -0.003474366595
   37      23260.000000000000        -0.012706181145
   38       8390.000000000000        -0.041512801914
   39       3271.000000000000        -0.124296789322
   40       1357.000000000000        -0.342714156795
   41        592.000000000000        -0.874774186678
   42        269.100000000000        -2.017855009325
   43        126.500000000000        -4.098003124749
   44         61.030000000000        -6.718412015606
   45         29.860000000000        -6.780136612483
   46         14.170000000000         2.925428302000
   47          7.022000000000        24.040484931202
   48          3.511000000000        45.241124163671
   49          1.758000000000       -12.066722785198
   50          0.784100000000         7.950955989610
   51          0.348000000000        -4.373658944656
   52          0.149100000000         1.761780889079
   53          0.053800000000        -0.403901661594
 P 21
    1       2927.000000000000         0.000231994353
    2        693.500000000000         0.002023327960
    3        224.700000000000         0.011034217016
    4         85.170000000000         0.043840522505
    5         35.530000000000         0.130361445750
    6         15.730000000000         0.275755073522
    7          7.165000000000         0.387650572827
    8          3.322000000000         0.287412792236
    9       2927.000000000000        -0.000000004835
   10        693.500000000000        -0.000000042107
   11        224.700000000000        -0.000000231638
   12         85.170000000000        -0.000000928795
   13         35.530000000000        -0.000002847146
   14         15.730000000000        -0.000006188115
   15          7.165000000000        -0.000009280335
   16          3.322000000000        -0.000006204349
   17          1.478000000000         0.065786706683
   18          0.655200000000         0.000070214314
   19          0.275100000000         0.001269951434
   20          0.109700000000        -0.000414589213
   21          0.040200000000         0.000118458306
 P 21
    1       2927.000000000000        -0.000000019451
    2        693.500000000000        -0.000000169637
    3        224.700000000000        -0.000000925116
    4         85.170000000000        -0.000003675618
    5         35.530000000000        -0.000010929589
    6         15.730000000000        -0.000023119487
    7          7.165000000000        -0.000032500879
    8          3.322000000000        -0.000024096878
    9       2927.000000000000         0.000064930878
   10        693.500000000000         0.000565491832
   11        224.700000000000         0.003110880291
   12         85.170000000000         0.012473650854
   13         35.530000000000         0.038236944940
   14         15.730000000000         0.083105902379
   15          7.165000000000         0.124634175633
   16          3.322000000000         0.083323922482
   17          1.478000000000        -0.164136939051
   18          0.655200000000        -0.430899421863
   19          0.275100000000        -0.430245266539
   20          0.109700000000        -0.151929633949
   21          0.040200000000        -0.001975604592
 P 21
    1       2927.000000000000         0.000002660992
    2        693.500000000000         0.000023207722
    3        224.700000000000         0.000126563288
    4         85.170000000000         0.000502854048
    5         35.530000000000         0.001495255460
    6         15.730000000000         0.003162931164
    7          7.165000000000         0.004446380847
    8          3.322000000000         0.003296646063
    9       2927.000000000000         0.000007723552
   10        693.500000000000         0.000067265460
   11        224.700000000000         0.000370040346
   12         85.170000000000         0.001483745323
   13         35.530000000000         0.004548298559
   14         15.730000000000         0.009885477426
   15          7.165000000000         0.014825280690
   16          3.322000000000         0.009911410997
   17          1.478000000000        -0.005515763640
   18          0.655200000000        -0.163290321840
   19          0.275100000000         0.151729927345
   20          0.109700000000        -0.672008126220
   21          0.040200000000         1.372963654909
 P 21
    1       2927.000000000000        -0.000014708939
    2        693.500000000000        -0.000128283330
    3        224.700000000000        -0.000699593013
    4         85.170000000000        -0.002779583106
    5         35.530000000000        -0.008265195112
    6         15.730000000000        -0.017483462789
    7          7.165000000000        -0.024577877312
    8          3.322000000000        -0.018222587146
    9       2927.000000000000         0.000046939769
   10        693.500000000000         0.000408804818
   11        224.700000000000         0.002248914624
   12         85.170000000000         0.009017439822
   13         35.530000000000         0.027642215900
   14         15.730000000000         0.060078839972
   15          7.165000000000         0.090100419809
   16          3.322000000000         0.060236450858
   17          1.478000000000        -0.191887330066
   18          0.655200000000         0.142416208326
   19          0.275100000000        -1.397264383515
   20          0.109700000000         2.423395679324
   21          0.040200000000        -1.050377446982
 P 21
    1       2927.000000000000         0.000036084250
    2        693.500000000000         0.000314707110
    3        224.700000000000         0.001716254909
    4         85.170000000000         0.006818926240
    5         35.530000000000         0.020276334139
    6         15.730000000000         0.042890764053
    7          7.165000000000         0.060294916941
    8          3.322000000000         0.044703998009
    9       2927.000000000000         0.000024548746
   10        693.500000000000         0.000213798362
   11        224.700000000000         0.001176146276
   12         85.170000000000         0.004715976389
   13         35.530000000000         0.014456435540
   14         15.730000000000         0.031420269653
   15          7.165000000000         0.047121074368
   16          3.322000000000         0.031502697619
   17          1.478000000000         0.151627608827
   18          0.655200000000        -2.254633586381
   19          0.275100000000         3.242571244034
   20          0.109700000000        -1.877257534777
   21          0.040200000000         0.552209256676
 P 21
    1       2927.000000000000        -0.000285159690
    2        693.500000000000        -0.002487006977
    3        224.700000000000        -0.013562890071
    4         85.170000000000        -0.053887302246
    5         35.530000000000        -0.160235923911
    6         15.730000000000        -0.338948902606
    7          7.165000000000        -0.476487103486
    8          3.322000000000        -0.353278180086
    9       2927.000000000000         0.000421598332
   10        693.500000000000         0.003671757093
   11        224.700000000000         0.020199048220
   12         85.170000000000         0.080991825937
   13         35.530000000000         0.248273743212
   14         15.730000000000         0.539609362062
   15          7.165000000000         0.809253808448
   16          3.322000000000         0.541024973777
   17          1.478000000000        -2.767159377551
   18          0.655200000000         3.607627752495
   19          0.275100000000        -2.300642396213
   20          0.109700000000         0.991227745743
   21          0.040200000000        -0.276474102771
 P 21
    1       2927.000000000000         0.025120421271
    2        693.500000000000         0.219086586286
    3        224.700000000000         1.194788480120
    4         85.170000000000         4.747065530295
    5         35.530000000000        14.115578242179
    6         15.730000000000        29.858845869661
    7          7.165000000000        41.974925637712
    8          3.322000000000        31.121147309210
    9       2927.000000000000        -0.022965933773
   10        693.500000000000        -0.200013434309
   11        224.700000000000        -1.100312711769
   12         85.170000000000        -4.411907663054
   13         35.530000000000       -13.524338012370
   14         15.730000000000       -29.394406805832
   15          7.165000000000       -44.082881667904
   16          3.322000000000       -29.471520120664
   17          1.478000000000        -0.590457305355
   18          0.655200000000         0.107819921804
   19          0.275100000000         0.008745859015
   20          0.109700000000        -0.014554819931
   21          0.040200000000         0.005319208937
 D 5
    1          0.309000000000        -0.168098848844
    2          0.770000000000         0.189770229915
    3          1.917000000000         0.006405665530
    4          4.776000000000         0.025244653725
    5          0.121000000000         1.054867982853
 D 5
    1          0.309000000000         1.197890217586
    2          0.770000000000         0.057800084718
    3          1.917000000000         0.186146680382
    4          4.776000000000         0.043536218544
    5          0.121000000000        -0.903067202846
 D 5
    1          0.309000000000        -1.667868116465
    2          0.770000000000         1.350412337928
    3          1.917000000000         0.039200984288
    4          4.776000000000         0.168143793801
    5          0.121000000000         0.654847353280
 D 5
    1          0.309000000000         1.119807477976
    2          0.770000000000        -1.918842914639
    3          1.917000000000         1.412233999251
    4          4.776000000000         0.134485760481
    5          0.121000000000        -0.362428263508
 D 5
    1          0.309000000000        -0.606512711191
    2          0.770000000000         1.295149868384
    3          1.917000000000        -2.017522577411
    4          4.776000000000         1.612370487783
    5          0.121000000000         0.192207749603
 F 4
    1          0.408000000000         0.698152213353
    2          0.825000000000        -0.278595771494
    3          1.668000000000         0.061836348952
    4          0.209000000000        -1.410457594922
 F 4
    1          0.408000000000         2.044506091272
    2          0.825000000000        -0.544874654783
    3          1.668000000000         0.189970139492
    4          0.209000000000        -1.148940121116
 F 4
    1          0.408000000000        -2.050854311129
    2          0.825000000000         2.060629150234
    3          1.668000000000        -0.195455846735
    4          0.209000000000         0.796410765673
 F 4
    1          0.408000000000         1.499653233940
    2          0.825000000000        -2.417726778716
    3          1.668000000000         1.930179933896
    4          0.209000000000        -0.511226353943
 G 3
    1          0.665000000000        -0.419543846366
    2          1.562000000000         0.088355343043
    3          0.334000000000         1.255952068138
 G 3
    1          0.665000000000        -1.570360637658
    2          1.562000000000         0.176832520238
    3          0.334000000000         0.864145548608
 G 3
    1          0.665000000000        -1.113827104128
    2          1.562000000000         1.375661578684
    3          0.334000000000         0.468730871977
 H 2
    1          1.264000000000         0.446469791278
    2          0.742000000000        -1.318317281286
 H 2
    1          1.264000000000         1.591441794528
    2          0.742000000000        -0.997026481974
 end
  // -----------------------------------------------
  // The basis set
  // -----------------------------------------------
  BAS[ATNO] = new BFNGauss[NSH];
  // Basis function   1 L = s
  InitBFNGauss(BAS[ATNO][  0]);
  BAS[ATNO][  0].l  = 0;
  BAS[ATNO][  0].ng = 53;
  BAS[ATNO][  0].a[  0] =   7401000.000000000000;     BAS[ATNO][  0].d[  0] =         0.000001750045;
  BAS[ATNO][  0].a[  1] =   1108000.000000000000;     BAS[ATNO][  0].d[  1] =         0.000013610348;
  BAS[ATNO][  0].a[  2] =    252100.000000000000;     BAS[ATNO][  0].d[  2] =         0.000071631832;
  BAS[ATNO][  0].a[  3] =     71380.000000000000;     BAS[ATNO][  0].d[  3] =         0.000303037752;
  BAS[ATNO][  0].a[  4] =     23260.000000000000;     BAS[ATNO][  0].d[  4] =         0.001106108294;
  BAS[ATNO][  0].a[  5] =      8390.000000000000;     BAS[ATNO][  0].d[  5] =         0.003606802262;
  BAS[ATNO][  0].a[  6] =      3271.000000000000;     BAS[ATNO][  0].d[  6] =         0.010713484052;
  BAS[ATNO][  0].a[  7] =      1357.000000000000;     BAS[ATNO][  0].d[  7] =         0.029107514572;
  BAS[ATNO][  0].a[  8] =       592.000000000000;     BAS[ATNO][  0].d[  8] =         0.071661943118;
  BAS[ATNO][  0].a[  9] =       269.100000000000;     BAS[ATNO][  0].d[  9] =         0.154144443026;
  BAS[ATNO][  0].a[ 10] =       126.500000000000;     BAS[ATNO][  0].d[ 10] =         0.270424017467;
  BAS[ATNO][  0].a[ 11] =        61.030000000000;     BAS[ATNO][  0].d[ 11] =         0.334863265828;
  BAS[ATNO][  0].a[ 12] =        29.860000000000;     BAS[ATNO][  0].d[ 12] =         0.224352038942;
  BAS[ATNO][  0].a[ 13] =        14.170000000000;     BAS[ATNO][  0].d[ 13] =         0.050004119109;
  BAS[ATNO][  0].a[ 14] =         7.022000000000;     BAS[ATNO][  0].d[ 14] =         0.000064591652;
  BAS[ATNO][  0].a[ 15] =         3.511000000000;     BAS[ATNO][  0].d[ 15] =         0.001686453140;
  BAS[ATNO][  0].a[ 16] =   7401000.000000000000;     BAS[ATNO][  0].d[ 16] =        -0.000000000088;
  BAS[ATNO][  0].a[ 17] =   1108000.000000000000;     BAS[ATNO][  0].d[ 17] =        -0.000000000681;
  BAS[ATNO][  0].a[ 18] =    252100.000000000000;     BAS[ATNO][  0].d[ 18] =        -0.000000003581;
  BAS[ATNO][  0].a[ 19] =     71380.000000000000;     BAS[ATNO][  0].d[ 19] =        -0.000000015158;
  BAS[ATNO][  0].a[ 20] =     23260.000000000000;     BAS[ATNO][  0].d[ 20] =        -0.000000055365;
  BAS[ATNO][  0].a[ 21] =      8390.000000000000;     BAS[ATNO][  0].d[ 21] =        -0.000000181077;
  BAS[ATNO][  0].a[ 22] =      3271.000000000000;     BAS[ATNO][  0].d[ 22] =        -0.000000541021;
  BAS[ATNO][  0].a[ 23] =      1357.000000000000;     BAS[ATNO][  0].d[ 23] =        -0.000001492293;
  BAS[ATNO][  0].a[ 24] =       592.000000000000;     BAS[ATNO][  0].d[ 24] =        -0.000003789151;
  BAS[ATNO][  0].a[ 25] =       269.100000000000;     BAS[ATNO][  0].d[ 25] =        -0.000008706797;
  BAS[ATNO][  0].a[ 26] =       126.500000000000;     BAS[ATNO][  0].d[ 26] =        -0.000017391986;
  BAS[ATNO][  0].a[ 27] =        61.030000000000;     BAS[ATNO][  0].d[ 27] =        -0.000027874141;
  BAS[ATNO][  0].a[ 28] =        29.860000000000;     BAS[ATNO][  0].d[ 28] =        -0.000026658307;
  BAS[ATNO][  0].a[ 29] =        14.170000000000;     BAS[ATNO][  0].d[ 29] =         0.000010255082;
  BAS[ATNO][  0].a[ 30] =         7.022000000000;     BAS[ATNO][  0].d[ 30] =         0.000075603679;
  BAS[ATNO][  0].a[ 31] =         3.511000000000;     BAS[ATNO][  0].d[ 31] =         0.000087877139;
  BAS[ATNO][  0].a[ 32] =   7401000.000000000000;     BAS[ATNO][  0].d[ 32] =         0.000000000055;
  BAS[ATNO][  0].a[ 33] =   1108000.000000000000;     BAS[ATNO][  0].d[ 33] =         0.000000000413;
  BAS[ATNO][  0].a[ 34] =    252100.000000000000;     BAS[ATNO][  0].d[ 34] =         0.000000002171;
  BAS[ATNO][  0].a[ 35] =     71380.000000000000;     BAS[ATNO][  0].d[ 35] =         0.000000009180;
  BAS[ATNO][  0].a[ 36] =     23260.000000000000;     BAS[ATNO][  0].d[ 36] =         0.000000033572;
  BAS[ATNO][  0].a[ 37] =      8390.000000000000;     BAS[ATNO][  0].d[ 37] =         0.000000109683;
  BAS[ATNO][  0].a[ 38] =      3271.000000000000;     BAS[ATNO][  0].d[ 38] =         0.000000328410;
  BAS[ATNO][  0].a[ 39] =      1357.000000000000;     BAS[ATNO][  0].d[ 39] =         0.000000905499;
  BAS[ATNO][  0].a[ 40] =       592.000000000000;     BAS[ATNO][  0].d[ 40] =         0.000002311276;
  BAS[ATNO][  0].a[ 41] =       269.100000000000;     BAS[ATNO][  0].d[ 41] =         0.000005331457;
  BAS[ATNO][  0].a[ 42] =       126.500000000000;     BAS[ATNO][  0].d[ 42] =         0.000010827500;
  BAS[ATNO][  0].a[ 43] =        61.030000000000;     BAS[ATNO][  0].d[ 43] =         0.000017750989;
  BAS[ATNO][  0].a[ 44] =        29.860000000000;     BAS[ATNO][  0].d[ 44] =         0.000017914074;
  BAS[ATNO][  0].a[ 45] =        14.170000000000;     BAS[ATNO][  0].d[ 45] =        -0.000007729393;
  BAS[ATNO][  0].a[ 46] =         7.022000000000;     BAS[ATNO][  0].d[ 46] =        -0.000063518340;
  BAS[ATNO][  0].a[ 47] =         3.511000000000;     BAS[ATNO][  0].d[ 47] =        -0.000119533409;
  BAS[ATNO][  0].a[ 48] =         1.758000000000;     BAS[ATNO][  0].d[ 48] =        -0.000551008915;
  BAS[ATNO][  0].a[ 49] =         0.784100000000;     BAS[ATNO][  0].d[ 49] =         0.000185445082;
  BAS[ATNO][  0].a[ 50] =         0.348000000000;     BAS[ATNO][  0].d[ 50] =        -0.000117646931;
  BAS[ATNO][  0].a[ 51] =         0.149100000000;     BAS[ATNO][  0].d[ 51] =         0.000034215816;
  BAS[ATNO][  0].a[ 52] =         0.053800000000;     BAS[ATNO][  0].d[ 52] =        -0.000008264731;

  // Basis function   2 L = s
  InitBFNGauss(BAS[ATNO][  1]);
  BAS[ATNO][  1].l  = 0;
  BAS[ATNO][  1].ng = 51;
  BAS[ATNO][  1].a[  0] =   7401000.000000000000;     BAS[ATNO][  1].d[  0] =         0.000000000004;
  BAS[ATNO][  1].a[  1] =   1108000.000000000000;     BAS[ATNO][  1].d[  1] =         0.000000000029;
  BAS[ATNO][  1].a[  2] =    252100.000000000000;     BAS[ATNO][  1].d[  2] =         0.000000000152;
  BAS[ATNO][  1].a[  3] =     71380.000000000000;     BAS[ATNO][  1].d[  3] =         0.000000000645;
  BAS[ATNO][  1].a[  4] =     23260.000000000000;     BAS[ATNO][  1].d[  4] =         0.000000002354;
  BAS[ATNO][  1].a[  5] =      8390.000000000000;     BAS[ATNO][  1].d[  5] =         0.000000007677;
  BAS[ATNO][  1].a[  6] =      3271.000000000000;     BAS[ATNO][  1].d[  6] =         0.000000022803;
  BAS[ATNO][  1].a[  7] =      1357.000000000000;     BAS[ATNO][  1].d[  7] =         0.000000061953;
  BAS[ATNO][  1].a[  8] =       592.000000000000;     BAS[ATNO][  1].d[  8] =         0.000000152526;
  BAS[ATNO][  1].a[  9] =       269.100000000000;     BAS[ATNO][  1].d[  9] =         0.000000328082;
  BAS[ATNO][  1].a[ 10] =       126.500000000000;     BAS[ATNO][  1].d[ 10] =         0.000000575572;
  BAS[ATNO][  1].a[ 11] =        61.030000000000;     BAS[ATNO][  1].d[ 11] =         0.000000712725;
  BAS[ATNO][  1].a[ 12] =        29.860000000000;     BAS[ATNO][  1].d[ 12] =         0.000000477512;
  BAS[ATNO][  1].a[ 13] =        14.170000000000;     BAS[ATNO][  1].d[ 13] =         0.000000106429;
  BAS[ATNO][  1].a[ 14] =   7401000.000000000000;     BAS[ATNO][  1].d[ 14] =        -0.000000500007;
  BAS[ATNO][  1].a[ 15] =   1108000.000000000000;     BAS[ATNO][  1].d[ 15] =        -0.000003870053;
  BAS[ATNO][  1].a[ 16] =    252100.000000000000;     BAS[ATNO][  1].d[ 16] =        -0.000020340277;
  BAS[ATNO][  1].a[ 17] =     71380.000000000000;     BAS[ATNO][  1].d[ 17] =        -0.000086091174;
  BAS[ATNO][  1].a[ 18] =     23260.000000000000;     BAS[ATNO][  1].d[ 18] =        -0.000314444288;
  BAS[ATNO][  1].a[ 19] =      8390.000000000000;     BAS[ATNO][  1].d[ 19] =        -0.001028424023;
  BAS[ATNO][  1].a[ 20] =      3271.000000000000;     BAS[ATNO][  1].d[ 20] =        -0.003072711898;
  BAS[ATNO][  1].a[ 21] =      1357.000000000000;     BAS[ATNO][  1].d[ 21] =        -0.008475435568;
  BAS[ATNO][  1].a[ 22] =       592.000000000000;     BAS[ATNO][  1].d[ 22] =        -0.021520373444;
  BAS[ATNO][  1].a[ 23] =       269.100000000000;     BAS[ATNO][  1].d[ 23] =        -0.049449994283;
  BAS[ATNO][  1].a[ 24] =       126.500000000000;     BAS[ATNO][  1].d[ 24] =        -0.098777266892;
  BAS[ATNO][  1].a[ 25] =        61.030000000000;     BAS[ATNO][  1].d[ 25] =        -0.158310358664;
  BAS[ATNO][  1].a[ 26] =        29.860000000000;     BAS[ATNO][  1].d[ 26] =        -0.151405064506;
  BAS[ATNO][  1].a[ 27] =        14.170000000000;     BAS[ATNO][  1].d[ 27] =         0.058243434187;
  BAS[ATNO][  1].a[ 28] =         7.022000000000;     BAS[ATNO][  1].d[ 28] =         0.429388854995;
  BAS[ATNO][  1].a[ 29] =         3.511000000000;     BAS[ATNO][  1].d[ 29] =         0.499095605492;
  BAS[ATNO][  1].a[ 30] =   7401000.000000000000;     BAS[ATNO][  1].d[ 30] =         0.000000000004;
  BAS[ATNO][  1].a[ 31] =   1108000.000000000000;     BAS[ATNO][  1].d[ 31] =         0.000000000030;
  BAS[ATNO][  1].a[ 32] =    252100.000000000000;     BAS[ATNO][  1].d[ 32] =         0.000000000156;
  BAS[ATNO][  1].a[ 33] =     71380.000000000000;     BAS[ATNO][  1].d[ 33] =         0.000000000658;
  BAS[ATNO][  1].a[ 34] =     23260.000000000000;     BAS[ATNO][  1].d[ 34] =         0.000000002406;
  BAS[ATNO][  1].a[ 35] =      8390.000000000000;     BAS[ATNO][  1].d[ 35] =         0.000000007860;
  BAS[ATNO][  1].a[ 36] =      3271.000000000000;     BAS[ATNO][  1].d[ 36] =         0.000000023535;
  BAS[ATNO][  1].a[ 37] =      1357.000000000000;     BAS[ATNO][  1].d[ 37] =         0.000000064892;
  BAS[ATNO][  1].a[ 38] =       592.000000000000;     BAS[ATNO][  1].d[ 38] =         0.000000165636;
  BAS[ATNO][  1].a[ 39] =       269.100000000000;     BAS[ATNO][  1].d[ 39] =         0.000000382075;
  BAS[ATNO][  1].a[ 40] =       126.500000000000;     BAS[ATNO][  1].d[ 40] =         0.000000775946;
  BAS[ATNO][  1].a[ 41] =        61.030000000000;     BAS[ATNO][  1].d[ 41] =         0.000001272113;
  BAS[ATNO][  1].a[ 42] =        29.860000000000;     BAS[ATNO][  1].d[ 42] =         0.000001283801;
  BAS[ATNO][  1].a[ 43] =        14.170000000000;     BAS[ATNO][  1].d[ 43] =        -0.000000553922;
  BAS[ATNO][  1].a[ 44] =         7.022000000000;     BAS[ATNO][  1].d[ 44] =        -0.000004552001;
  BAS[ATNO][  1].a[ 45] =         3.511000000000;     BAS[ATNO][  1].d[ 45] =        -0.000008566285;
  BAS[ATNO][  1].a[ 46] =         1.758000000000;     BAS[ATNO][  1].d[ 46] =         0.160281766801;
  BAS[ATNO][  1].a[ 47] =         0.784100000000;     BAS[ATNO][  1].d[ 47] =         0.008830188501;
  BAS[ATNO][  1].a[ 48] =         0.348000000000;     BAS[ATNO][  1].d[ 48] =         0.001146845451;
  BAS[ATNO][  1].a[ 49] =         0.149100000000;     BAS[ATNO][  1].d[ 49] =         0.000208340794;
  BAS[ATNO][  1].a[ 50] =         0.053800000000;     BAS[ATNO][  1].d[ 50] =         0.000007820841;

  // Basis function   3 L = s
  InitBFNGauss(BAS[ATNO][  2]);
  BAS[ATNO][  2].l  = 0;
  BAS[ATNO][  2].ng = 51;
  BAS[ATNO][  2].a[  0] =   7401000.000000000000;     BAS[ATNO][  2].d[  0] =         0.000000000054;
  BAS[ATNO][  2].a[  1] =   1108000.000000000000;     BAS[ATNO][  2].d[  1] =         0.000000000422;
  BAS[ATNO][  2].a[  2] =    252100.000000000000;     BAS[ATNO][  2].d[  2] =         0.000000002222;
  BAS[ATNO][  2].a[  3] =     71380.000000000000;     BAS[ATNO][  2].d[  3] =         0.000000009400;
  BAS[ATNO][  2].a[  4] =     23260.000000000000;     BAS[ATNO][  2].d[  4] =         0.000000034309;
  BAS[ATNO][  2].a[  5] =      8390.000000000000;     BAS[ATNO][  2].d[  5] =         0.000000111876;
  BAS[ATNO][  2].a[  6] =      3271.000000000000;     BAS[ATNO][  2].d[  6] =         0.000000332311;
  BAS[ATNO][  2].a[  7] =      1357.000000000000;     BAS[ATNO][  2].d[  7] =         0.000000902858;
  BAS[ATNO][  2].a[  8] =       592.000000000000;     BAS[ATNO][  2].d[  8] =         0.000002222813;
  BAS[ATNO][  2].a[  9] =       269.100000000000;     BAS[ATNO][  2].d[  9] =         0.000004781259;
  BAS[ATNO][  2].a[ 10] =       126.500000000000;     BAS[ATNO][  2].d[ 10] =         0.000008388024;
  BAS[ATNO][  2].a[ 11] =        61.030000000000;     BAS[ATNO][  2].d[ 11] =         0.000010386804;
  BAS[ATNO][  2].a[ 12] =        29.860000000000;     BAS[ATNO][  2].d[ 12] =         0.000006958962;
  BAS[ATNO][  2].a[ 13] =        14.170000000000;     BAS[ATNO][  2].d[ 13] =         0.000001551030;
  BAS[ATNO][  2].a[ 14] =   7401000.000000000000;     BAS[ATNO][  2].d[ 14] =        -0.000000000148;
  BAS[ATNO][  2].a[ 15] =   1108000.000000000000;     BAS[ATNO][  2].d[ 15] =        -0.000000001143;
  BAS[ATNO][  2].a[ 16] =    252100.000000000000;     BAS[ATNO][  2].d[ 16] =        -0.000000006005;
  BAS[ATNO][  2].a[ 17] =     71380.000000000000;     BAS[ATNO][  2].d[ 17] =        -0.000000025417;
  BAS[ATNO][  2].a[ 18] =     23260.000000000000;     BAS[ATNO][  2].d[ 18] =        -0.000000092834;
  BAS[ATNO][  2].a[ 19] =      8390.000000000000;     BAS[ATNO][  2].d[ 19] =        -0.000000303625;
  BAS[ATNO][  2].a[ 20] =      3271.000000000000;     BAS[ATNO][  2].d[ 20] =        -0.000000907166;
  BAS[ATNO][  2].a[ 21] =      1357.000000000000;     BAS[ATNO][  2].d[ 21] =        -0.000002502227;
  BAS[ATNO][  2].a[ 22] =       592.000000000000;     BAS[ATNO][  2].d[ 22] =        -0.000006353521;
  BAS[ATNO][  2].a[ 23] =       269.100000000000;     BAS[ATNO][  2].d[ 23] =        -0.000014599263;
  BAS[ATNO][  2].a[ 24] =       126.500000000000;     BAS[ATNO][  2].d[ 24] =        -0.000029162295;
  BAS[ATNO][  2].a[ 25] =        61.030000000000;     BAS[ATNO][  2].d[ 25] =        -0.000046738421;
  BAS[ATNO][  2].a[ 26] =        29.860000000000;     BAS[ATNO][  2].d[ 26] =        -0.000044699751;
  BAS[ATNO][  2].a[ 27] =        14.170000000000;     BAS[ATNO][  2].d[ 27] =         0.000017195376;
  BAS[ATNO][  2].a[ 28] =         7.022000000000;     BAS[ATNO][  2].d[ 28] =         0.000126769702;
  BAS[ATNO][  2].a[ 29] =         3.511000000000;     BAS[ATNO][  2].d[ 29] =         0.000147349425;
  BAS[ATNO][  2].a[ 30] =   7401000.000000000000;     BAS[ATNO][  2].d[ 30] =         0.000000160112;
  BAS[ATNO][  2].a[ 31] =   1108000.000000000000;     BAS[ATNO][  2].d[ 31] =         0.000001210846;
  BAS[ATNO][  2].a[ 32] =    252100.000000000000;     BAS[ATNO][  2].d[ 32] =         0.000006364446;
  BAS[ATNO][  2].a[ 33] =     71380.000000000000;     BAS[ATNO][  2].d[ 33] =         0.000026908797;
  BAS[ATNO][  2].a[ 34] =     23260.000000000000;     BAS[ATNO][  2].d[ 34] =         0.000098408745;
  BAS[ATNO][  2].a[ 35] =      8390.000000000000;     BAS[ATNO][  2].d[ 35] =         0.000321514598;
  BAS[ATNO][  2].a[ 36] =      3271.000000000000;     BAS[ATNO][  2].d[ 36] =         0.000962672486;
  BAS[ATNO][  2].a[ 37] =      1357.000000000000;     BAS[ATNO][  2].d[ 37] =         0.002654304194;
  BAS[ATNO][  2].a[ 38] =       592.000000000000;     BAS[ATNO][  2].d[ 38] =         0.006775082810;
  BAS[ATNO][  2].a[ 39] =       269.100000000000;     BAS[ATNO][  2].d[ 39] =         0.015628187246;
  BAS[ATNO][  2].a[ 40] =       126.500000000000;     BAS[ATNO][  2].d[ 40] =         0.031738831518;
  BAS[ATNO][  2].a[ 41] =        61.030000000000;     BAS[ATNO][  2].d[ 41] =         0.052033768775;
  BAS[ATNO][  2].a[ 42] =        29.860000000000;     BAS[ATNO][  2].d[ 42] =         0.052511822725;
  BAS[ATNO][  2].a[ 43] =        14.170000000000;     BAS[ATNO][  2].d[ 43] =        -0.022657297510;
  BAS[ATNO][  2].a[ 44] =         7.022000000000;     BAS[ATNO][  2].d[ 44] =        -0.186192366773;
  BAS[ATNO][  2].a[ 45] =         3.511000000000;     BAS[ATNO][  2].d[ 45] =        -0.350390269065;
  BAS[ATNO][  2].a[ 46] =         1.758000000000;     BAS[ATNO][  2].d[ 46] =        -0.127324380681;
  BAS[ATNO][  2].a[ 47] =         0.784100000000;     BAS[ATNO][  2].d[ 47] =         0.452517116558;
  BAS[ATNO][  2].a[ 48] =         0.348000000000;     BAS[ATNO][  2].d[ 48] =         0.611320368950;
  BAS[ATNO][  2].a[ 49] =         0.149100000000;     BAS[ATNO][  2].d[ 49] =         0.186482961098;
  BAS[ATNO][  2].a[ 50] =         0.053800000000;     BAS[ATNO][  2].d[ 50] =         0.000928545194;

  // Basis function   4 L = s
  InitBFNGauss(BAS[ATNO][  3]);
  BAS[ATNO][  3].l  = 0;
  BAS[ATNO][  3].ng = 53;
  BAS[ATNO][  3].a[  0] =   7401000.000000000000;     BAS[ATNO][  3].d[  0] =         0.000000015026;
  BAS[ATNO][  3].a[  1] =   1108000.000000000000;     BAS[ATNO][  3].d[  1] =         0.000000116860;
  BAS[ATNO][  3].a[  2] =    252100.000000000000;     BAS[ATNO][  3].d[  2] =         0.000000615040;
  BAS[ATNO][  3].a[  3] =     71380.000000000000;     BAS[ATNO][  3].d[  3] =         0.000002601921;
  BAS[ATNO][  3].a[  4] =     23260.000000000000;     BAS[ATNO][  3].d[  4] =         0.000009497188;
  BAS[ATNO][  3].a[  5] =      8390.000000000000;     BAS[ATNO][  3].d[  5] =         0.000030968469;
  BAS[ATNO][  3].a[  6] =      3271.000000000000;     BAS[ATNO][  3].d[  6] =         0.000091987356;
  BAS[ATNO][  3].a[  7] =      1357.000000000000;     BAS[ATNO][  3].d[  7] =         0.000249920873;
  BAS[ATNO][  3].a[  8] =       592.000000000000;     BAS[ATNO][  3].d[  8] =         0.000615298684;
  BAS[ATNO][  3].a[  9] =       269.100000000000;     BAS[ATNO][  3].d[  9] =         0.001323504064;
  BAS[ATNO][  3].a[ 10] =       126.500000000000;     BAS[ATNO][  3].d[ 10] =         0.002321895484;
  BAS[ATNO][  3].a[ 11] =        61.030000000000;     BAS[ATNO][  3].d[ 11] =         0.002875179180;
  BAS[ATNO][  3].a[ 12] =        29.860000000000;     BAS[ATNO][  3].d[ 12] =         0.001926315536;
[...]
<pd|dd>: done
<pd|df>:          700 b          601 skpd ( 85.9%)    0.000 s ( 0.003 ms/b)
<pd|dg>: done
<pd|dh>: done
<pd|ff>:          350 b          187 skpd ( 53.4%)    0.001 s ( 0.005 ms/b)
<pd|fg>:          420 b          326 skpd ( 77.6%)    0.001 s ( 0.009 ms/b)
<pd|fh>:          280 b          228 skpd ( 81.4%)    0.001 s ( 0.017 ms/b)
<pd|gg>: done
<pd|gh>: done
<pd|hh>:          105 b           92 skpd ( 87.6%)    0.001 s ( 0.070 ms/b)
<pf|pf>:          406 b            0 skpd (  0.0%)    0.004 s ( 0.009 ms/b)
<pf|pg>:          588 b            0 skpd (  0.0%)    0.007 s ( 0.012 ms/b)
<pf|ph>:          392 b            0 skpd (  0.0%)    0.010 s ( 0.026 ms/b)
<pf|dd>:          420 b          327 skpd ( 77.9%)    0.000 s ( 0.003 ms/b)
<pf|df>:          560 b          479 skpd ( 85.5%)    0.000 s ( 0.004 ms/b)
<pf|dg>:          420 b          397 skpd ( 94.5%)    0.000 s ( 0.009 ms/b)
<pf|dh>:          280 b          273 skpd ( 97.5%)    0.000 s ( 0.025 ms/b)
<pf|ff>:          280 b          178 skpd ( 63.6%)    0.001 s ( 0.007 ms/b)
<pf|fg>:          336 b          276 skpd ( 82.1%)    0.001 s ( 0.011 ms/b)
<pf|fh>:          224 b          193 skpd ( 86.2%)    0.001 s ( 0.018 ms/b)
<pf|gg>:          168 b          125 skpd ( 74.4%)    0.001 s ( 0.022 ms/b)
<pf|gh>:          168 b          141 skpd ( 83.9%)    0.001 s ( 0.037 ms/b)
<pf|hh>:           84 b           57 skpd ( 67.9%)    0.002 s ( 0.078 ms/b)
<pg|pg>:          231 b            0 skpd (  0.0%)    0.007 s ( 0.030 ms/b)
<pg|ph>:          294 b            0 skpd (  0.0%)    0.014 s ( 0.048 ms/b)
<pg|dd>: done
<pg|df>:          420 b          391 skpd ( 93.1%)    0.000 s ( 0.008 ms/b)
<pg|dg>: done
<pg|dh>: done
<pg|ff>:          210 b          155 skpd ( 73.8%)    0.001 s ( 0.011 ms/b)
<pg|fg>:          252 b          224 skpd ( 88.9%)    0.001 s ( 0.020 ms/b)
<pg|fh>:          168 b          162 skpd ( 96.4%)    0.000 s ( 0.052 ms/b)
<pg|gg>: done
<pg|gh>: done
<pg|hh>: done
<ph|ph>:          105 b            0 skpd (  0.0%)    0.013 s ( 0.120 ms/b)
<ph|dd>: done
<ph|df>:          280 b          263 skpd ( 93.9%)    0.000 s ( 0.016 ms/b)
<ph|dg>: done
<ph|dh>: done
<ph|ff>:          140 b          108 skpd ( 77.1%)    0.001 s ( 0.017 ms/b)
<ph|fg>:          168 b          150 skpd ( 89.3%)    0.001 s ( 0.035 ms/b)
<ph|fh>:          112 b          110 skpd ( 98.2%)    0.000 s ( 0.122 ms/b)
<ph|gg>: done
<ph|gh>: done
<ph|hh>: done
<dd|dd>: done
<dd|df>: done
<dd|dg>: done
<dd|dh>: done
<dd|ff>: done
<dd|fg>: done
<dd|fh>: done
<dd|gg>: done
<dd|gh>: done
<dd|hh>: done
<df|df>: done
<df|dg>: done
<df|dh>: done
<df|ff>: done
<df|fg>: done
<df|fh>: done
<df|gg>: done
<df|gh>: done
<df|hh>: done
<dg|dg>: done
<dg|dh>: done
<dg|ff>: done
<dg|fg>: done
<dg|fh>: done
<dg|gg>: done
<dg|gh>: done
<dg|hh>: done
<dh|dh>: done
<dh|ff>: done
<dh|fg>: done
<dh|fh>: done
<dh|gg>: done
<dh|gh>: done
<dh|hh>: done
<ff|ff>: done
<ff|fg>: done
<ff|fh>: done
<ff|gg>: done
<ff|gh>: done
<ff|hh>: done
<fg|fg>: done
<fg|fh>: done
<fg|gg>: done
<fg|gh>: done
<fg|hh>: done
<fh|fh>: done
<fh|gg>: done
<fh|gh>: done
<fh|hh>: done
<gg|gg>: done
<gg|gh>: done
<gg|hh>: done
<gh|gh>: done
<gh|hh>: done
<hh|hh>: done
Recanonicalizing the internal orbitals
Recanonicalizing the virtual orbitals
Time needed for Fock operator              ...            0.496 sec
Reference energy                           ...   -526.817367583

------------------------------
PARTIAL COULOMB TRANSFORMATION
------------------------------

Transformation type                        ... one-operator
Dimension of the basis                     ...  131
Number of internal MOs                     ...  126 (5-130)
Pair cutoff                                ... 0.000e+00 Eh
Number of AO pairs included in the trafo   ... 8646
Total Number of distinct AO pairs          ... 8646
Memory devoted for trafo                   ... 2500.0 MB 
Max. Number of MO pairs treated together   ... 37899      
Max. Number of MOs treated per batch       ...  289      
Number Format for Storage                  ... Double (8 Byte)
AO-integral source                         ... DIRECT
Integral package used                      ... LIBINT

Starting integral evaluation:
<ss|**>: <sp|**>:        15660 b        0 skpd     0.131 s (  0.008 ms/b)
       24360 b        0 skpd     0.165 s (  0.007 ms/b)
<sd|**>:        17400 b        0 skpd     0.084 s (  0.005 ms/b)
<sf|**>:        13920 b        0 skpd     0.143 s (  0.010 ms/b)
<sg|**>:        10440 b        0 skpd     0.235 s (  0.023 ms/b)
<sh|**>:         6960 b        0 skpd     0.243 s (  0.035 ms/b)
<pp|**>:        12180 b        0 skpd     0.172 s (  0.014 ms/b)
<pd|**>:        15225 b        0 skpd     0.166 s (  0.011 ms/b)
<pf|**>:        12180 b        0 skpd     0.259 s (  0.021 ms/b)
<pg|**>:         9135 b        0 skpd     0.254 s (  0.028 ms/b)
<ph|**>:         6090 b        0 skpd     0.300 s (  0.049 ms/b)
<dd|**>:         6525 b        0 skpd     0.107 s (  0.016 ms/b)
<df|**>:         8700 b        0 skpd     0.168 s (  0.019 ms/b)
<dg|**>:         6525 b        0 skpd     0.217 s (  0.033 ms/b)
<dh|**>:         4350 b        0 skpd     0.151 s (  0.035 ms/b)
<ff|**>:         4350 b        0 skpd     0.124 s (  0.028 ms/b)
<fg|**>:         5220 b        0 skpd     0.304 s (  0.058 ms/b)
<fh|**>:         3480 b        0 skpd     0.209 s (  0.060 ms/b)
<gg|**>:         2610 b        0 skpd     0.216 s (  0.083 ms/b)
<gh|**>:         2610 b        0 skpd     0.282 s (  0.108 ms/b)
<hh|**>:         1305 b        0 skpd     0.333 s (  0.255 ms/b)
Closing buffer AOJ ( 0.05 GB; CompressionRatio= 1.00)
Collecting buffer AOJ 
    ... done with AO integral generation
Number of MO pairs included in the trafo   ... 8001
    ... Now sorting integrals
IBATCH = 1 of  1
Closing buffer JAO ( 0.05 GB; CompressionRatio= 1.00)
Collecting buffer JAO 
TOTAL TIME for half transformation         ...     6.284 sec
AO-integral generation                     ...     3.098 sec
Half transformation                        ...     1.210 sec
J-integral sorting                         ...     1.879 sec

-------------------------- SECOND HALF TRANSFORMATION -------------------------
Formation of (pq|rs)                       ... ok (     2.294 sec)
Integral sorting                           ... ok (     2.962 sec)

------------------
CLOSED SHELL GUESS
------------------

Initial guess performed in     0.003 sec
E(0)                                       ...   -526.817367583
E(MP2)                                     ...     -0.241263817
Initial E(tot)                             ...   -527.058631400
<T|T>                                      ...      0.066810334
Number of pairs included                   ... 10
Total number of pairs                      ... 10

------------------------------------------------
                  RHF COUPLED CLUSTER ITERATIONS
------------------------------------------------

Number of amplitudes to be optimized       ... 149328

Iter       E(tot)           E(Corr)          Delta-E          Residual     Time
  0   -527.058631400     -0.241263817      0.000000000      0.007544172    0.14
                           *** Turning on DIIS ***
  1   -527.069389324     -0.252021741     -0.010757924      0.003237301    0.47
  2   -527.073451096     -0.256083513     -0.004061771      0.000762783    0.47
  3   -527.073971233     -0.256603650     -0.000520137      0.000193760    0.48
  4   -527.074016466     -0.256648883     -0.000045233      0.000050110    0.48
  5   -527.074022238     -0.256654655     -0.000005772      0.000016329    0.49
  6   -527.074022945     -0.256655362     -0.000000708      0.000004832    0.48
               --- The Coupled-Cluster iterations have converged ---

----------------------
COUPLED CLUSTER ENERGY
----------------------

E(0)                                       ...   -526.817367583
E(CORR)                                    ...     -0.256655362
E(TOT)                                     ...   -527.074022945
Singles Norm <S|S>**1/2                    ...      0.006979975  
T1 diagnostic                              ...      0.002467794  

------------------
LARGEST AMPLITUDES
------------------
   6-> 30   6-> 30       0.031484
   8-> 32   8-> 32       0.027361
   8-> 29   8-> 29       0.027200
   6-> 31   6-> 31       0.024987
   7-> 31   7-> 31       0.024508
   7-> 29   7-> 29       0.022629
   8-> 33   8-> 33       0.022483
   6-> 33   6-> 33       0.021544
   7-> 32   7-> 32       0.019801
   6-> 14   6-> 30       0.018916
   6-> 30   6-> 14       0.018916
   7-> 13   7-> 29       0.015948
   7-> 29   7-> 13       0.015948
   8-> 20   8-> 20       0.015815
   7-> 31   6-> 30       0.015089
   7-> 30   7-> 30       0.015042


        !!!!!!!!!!!!!!!!!!!!!!!!!!!!!!!!!!!!!!!!!!!!!!!!!!!!!!!!!!!!!!!!!!!!!!!!!! 
        !  Warning: Densities are linearized densities !                         !
        !!!!!!!!!!!!!!!!!!!!!!!!!!!!!!!!!!!!!!!!!!!!!!!!!!!!!!!!!!!!!!!!!!!!!!!!!! 

Trace of internal density part =     -0.155150435
Trace of external density part =      0.155150435
----------------------
RHF TRIPLES CORRECTION (Algorithm 1)
----------------------

Multiplier for the singles contribution    ...      1.000000000

10% done
20% done
30% done
40% done
50% done
60% done
70% done
80% done
90% done

Triples Correction (T)                     ...     -0.009433744
Scaling of triples based on CCSD energies (Peterson et al. Molecular Physics 113, 1551 (2015))
E(T*) = f*E(T) where f = E(F12-CCSD)/E(CCSD) 
f = CCSD (with F12)/ CCSD (without F12)    ...      1.000000000
Scaled triples correction (T)              ...     -0.009433744

Final correlation energy                   ...     -0.266089107
E(CCSD)                                    ...   -527.074022945
E(CCSD(T))                                 ...   -527.083456690

NORM  =      1.077623937 sqrt=     1.038086671
W(HF) =      0.927967508
------------------------------------------------------------------------------
                           ORCA POPULATION ANALYSIS
------------------------------------------------------------------------------
Input electron density              ... 18_Ar.mdcip
BaseName (.gbw .S,...)              ... 18_Ar

                    ********************************
                    * MULLIKEN POPULATION ANALYSIS *
                    ********************************

-----------------------
MULLIKEN ATOMIC CHARGES
-----------------------
   0 Ar:   -0.000000
Sum of atomic charges:   -0.0000000

--------------------------------
MULLIKEN REDUCED ORBITAL CHARGES
--------------------------------
  0 Ars       :     5.987062  s :     5.987062
      pz      :     3.963721  p :    11.891162
      px      :     3.963721
      py      :     3.963721
      dz2     :     0.021271  d :     0.106355
      dxz     :     0.021271
      dyz     :     0.021271
      dx2y2   :     0.021271
      dxy     :     0.021271
      f0      :     0.001701  f :     0.011904
      f+1     :     0.001701
      f-1     :     0.001701
      f+2     :     0.001701
      f-2     :     0.001701
      f+3     :     0.001701
      f-3     :     0.001701
      g0      :     0.000339  g :     0.003053
      g+1     :     0.000339
      g-1     :     0.000339
      g+2     :     0.000339
      g-2     :     0.000339
      g+3     :     0.000339
      g-3     :     0.000339
      g+4     :     0.000339
      g-4     :     0.000339
      h0      :     0.000042  h :     0.000465
      h+1     :     0.000042
      h-1     :     0.000042
      h+2     :     0.000042
      h-2     :     0.000042
      h+3     :     0.000042
      h-3     :     0.000042
      h+4     :     0.000042
      h-4     :     0.000042
      h+5     :     0.000042
      h-5     :     0.000042


                     *******************************
                     * LOEWDIN POPULATION ANALYSIS *
                     *******************************

----------------------
LOEWDIN ATOMIC CHARGES
----------------------
   0 Ar:   -0.000000

-------------------------------
LOEWDIN REDUCED ORBITAL CHARGES
-------------------------------
  0 Ars       :     5.987062  s :     5.987062
      pz      :     3.963721  p :    11.891162
      px      :     3.963721
      py      :     3.963721
      dz2     :     0.021271  d :     0.106355
      dxz     :     0.021271
      dyz     :     0.021271
      dx2y2   :     0.021271
      dxy     :     0.021271
      f0      :     0.001701  f :     0.011904
      f+1     :     0.001701
      f-1     :     0.001701
      f+2     :     0.001701
      f-2     :     0.001701
      f+3     :     0.001701
      f-3     :     0.001701
      g0      :     0.000339  g :     0.003053
      g+1     :     0.000339
      g-1     :     0.000339
      g+2     :     0.000339
      g-2     :     0.000339
      g+3     :     0.000339
      g-3     :     0.000339
      g+4     :     0.000339
      g-4     :     0.000339
      h0      :     0.000042  h :     0.000465
      h+1     :     0.000042
      h-1     :     0.000042
      h+2     :     0.000042
      h-2     :     0.000042
      h+3     :     0.000042
      h-3     :     0.000042
      h+4     :     0.000042
      h-4     :     0.000042
      h+5     :     0.000042
      h-5     :     0.000042


                      *****************************
                      * MAYER POPULATION ANALYSIS *
                      *****************************

  NA   - Mulliken gross atomic population
  ZA   - Total nuclear charge
  QA   - Mulliken gross atomic charge
  VA   - Mayer's total valence
  BVA  - Mayer's bonded valence
  FA   - Mayer's free valence

  ATOM       NA         ZA         QA         VA         BVA        FA
  0 Ar    18.0000    18.0000    -0.0000     0.6114     0.0000     0.6114





------------------------------------------------------------------------------- 
                                     TIMINGS                                   
------------------------------------------------------------------------------- 


Total execution time                   ...       16.030 sec

Fock Matrix Formation                  ...        0.496 sec (  3.1%)
Initial Guess                          ...        0.003 sec (  0.0%)
DIIS Solver                            ...        0.039 sec (  0.2%)
State Vector Update                    ...        0.002 sec (  0.0%)
Sigma-vector construction              ...        2.970 sec ( 18.5%)
  <D|H|D>(0-ext)                       ...        0.003 sec (  0.1% of sigma)
  <D|H|D>(2-ext Fock)                  ...        0.001 sec (  0.0% of sigma)
  <D|H|D>(2-ext)                       ...        0.013 sec (  0.4% of sigma)
  <D|H|D>(4-ext)                       ...        0.322 sec ( 10.8% of sigma)
  <D|H|D>(4-ext-corr)                  ...        0.335 sec ( 11.3% of sigma)
  <S|H|0>                              ...        0.001 sec (  0.0% of sigma)
  <S|H|S>                              ...        0.002 sec (  0.1% of sigma)
  <S|H|D>(1-ext)                       ...        0.004 sec (  0.1% of sigma)
  <D|H|S>(1-ext)                       ...        0.003 sec (  0.1% of sigma)
  <S|H|D>(3-ext)                       ...        0.053 sec (  1.8% of sigma)
  Fock-dressing                        ...        2.019 sec ( 68.0% of sigma)
  (ik|jl)-dressing                     ...        0.002 sec (  0.1% of sigma)
  (ij|ab),(ia|jb)-dressing             ...        0.173 sec (  5.8% of sigma)
Total Time for computing (T)           ...        0.172 sec (  1.1% of ALL)
  I/O of integral and amplitudes       ...        0.056 sec ( 32.7% of (T))
  N**6 sorting step                    ...        0.039 sec ( 22.8% of (T))
  External N**7 contributions          ...        0.043 sec ( 25.0% of (T))
  Internal N**7 contributions          ...        0.013 sec (  7.5% of (T))
  N**6 triples energy contributions    ...        0.021 sec ( 12.0% of (T))


-------------------------   --------------------
FINAL SINGLE POINT ENERGY      -527.083456689547
-------------------------   --------------------


                            ***************************************
                            *     ORCA property calculations      *
                            ***************************************

                                    ---------------------
                                    Active property flags
                                    ---------------------
   (+) Dipole Moment


------------------------------------------------------------------------------
                       ORCA ELECTRIC PROPERTIES CALCULATION
------------------------------------------------------------------------------

Dipole Moment Calculation                       ... on
Quadrupole Moment Calculation                   ... off
Polarizability Calculation                      ... off
GBWName                                         ... 18_Ar.gbw
Electron density file                           ... 18_Ar.scfp
The origin for moment calculation is the CENTER OF MASS  = ( 0.000000,  0.000000  0.000000)

-------------
DIPOLE MOMENT
-------------
                                X             Y             Z
Electronic contribution:     -0.00000      -0.00000      -0.00000
Nuclear contribution   :      0.00000       0.00000       0.00000
                        -----------------------------------------
Total Dipole Moment    :     -0.00000      -0.00000      -0.00000
                        -----------------------------------------
Magnitude (a.u.)       :      0.00000
Magnitude (Debye)      :      0.00000



--------------------
Rotational spectrum 
--------------------
 
Rotational constants in cm-1:     0.000000     0.000000     0.000000 
Rotational constants in MHz :     0.000000     0.000000     0.000000 

 Dipole components along the rotational axes: 
x,y,z [a.u.] :    -0.000000    -0.000000    -0.000000 
x,y,z [Debye]:    -0.000000    -0.000000    -0.000000 

 

                           *** MDCI DENSITY ***

------------------------------------------------------------------------------
                       ORCA ELECTRIC PROPERTIES CALCULATION
------------------------------------------------------------------------------

Dipole Moment Calculation                       ... on
Quadrupole Moment Calculation                   ... off
Polarizability Calculation                      ... off
GBWName                                         ... 18_Ar.gbw
Electron density file                           ... 18_Ar.mdcip
The origin for moment calculation is the CENTER OF MASS  = ( 0.000000,  0.000000  0.000000)

-------------
DIPOLE MOMENT
-------------
                                X             Y             Z
Electronic contribution:      0.00000      -0.00000      -0.00000
Nuclear contribution   :      0.00000       0.00000       0.00000
                        -----------------------------------------
Total Dipole Moment    :      0.00000      -0.00000      -0.00000
                        -----------------------------------------
Magnitude (a.u.)       :      0.00000
Magnitude (Debye)      :      0.00000



--------------------
Rotational spectrum 
--------------------
 
Rotational constants in cm-1:     0.000000     0.000000     0.000000 
Rotational constants in MHz :     0.000000     0.000000     0.000000 

 Dipole components along the rotational axes: 
x,y,z [a.u.] :     0.000000    -0.000000    -0.000000 
x,y,z [Debye]:     0.000000    -0.000000    -0.000000 

 

Timings for individual modules:

Sum of individual times         ...       22.779 sec (=   0.380 min)
GTO integral calculation        ...        0.884 sec (=   0.015 min)   3.9 %
SCF iterations                  ...        5.057 sec (=   0.084 min)  22.2 %
MDCI module                     ...       16.838 sec (=   0.281 min)  73.9 %
                             ****ORCA TERMINATED NORMALLY****
TOTAL RUN TIME: 0 days 0 hours 0 minutes 23 seconds 486 msec
