
                                 *****************
                                 * O   R   C   A *
                                 *****************

           --- An Ab Initio, DFT and Semiempirical electronic structure package ---

                  #######################################################
                  #                        -***-                        #
                  #          Department of theory and spectroscopy      #
                  #               Directorship: Frank Neese             #
                  #        Max Planck Institute fuer Kohlenforschung    #
                  #                Kaiser Wilhelm Platz 1               #
                  #                 D-45470 Muelheim/Ruhr               #
                  #                      Germany                        #
                  #                                                     #
                  #                  All rights reserved                #
                  #                        -***-                        #
                  #######################################################


                         Program Version 4.2.0 -  RELEASE  -


 With contributions from (in alphabetic order):
   Daniel Aravena         : Magnetic Suceptibility
   Michael Atanasov       : Ab Initio Ligand Field Theory (pilot matlab implementation)
   Alexander A. Auer      : GIAO ZORA, VPT2
   Ute Becker             : Parallelization
   Giovanni Bistoni       : ED, misc. LED, open-shell LED, HFLED
   Martin Brehm           : Molecular dynamics
   Dmytro Bykov           : SCF Hessian
   Vijay G. Chilkuri      : MRCI spin determinant printing, contributions to CSF-ICE
   Dipayan Datta          : RHF DLPNO-CCSD density
   Achintya Kumar Dutta   : EOM-CC, STEOM-CC
   Dmitry Ganyushin       : Spin-Orbit,Spin-Spin,Magnetic field MRCI
   Miquel Garcia          : C-PCM Hessian, Gaussian charge scheme
   Yang Guo               : DLPNO-NEVPT2, CIM, IAO-localization
   Andreas Hansen         : Spin unrestricted coupled pair/coupled cluster methods
   Benjamin Helmich-Paris : CASSCF linear response (MC-RPA)
   Lee Huntington         : MR-EOM, pCC
   Robert Izsak           : Overlap fitted RIJCOSX, COSX-SCS-MP3, EOM
   Christian Kollmar      : KDIIS, OOCD, Brueckner-CCSD(T), CCSD density
   Simone Kossmann        : Meta GGA functionals, TD-DFT gradient, OOMP2, MP2 Hessian
   Martin Krupicka        : AUTO-CI
   Lucas Lang             : DCDCAS
   Dagmar Lenk            : GEPOL surface, SMD
   Dimitrios Liakos       : Extrapolation schemes; Compound Job, initial MDCI parallelization
   Dimitrios Manganas     : Further ROCIS development; embedding schemes
   Dimitrios Pantazis     : SARC Basis sets
   Taras Petrenko         : DFT Hessian,TD-DFT gradient, ASA, ECA, R-Raman, ABS, FL, XAS/XES, NRVS
   Peter Pinski           : DLPNO-MP2, DLPNO-MP2 Gradient
   Christoph Reimann      : Effective Core Potentials
   Marius Retegan         : Local ZFS, SOC
   Christoph Riplinger    : Optimizer, TS searches, QM/MM, DLPNO-CCSD(T), (RO)-DLPNO pert. Triples
   Tobias Risthaus        : Range-separated hybrids, TD-DFT gradient, RPA, STAB
   Michael Roemelt        : Original ROCIS implementation
   Masaaki Saitow         : Open-shell DLPNO-CCSD energy and density
   Barbara Sandhoefer     : DKH picture change effects
   Avijit Sen             : IP-ROCIS
   Kantharuban Sivalingam : CASSCF convergence, NEVPT2, FIC-MRCI
   Bernardo de Souza      : ESD, SOC TD-DFT
   Georgi Stoychev        : AutoAux, RI-MP2 NMR
   Willem Van den Heuvel  : Paramagnetic NMR
   Boris Wezisla          : Elementary symmetry handling
   Frank Wennmohs         : Technical directorship


 We gratefully acknowledge several colleagues who have allowed us to
 interface, adapt or use parts of their codes:
   Stefan Grimme, W. Hujo, H. Kruse,             : VdW corrections, initial TS optimization,
                  C. Bannwarth                     DFT functionals, gCP, sTDA/sTD-DF
   Ed Valeev, F. Pavosevic, A. Kumar             : LibInt (2-el integral package), F12 methods
   Garnet Chan, S. Sharma, J. Yang, R. Olivares  : DMRG
   Ulf Ekstrom                                   : XCFun DFT Library
   Mihaly Kallay                                 : mrcc  (arbitrary order and MRCC methods)
   Andreas Klamt, Michael Diedenhofen            : otool_cosmo (COSMO solvation model)
   Jiri Pittner, Ondrej Demel                    : Mk-CCSD
   Frank Weinhold                                : gennbo (NPA and NBO analysis)
   Christopher J. Cramer and Donald G. Truhlar   : smd solvation model
   Lars Goerigk                                  : TD-DFT with DH, B97 family of functionals
   V. Asgeirsson, H. Jonsson                     : NEB implementation
   FAccTs GmbH                                   : IRC, NEB, NEB-TS, Multilevel, MM, QM/MM, CI optimization
   S Lehtola, MJT Oliveira, MAL Marques          : LibXC Library


 Your calculation uses the libint2 library for the computation of 2-el integrals
 For citations please refer to: http://libint.valeyev.net

 Your ORCA version has been built with support for libXC version: 4.2.3
 For citations please refer to: https://tddft.org/programs/libxc/

 This ORCA versions uses:
   CBLAS   interface :  Fast vector & matrix operations
   LAPACKE interface :  Fast linear algebra routines
   SCALAPACK package :  Parallel linear algebra routines


----- Orbital basis set information -----
Your calculation utilizes the basis: aug-cc-pV5Z 
          H : Obtained from the ccRepo (grant-hill.group.shef.ac.uk/ccrepo) Feb. 2017
              T. H. Dunning, Jr., J. Chem. Phys. 90, 1007 (1989)
              Diffuse s exponent - S. Mielke, unpublished
         He : Obtained from the ccRepo (grant-hill.group.shef.ac.uk/ccrepo) Feb. 2017
              D. E. Woon, T. H. Dunning, Jr., J. Chem. Phys. 100, 2975 (1994)
  Li-Be, Na : Obtained from the ccRepo (grant-hill.group.shef.ac.uk/ccrepo) Feb. 2017
              B. P. Prascher, D. E. Woon, K. A. Peterson, T. H. Dunning, Jr., A. K. Wilson, Theor. Chem. Acc. 128, 69 (2011)
        B-F : Obtained from the ccRepo (grant-hill.group.shef.ac.uk/ccrepo) Feb. 2017
              R. A. Kendall, T. H. Dunning, Jr., R. J. Harrison, J. Chem. Phys. 96, 6796 (1992)
              T. H. Dunning, Jr., J. Chem. Phys. 90, 1007 (1989)
         Ne : Obtained from the ccRepo (grant-hill.group.shef.ac.uk/ccrepo) Feb. 2017
              T. H. Dunning, Jr., J. Chem. Phys. 90, 1007 (1989)
         Mg : Obtained from the Peterson Research Group Website (tyr0.chem.wsu.edu/~kipeters) Feb. 2017
              B. P. Prascher, D. E. Woon, K. A. Peterson, T. H. Dunning, Jr., A. K. Wilson, Theor. Chem. Acc. 128, 69 (2011)
      Al-Ar : Obtained from the ccRepo (grant-hill.group.shef.ac.uk/ccrepo) Feb. 2017
              D. E. Woon, T. H. Dunning, Jr., J. Chem. Phys. 98, 1358 (1993)
      Sc-Zn : Obtained from the ccRepo (grant-hill.group.shef.ac.uk/ccrepo) Feb. 2017
              N. B. Balabanov, K. A. Peterson, J. Chem. Phys. 123, 064107 (2005)
              N. B. Balabanov, K. A. Peterson, J. Chem. Phys. 125, 074110 (2006)
      Ga-Kr : Obtained from the ccRepo (grant-hill.group.shef.ac.uk/ccrepo) Feb. 2017
              A. K. Wilson, D. E. Woon, K. A. Peterson, T. H. Dunning, Jr., J. Chem. Phys. 110, 7667 (1999)

================================================================================
                                        WARNINGS
                       Please study these warnings very carefully!
================================================================================


WARNING: your system is open-shell and RHF/RKS was chosen
  ===> : WILL SWITCH to UHF/UKS


WARNING: MDCI localization with Augmented Hessian Foster-Boys
  ===> : Switching off randomization!

WARNING: Post HF methods need fully converged wavefunctions
  ===> : Setting SCFConvForced true
         You can overwrite this default with %scf ConvForced false 


INFO   : the flag for use of LIBINT has been found!

================================================================================
                                       INPUT FILE
================================================================================
NAME = 25_Mn.in
|  1> #
|  2> # 25_Mn CCSD(T)/aug-cc-pV5Z
|  3> #
|  4> ! CCSD(T) aug-cc-pV5Z tightscf
|  5> 
|  6> *xyz 0 6
|  7>  Mn 0.0 0.0 0.0
|  8> *
|  9> 
| 10> %maxcore 5000 
| 11> 
| 12> %pal
| 13> nprocs 24
| 14> end
| 15> 
| 16> 
| 17>                          ****END OF INPUT****
================================================================================

                       ****************************
                       * Single Point Calculation *
                       ****************************

---------------------------------
CARTESIAN COORDINATES (ANGSTROEM)
---------------------------------
  Mn     0.000000    0.000000    0.000000

----------------------------
CARTESIAN COORDINATES (A.U.)
----------------------------
  NO LB      ZA    FRAG     MASS         X           Y           Z
   0 Mn   25.0000    0    54.940    0.000000    0.000000    0.000000

--------------------------------
INTERNAL COORDINATES (ANGSTROEM)
--------------------------------
 Mn     0   0   0     0.000000000000     0.00000000     0.00000000

---------------------------
INTERNAL COORDINATES (A.U.)
---------------------------
 Mn     0   0   0     0.000000000000     0.00000000     0.00000000

---------------------
BASIS SET INFORMATION
---------------------
There are 1 groups of distinct atoms

 Group   1 Type Mn  : 218s133p57d5f4g3h2i contracted to 10s9p7d5f4g3h2i pattern {272727272727272711/1919181819191911/111111111111/11111/1111/111/11}

Atom   0Mn   basis set group =>   1


           ************************************************************
           *        Program running with 24 parallel MPI-processes    *
           *              working on a common directory               *
           ************************************************************
------------------------------------------------------------------------------
                           ORCA GTO INTEGRAL CALCULATION
------------------------------------------------------------------------------

                         BASIS SET STATISTICS AND STARTUP INFO

 # of primitive gaussian shells          ...  422
 # of primitive gaussian functions       ... 1032
 # of contracted shells                  ...   40
 # of contracted basis functions         ...  202
 Highest angular momentum                ...    6
 Maximum contraction depth               ...   27
 Integral package used                   ... LIBINT
 Integral threshhold            Thresh   ...  2.500e-11
 Primitive cut-off              TCut     ...  2.500e-12


------------------------------ INTEGRAL EVALUATION ----------------------------


 * One electron integrals 
 Pre-screening matrix                    ... done
 Shell pair data                         ... done (   0.003 sec)



           ************************************************************
           *        Program running with 24 parallel MPI-processes    *
           *              working on a common directory               *
           ************************************************************
-------------------------------------------------------------------------------
                                 ORCA SCF
-------------------------------------------------------------------------------

------------
SCF SETTINGS
------------
Hamiltonian:
 Ab initio Hamiltonian  Method          .... Hartree-Fock(GTOs)


General Settings:
 Integral files         IntName         .... 25_Mn
 Hartree-Fock type      HFTyp           .... UHF
 Total Charge           Charge          ....    0
 Multiplicity           Mult            ....    6
 Number of Electrons    NEL             ....   25
 Basis Dimension        Dim             ....  202
 Nuclear Repulsion      ENuc            ....      0.0000000000 Eh

Convergence Acceleration:
 DIIS                   CNVDIIS         .... on
   Start iteration      DIISMaxIt       ....    12
   Startup error        DIISStart       ....  0.200000
   # of expansion vecs  DIISMaxEq       ....     5
   Bias factor          DIISBfac        ....   1.050
   Max. coefficient     DIISMaxC        ....  10.000
 Newton-Raphson         CNVNR           .... off
 SOSCF                  CNVSOSCF        .... off
 Level Shifting         CNVShift        .... on
   Level shift para.    LevelShift      ....    0.2500
   Turn off err/grad.   ShiftErr        ....    0.0010
 Zerner damping         CNVZerner       .... off
 Static damping         CNVDamp         .... on
   Fraction old density DampFac         ....    0.7000
   Max. Damping (<1)    DampMax         ....    0.9800
   Min. Damping (>=0)   DampMin         ....    0.0000
   Turn off err/grad.   DampErr         ....    0.1000
 Fernandez-Rico         CNVRico         .... off

SCF Procedure:
 Maximum # iterations   MaxIter         ....   125
 SCF integral mode      SCFMode         .... Direct
   Integral package                     .... LIBINT
 Reset frequency        DirectResetFreq ....    20
 Integral Threshold     Thresh          ....  2.500e-11 Eh
 Primitive CutOff       TCut            ....  2.500e-12 Eh

Convergence Tolerance:
 Convergence Check Mode ConvCheckMode   .... Total+1el-Energy
 Convergence forced     ConvForced      .... 1
 Energy Change          TolE            ....  1.000e-08 Eh
 1-El. energy change                    ....  1.000e-05 Eh
 DIIS Error             TolErr          ....  5.000e-07


Diagonalization of the overlap matrix:
Smallest eigenvalue                        ... 3.042e-05
Time for diagonalization                   ...    0.008 sec
Threshold for overlap eigenvalues          ... 1.000e-08
Number of eigenvalues below threshold      ... 0
Time for construction of square roots      ...    0.006 sec
Total time needed                          ...    0.014 sec

-------------------
DFT GRID GENERATION
-------------------

General Integration Accuracy     IntAcc      ...  4.340
Radial Grid Type                 RadialGrid  ... Gauss-Chebyshev
Angular Grid (max. acc.)         AngularGrid ... Lebedev-110
Angular grid pruning method      GridPruning ... 3 (G Style)
Weight generation scheme         WeightScheme... Becke
Basis function cutoff            BFCut       ...    1.0000e-11
Integration weight cutoff        WCut        ...    1.0000e-14
Grids for H and He will be reduced by one unit

# of grid points (after initial pruning)     ...   2912 (   0.0 sec)
# of grid points (after weights+screening)   ...   2912 (   0.0 sec)
Grid point division into batches done        ...    0.0 sec
Reduced shell lists constructed in    0.0 sec

Total number of grid points                  ...     2912
Total number of batches                      ...       46
Average number of points per batch           ...       63
Average number of grid points per atom       ...     2912
Average number of shells per batch           ...    20.00 (50.00%)
Average number of basis functions per batch  ...    70.67 (34.98%)
Average number of large shells per batch     ...    16.67 (83.33%)
Average number of large basis fcns per batch ...    58.00 (82.08%)
Maximum spatial batch extension              ...  18.98, 28.73, 28.73 au
Average spatial batch extension              ...   0.83,  1.25,  1.25 au

Time for grid setup =    0.028 sec

------------------------------
INITIAL GUESS: MODEL POTENTIAL
------------------------------
Loading Hartree-Fock densities                     ... done
Calculating cut-offs                               ... done
Setting up the integral package                    ... done
Initializing the effective Hamiltonian             ... done
Starting the Coulomb interaction                   ... done (   0.0 sec)
Reading the grid                                   ... done
Mapping shells                                     ... done
Starting the XC term evaluation                    ... done (   0.0 sec)
Transforming the Hamiltonian                       ... done (   0.0 sec)
Diagonalizing the Hamiltonian                      ... done (   0.0 sec)
Back transforming the eigenvectors                 ... done (   0.0 sec)
Now organizing SCF variables                       ... done
                      ------------------
                      INITIAL GUESS DONE (   0.2 sec)
                      ------------------
--------------
SCF ITERATIONS
--------------
ITER       Energy         Delta-E        Max-DP      RMS-DP      [F,P]     Damp
               ***  Starting incremental Fock matrix formation  ***
  0  -1149.7046474343   0.000000000000 0.14568289  0.00176377  0.2314904 0.7000
  1  -1149.7192319093  -0.014584475008 0.10241597  0.00124264  0.1709036 0.7000
                               ***Turning on DIIS***
  2  -1149.7284101237  -0.009178214408 0.07092068  0.00086429  0.1246276 0.7000
  3  -1150.0128698673  -0.284459743567 0.16702350  0.00203472  0.0899171 0.0000
  4  -1149.7676569227   0.245212944603 0.01434530  0.00013477  0.0173278 0.0000
  5  -1149.7288774448   0.038779477895 0.01103605  0.00006964  0.0064806 0.0000
  6  -1149.7835140327  -0.054636587928 0.01335979  0.00007873  0.0062590 0.0000
  7  -1149.7550802940   0.028433738732 0.00990116  0.00005436  0.0019903 0.0000
  8  -1149.7558040239  -0.000723729936 0.01048896  0.00004421  0.0010988 0.0000
  9  -1149.7586792185  -0.002875194597 0.01596675  0.00006123  0.0006520 0.0000
 10  -1149.7540669566   0.004612261924 0.00299802  0.00001175  0.0002578 0.0000
 11  -1149.7543048860  -0.000237929343 0.00012775  0.00000077  0.0000601 0.0000
 12  -1149.7535220656   0.000782820366 0.00011458  0.00000069  0.0000273 0.0000
 13  -1149.7535236068  -0.000001541232 0.00003025  0.00000017  0.0000043 0.0000
 14  -1149.7535003644   0.000023242382 0.00001280  0.00000009  0.0000022 0.0000
 15  -1149.7535002156   0.000000148838 0.00000917  0.00000005  0.0000013 0.0000
                            ***DIIS convergence achieved***

               *****************************************************
               *                     SUCCESS                       *
               *           SCF CONVERGED AFTER  16 CYCLES          *
               *****************************************************


----------------
TOTAL SCF ENERGY
----------------

Total Energy       :        -1149.75350243 Eh          -31286.38337 eV

Components:
Nuclear Repulsion  :            0.00000000 Eh               0.00000 eV
Electronic Energy  :        -1149.75350243 Eh          -31286.38337 eV
One Electron Energy:        -1589.60814552 Eh          -43255.43670 eV
Two Electron Energy:          439.85464309 Eh           11969.05333 eV

Virial components:
Potential Energy   :        -2299.48496332 Eh          -62572.16696 eV
Kinetic Energy     :         1149.73146088 Eh           31285.78359 eV
Virial Ratio       :            2.00001917


---------------
SCF CONVERGENCE
---------------

  Last Energy change         ...   -2.2183e-06  Tolerance :   1.0000e-08
  Last MAX-Density change    ...    5.9969e-06  Tolerance :   1.0000e-07
  Last RMS-Density change    ...    3.6882e-08  Tolerance :   5.0000e-09
  Last DIIS Error            ...    9.0705e-07  Tolerance :   5.0000e-07

             **** THE GBW FILE WAS UPDATED (25_Mn.gbw) ****
             **** DENSITY FILE WAS UPDATED (25_Mn.scfp) ****
             **** ENERGY FILE WAS UPDATED (25_Mn.en.tmp) ****
----------------------
UHF SPIN CONTAMINATION
----------------------

Expectation value of <S**2>     :     8.761037
Ideal value S*(S+1) for S=2.5   :     8.750000
Deviation                       :     0.011037

             **** THE GBW FILE WAS UPDATED (25_Mn.gbw) ****
             **** DENSITY FILE WAS UPDATED (25_Mn.scfp) ****
----------------
ORBITAL ENERGIES
----------------
                 SPIN UP ORBITALS
  NO   OCC          E(Eh)            E(eV) 
   0   1.0000    -240.358983     -6540.5004 
   1   1.0000     -28.962335      -788.1052 
   2   1.0000     -24.683999      -671.6858 
   3   1.0000     -24.658803      -671.0001 
   4   1.0000     -24.658803      -671.0001 
   5   1.0000      -3.783897      -102.9651 
   6   1.0000      -2.533912       -68.9512 
   7   1.0000      -2.471404       -67.2503 
   8   1.0000      -2.471404       -67.2503 
   9   1.0000      -0.447506       -12.1773 
  10   1.0000      -0.440190       -11.9782 
  11   1.0000      -0.440190       -11.9782 
  12   1.0000      -0.416334       -11.3290 
  13   1.0000      -0.371847       -10.1185 
  14   1.0000      -0.226476        -6.1627 
  15   0.0000       0.016504         0.4491 
  16   0.0000       0.018827         0.5123 
  17   0.0000       0.018827         0.5123 
  18   0.0000       0.023769         0.6468 
  19   0.0000       0.056631         1.5410 
  20   0.0000       0.056752         1.5443 
  21   0.0000       0.056752         1.5443 
  22   0.0000       0.057129         1.5546 
  23   0.0000       0.057301         1.5593 
  24   0.0000       0.058365         1.5882 
  25   0.0000       0.062956         1.7131 
  26   0.0000       0.062956         1.7131 
  27   0.0000       0.123753         3.3675 
  28   0.0000       0.180527         4.9124 
  29   0.0000       0.181117         4.9284 
  30   0.0000       0.181117         4.9284 
  31   0.0000       0.183040         4.9808 
  32   0.0000       0.184828         5.0294 
  33   0.0000       0.196425         5.3450 
  34   0.0000       0.203427         5.5355 
  35   0.0000       0.203427         5.5355 
  36   0.0000       0.352667         9.5966 
  37   0.0000       0.352983         9.6052 
  38   0.0000       0.352983         9.6052 
  39   0.0000       0.353706         9.6248 
  40   0.0000       0.354614         9.6495 
  41   0.0000       0.356465         9.6999 
  42   0.0000       0.356465         9.6999 
  43   0.0000       0.398154        10.8343 
  44   0.0000       0.517702        14.0874 
  45   0.0000       0.519469        14.1355 
  46   0.0000       0.519469        14.1355 
  47   0.0000       0.525502        14.2996 
  48   0.0000       0.533175        14.5084 
  49   0.0000       0.585488        15.9319 
  50   0.0000       0.598882        16.2964 
  51   0.0000       0.598882        16.2964 
  52   0.0000       0.963384        26.2150 
  53   0.0000       0.963666        26.2227 
  54   0.0000       0.963666        26.2227 
  55   0.0000       0.964145        26.2357 
  56   0.0000       0.966262        26.2933 
  57   0.0000       0.967855        26.3367 
  58   0.0000       0.967855        26.3367 
  59   0.0000       0.971564        26.4376 
  60   0.0000       0.971660        26.4402 
  61   0.0000       1.087339        29.5880 
  62   0.0000       1.109673        30.1957 
  63   0.0000       1.110651        30.2224 
  64   0.0000       1.110651        30.2224 
  65   0.0000       1.112668        30.2772 
  66   0.0000       1.118007        30.4225 
  67   0.0000       1.124954        30.6116 
  68   0.0000       1.124954        30.6116 
  69   0.0000       1.471019        40.0285 
  70   0.0000       1.474461        40.1221 
  71   0.0000       1.474461        40.1221 
  72   0.0000       1.486477        40.4491 
  73   0.0000       1.504010        40.9262 
  74   0.0000       1.682900        45.7940 
  75   0.0000       1.707412        46.4610 
  76   0.0000       1.707412        46.4610 
  77   0.0000       2.479225        67.4631 
  78   0.0000       2.479399        67.4679 
  79   0.0000       2.479399        67.4679 
  80   0.0000       2.479622        67.4739 
  81   0.0000       2.484200        67.5985 
  82   0.0000       2.485668        67.6385 
  83   0.0000       2.485668        67.6385 
  84   0.0000       2.489416        67.7405 
  85   0.0000       2.489962        67.7553 
  86   0.0000       2.496189        67.9248 
  87   0.0000       2.496189        67.9248 
  88   0.0000       2.876460        78.2725 
  89   0.0000       2.877003        78.2872 
  90   0.0000       2.877003        78.2872 
  91   0.0000       2.877814        78.3093 
  92   0.0000       2.886235        78.5384 
  93   0.0000       2.890596        78.6571 
  94   0.0000       2.890596        78.6571 
  95   0.0000       2.901983        78.9670 
  96   0.0000       2.902465        78.9801 
  97   0.0000       2.954991        80.4094 
  98   0.0000       2.956889        80.4611 
  99   0.0000       2.956889        80.4611 
 100   0.0000       2.960578        80.5614 
 101   0.0000       2.977242        81.0149 
 102   0.0000       2.994021        81.4714 
 103   0.0000       2.994021        81.4714 
 104   0.0000       3.101534        84.3970 
 105   0.0000       4.029086       109.6370 
 106   0.0000       4.034227       109.7769 
 107   0.0000       4.034227       109.7769 
 108   0.0000       4.052150       110.2646 
 109   0.0000       4.080908       111.0471 
 110   0.0000       4.684516       127.4722 
 111   0.0000       4.723483       128.5325 
 112   0.0000       4.723483       128.5325 
 113   0.0000       6.912828       188.1076 
 114   0.0000       6.912917       188.1100 
 115   0.0000       6.912917       188.1100 
 116   0.0000       6.913020       188.1128 
 117   0.0000       6.925900       188.4633 
 118   0.0000       6.928869       188.5441 
 119   0.0000       6.928869       188.5441 
 120   0.0000       6.936943       188.7638 
 121   0.0000       6.938768       188.8135 
 122   0.0000       6.953294       189.2088 
 123   0.0000       6.953294       189.2088 
 124   0.0000       7.544603       205.2991 
 125   0.0000       7.544610       205.2993 
 126   0.0000       7.544610       205.2993 
 127   0.0000       7.544616       205.2994 
 128   0.0000       7.555086       205.5843 
 129   0.0000       7.556605       205.6257 
 130   0.0000       7.556605       205.6257 
 131   0.0000       7.560344       205.7274 
 132   0.0000       7.562584       205.7884 
 133   0.0000       7.569785       205.9843 
 134   0.0000       7.569785       205.9843 
 135   0.0000       7.581802       206.3113 
 136   0.0000       7.581831       206.3121 
 137   0.0000       7.712455       209.8666 
 138   0.0000       7.715075       209.9379 
 139   0.0000       7.715075       209.9379 
 140   0.0000       7.720110       210.0749 
 141   0.0000       7.745843       210.7751 
 142   0.0000       7.770425       211.4440 
 143   0.0000       7.770425       211.4440 
 144   0.0000       8.016014       218.1268 
 145   0.0000       8.016580       218.1422 
 146   0.0000       8.016580       218.1422 
 147   0.0000       8.017362       218.1635 
 148   0.0000       8.036954       218.6966 
 149   0.0000       8.045015       218.9160 
 150   0.0000       8.045015       218.9160 
 151   0.0000       8.067645       219.5318 
 152   0.0000       8.068849       219.5645 
 153   0.0000       9.958920       270.9960 
 154   0.0000      11.226979       305.5016 
 155   0.0000      11.232747       305.6586 
 156   0.0000      11.232747       305.6586 
 157   0.0000      11.251742       306.1755 
 158   0.0000      11.279903       306.9418 
 159   0.0000      12.301862       334.7507 
 160   0.0000      12.346324       335.9606 
 161   0.0000      12.346324       335.9606 
 162   0.0000      19.402816       527.9775 
 163   0.0000      19.402999       527.9825 
 164   0.0000      19.402999       527.9825 
 165   0.0000      19.403180       527.9874 
 166   0.0000      19.421880       528.4962 
 167   0.0000      19.424008       528.5541 
 168   0.0000      19.424008       528.5541 
 169   0.0000      19.429175       528.6947 
 170   0.0000      19.433728       528.8186 
 171   0.0000      19.444792       529.1197 
 172   0.0000      19.444792       529.1197 
 173   0.0000      19.464469       529.6551 
 174   0.0000      19.464539       529.6570 
 175   0.0000      20.774694       565.3082 
 176   0.0000      20.774805       565.3112 
 177   0.0000      20.774805       565.3112 
 178   0.0000      20.774906       565.3139 
 179   0.0000      20.797054       565.9166 
 180   0.0000      20.801520       566.0381 
 181   0.0000      20.801520       566.0381 
 182   0.0000      20.813983       566.3773 
 183   0.0000      20.817319       566.4680 
 184   0.0000      20.840589       567.1013 
 185   0.0000      20.840589       567.1013 
 186   0.0000      21.826619       593.9325 
 187   0.0000      21.829479       594.0103 
 188   0.0000      21.829479       594.0103 
 189   0.0000      21.835116       594.1637 
 190   0.0000      21.857869       594.7829 
 191   0.0000      21.881600       595.4286 
 192   0.0000      21.881600       595.4286 
 193   0.0000      22.633860       615.8986 
 194   0.0000      22.634631       615.9196 
 195   0.0000      22.634631       615.9196 
 196   0.0000      22.635707       615.9489 
 197   0.0000      22.659018       616.5832 
 198   0.0000      22.668893       616.8519 
 199   0.0000      22.668893       616.8519 
 200   0.0000      22.696307       617.5979 
 201   0.0000      22.697710       617.6361 

                 SPIN DOWN ORBITALS
  NO   OCC          E(Eh)            E(eV) 
   0   1.0000    -240.357889     -6540.4707 
   1   1.0000     -28.863016      -785.4026 
   2   1.0000     -24.572249      -668.6449 
   3   1.0000     -24.572249      -668.6449 
   4   1.0000     -24.572098      -668.6408 
   5   1.0000      -3.467462       -94.3544 
   6   1.0000      -2.128892       -57.9301 
   7   1.0000      -2.128892       -57.9301 
   8   1.0000      -2.081767       -56.6478 
   9   1.0000      -0.228245        -6.2109 
  10   0.0000       0.007486         0.2037 
  11   0.0000       0.025309         0.6887 
  12   0.0000       0.025678         0.6987 
  13   0.0000       0.025678         0.6987 
  14   0.0000       0.047004         1.2790 
  15   0.0000       0.057285         1.5588 
  16   0.0000       0.057397         1.5618 
  17   0.0000       0.057397         1.5618 
  18   0.0000       0.057739         1.5712 
  19   0.0000       0.058391         1.5889 
  20   0.0000       0.088538         2.4092 
  21   0.0000       0.089162         2.4262 
  22   0.0000       0.089162         2.4262 
  23   0.0000       0.159363         4.3365 
  24   0.0000       0.179289         4.8787 
  25   0.0000       0.180150         4.9021 
  26   0.0000       0.180150         4.9021 
  27   0.0000       0.182565         4.9678 
  28   0.0000       0.196050         5.3348 
  29   0.0000       0.239582         6.5194 
  30   0.0000       0.240407         6.5418 
  31   0.0000       0.240407         6.5418 
  32   0.0000       0.361336         9.8324 
  33   0.0000       0.363494         9.8912 
  34   0.0000       0.363577         9.8934 
  35   0.0000       0.363577         9.8934 
  36   0.0000       0.363785         9.8991 
  37   0.0000       0.364737         9.9250 
  38   0.0000       0.365049         9.9335 
  39   0.0000       0.365049         9.9335 
  40   0.0000       0.368327        10.0227 
  41   0.0000       0.368327        10.0227 
  42   0.0000       0.388110        10.5610 
  43   0.0000       0.440693        11.9919 
  44   0.0000       0.566355        15.4113 
  45   0.0000       0.640082        17.4175 
  46   0.0000       0.643397        17.5077 
  47   0.0000       0.643397        17.5077 
  48   0.0000       0.652674        17.7602 
  49   0.0000       0.658933        17.9305 
  50   0.0000       0.658933        17.9305 
  51   0.0000       0.678500        18.4629 
  52   0.0000       0.977462        26.5981 
  53   0.0000       0.977772        26.6065 
  54   0.0000       0.977772        26.6065 
  55   0.0000       0.978682        26.6313 
  56   0.0000       0.978731        26.6326 
  57   0.0000       0.980287        26.6750 
  58   0.0000       0.980287        26.6750 
  59   0.0000       0.982519        26.7357 
  60   0.0000       0.982523        26.7358 
  61   0.0000       1.137579        30.9551 
  62   0.0000       1.156388        31.4669 
  63   0.0000       1.156388        31.4669 
  64   0.0000       1.156710        31.4757 
  65   0.0000       1.160281        31.5728 
  66   0.0000       1.163676        31.6652 
  67   0.0000       1.163676        31.6652 
  68   0.0000       1.165819        31.7235 
  69   0.0000       1.553589        42.2753 
  70   0.0000       1.608282        43.7636 
  71   0.0000       1.613853        43.9152 
  72   0.0000       1.613853        43.9152 
  73   0.0000       1.630839        44.3774 
  74   0.0000       1.754780        47.7500 
  75   0.0000       1.764642        48.0183 
  76   0.0000       1.764642        48.0183 
  77   0.0000       2.497545        67.9617 
  78   0.0000       2.497907        67.9715 
  79   0.0000       2.497907        67.9715 
  80   0.0000       2.498580        67.9898 
  81   0.0000       2.500156        68.0327 
  82   0.0000       2.501773        68.0767 
  83   0.0000       2.501773        68.0767 
  84   0.0000       2.504969        68.1637 
  85   0.0000       2.505052        68.1659 
  86   0.0000       2.509557        68.2885 
  87   0.0000       2.509557        68.2885 
  88   0.0000       2.921404        79.4955 
  89   0.0000       2.922154        79.5158 
  90   0.0000       2.922154        79.5158 
  91   0.0000       2.923748        79.5592 
  92   0.0000       2.925463        79.6059 
  93   0.0000       2.928465        79.6876 
  94   0.0000       2.928465        79.6876 
  95   0.0000       2.933222        79.8170 
  96   0.0000       2.933261        79.8181 
  97   0.0000       3.084474        83.9328 
  98   0.0000       3.084474        83.9328 
  99   0.0000       3.087081        84.0037 
 100   0.0000       3.100940        84.3809 
 101   0.0000       3.108463        84.5856 
 102   0.0000       3.108463        84.5856 
 103   0.0000       3.115058        84.7650 
 104   0.0000       3.174288        86.3768 
 105   0.0000       4.143630       112.7539 
 106   0.0000       4.174500       113.5939 
 107   0.0000       4.181606       113.7873 
 108   0.0000       4.181606       113.7873 
 109   0.0000       4.203420       114.3809 
 110   0.0000       4.775515       129.9484 
 111   0.0000       4.795673       130.4969 
 112   0.0000       4.795673       130.4969 
 113   0.0000       6.962084       189.4479 
 114   0.0000       6.962879       189.4696 
 115   0.0000       6.962879       189.4696 
 116   0.0000       6.964441       189.5121 
 117   0.0000       6.967287       189.5895 
 118   0.0000       6.970813       189.6855 
 119   0.0000       6.970813       189.6855 
 120   0.0000       6.977518       189.8679 
 121   0.0000       6.977637       189.8711 
 122   0.0000       6.986930       190.1240 
 123   0.0000       6.986930       190.1240 
 124   0.0000       7.574855       206.1223 
 125   0.0000       7.575174       206.1310 
 126   0.0000       7.575174       206.1310 
 127   0.0000       7.575598       206.1425 
 128   0.0000       7.580633       206.2795 
 129   0.0000       7.582400       206.3276 
 130   0.0000       7.582400       206.3276 
 131   0.0000       7.586469       206.4383 
 132   0.0000       7.587172       206.4574 
 133   0.0000       7.593408       206.6271 
 134   0.0000       7.593408       206.6271 
 135   0.0000       7.602289       206.8688 
 136   0.0000       7.602294       206.8689 
 137   0.0000       7.904119       215.0820 
 138   0.0000       7.904119       215.0820 
 139   0.0000       7.905837       215.1288 
 140   0.0000       7.919633       215.5042 
 141   0.0000       7.930831       215.8089 
 142   0.0000       7.930831       215.8089 
 143   0.0000       7.939013       216.0315 
 144   0.0000       8.126810       221.1417 
 145   0.0000       8.127844       221.1699 
 146   0.0000       8.127844       221.1699 
 147   0.0000       8.129527       221.2157 
 148   0.0000       8.135277       221.3722 
 149   0.0000       8.138969       221.4726 
 150   0.0000       8.138969       221.4726 
 151   0.0000       8.145282       221.6444 
 152   0.0000       8.145673       221.6550 
 153   0.0000      10.041940       273.2551 
 154   0.0000      11.335431       308.4528 
 155   0.0000      11.345195       308.7184 
 156   0.0000      11.352363       308.9135 
 157   0.0000      11.352363       308.9135 
 158   0.0000      11.374302       309.5105 
 159   0.0000      12.392131       337.2070 
 160   0.0000      12.418419       337.9224 
 161   0.0000      12.418419       337.9224 
 162   0.0000      19.464121       529.6456 
 163   0.0000      19.464561       529.6576 
 164   0.0000      19.464561       529.6576 
 165   0.0000      19.465131       529.6731 
 166   0.0000      19.473240       529.8938 
 167   0.0000      19.475846       529.9647 
 168   0.0000      19.475846       529.9647 
 169   0.0000      19.481923       530.1301 
 170   0.0000      19.483113       530.1625 
 171   0.0000      19.492581       530.4201 
 172   0.0000      19.492581       530.4201 
 173   0.0000      19.506242       530.7918 
 174   0.0000      19.506252       530.7921 
 175   0.0000      20.873816       568.0054 
 176   0.0000      20.875038       568.0387 
 177   0.0000      20.875038       568.0387 
 178   0.0000      20.877572       568.1076 
 179   0.0000      20.881124       568.2043 
 180   0.0000      20.886523       568.3512 
 181   0.0000      20.886523       568.3512 
 182   0.0000      20.896367       568.6191 
 183   0.0000      20.896499       568.6227 
 184   0.0000      20.909952       568.9887 
 185   0.0000      20.909952       568.9887 
 186   0.0000      21.969323       597.8157 
 187   0.0000      21.969494       597.8203 
 188   0.0000      21.969494       597.8203 
 189   0.0000      21.970640       597.8515 
 190   0.0000      21.985645       598.2598 
 191   0.0000      21.986022       598.2701 
 192   0.0000      21.986022       598.2701 
 193   0.0000      22.765499       619.4807 
 194   0.0000      22.767135       619.5252 
 195   0.0000      22.767135       619.5252 
 196   0.0000      22.770497       619.6167 
 197   0.0000      22.774700       619.7311 
 198   0.0000      22.781082       619.9047 
 199   0.0000      22.781082       619.9047 
 200   0.0000      22.791352       620.1842 
 201   0.0000      22.791499       620.1882 

                    ********************************
                    * MULLIKEN POPULATION ANALYSIS *
                    ********************************

--------------------------------------------
MULLIKEN ATOMIC CHARGES AND SPIN POPULATIONS
--------------------------------------------
   0 Mn:   -0.000000    5.000000
Sum of atomic charges         :   -0.0000000
Sum of atomic spin populations:    5.0000000

-----------------------------------------------------
MULLIKEN REDUCED ORBITAL CHARGES AND SPIN POPULATIONS
-----------------------------------------------------
CHARGE
  0 Mns       :     6.999559  s :     6.999559
      pz      :     3.999963  p :    11.999387
      px      :     3.999712
      py      :     3.999712
      dz2     :     1.000377  d :     6.000274
      dxz     :     0.999969
      dyz     :     0.999969
      dx2y2   :     0.999988
      dxy     :     1.999970
      f0      :     0.000036  f :     0.000607
      f+1     :     0.000035
      f-1     :     0.000035
      f+2     :     0.000000
      f-2     :     0.000000
      f+3     :     0.000250
      f-3     :     0.000250
      g0      :     0.000031  g :     0.000164
      g+1     :     0.000027
      g-1     :     0.000027
      g+2     :     0.000011
      g-2     :     0.000028
      g+3     :     0.000003
      g-3     :     0.000003
      g+4     :     0.000033
      g-4     :     0.000000
      h0      :     0.000000  h :     0.000006
      h+1     :     0.000000
      h-1     :     0.000000
      h+2     :     0.000000
      h-2     :     0.000000
      h+3     :     0.000000
      h-3     :     0.000000
      h+4     :     0.000001
      h-4     :     0.000000
      h+5     :     0.000002
      h-5     :     0.000002
      i0      :     0.000000  i :     0.000004
      i+1     :     0.000000
      i-1     :     0.000000
      i+2     :     0.000000
      i-2     :     0.000000
      i+3     :     0.000000
      i-3     :     0.000000
      i+4     :     0.000000
      i-4     :     0.000000
      i+5     :     0.000000
      i-5     :     0.000000
      i+6     :     0.000001
      i-6     :     0.000001

SPIN
  0 Mns       :     0.999597  s :     0.999597
      pz      :    -0.000026  p :     0.000380
      px      :     0.000203
      py      :     0.000203
      dz2     :     1.000369  d :     4.000267
      dxz     :     0.999969
      dyz     :     0.999969
      dx2y2   :     0.999988
      dxy     :    -0.000028
      f0      :     0.000025  f :    -0.000381
      f+1     :     0.000024
      f-1     :     0.000024
      f+2     :     0.000000
      f-2     :    -0.000000
      f+3     :    -0.000228
      f-3     :    -0.000228
      g0      :     0.000030  g :     0.000132
      g+1     :     0.000027
      g-1     :     0.000027
      g+2     :     0.000011
      g-2     :     0.000027
      g+3     :     0.000003
      g-3     :     0.000003
      g+4     :     0.000004
      g-4     :     0.000000
      h0      :     0.000000  h :     0.000002
      h+1     :     0.000000
      h-1     :     0.000000
      h+2     :    -0.000000
      h-2     :     0.000000
      h+3     :     0.000000
      h-3     :     0.000000
      h+4     :     0.000000
      h-4     :     0.000000
      h+5     :     0.000001
      h-5     :     0.000001
      i0      :     0.000000  i :     0.000004
      i+1     :     0.000000
      i-1     :     0.000000
      i+2     :     0.000000
      i-2     :     0.000000
      i+3     :     0.000000
      i-3     :     0.000000
      i+4     :     0.000000
      i-4     :     0.000000
      i+5     :     0.000000
      i-5     :     0.000000
      i+6     :     0.000001
      i-6     :     0.000001


                     *******************************
                     * LOEWDIN POPULATION ANALYSIS *
                     *******************************

-------------------------------------------
LOEWDIN ATOMIC CHARGES AND SPIN POPULATIONS
-------------------------------------------
   0 Mn:   -0.000000    5.000000

----------------------------------------------------
LOEWDIN REDUCED ORBITAL CHARGES AND SPIN POPULATIONS
----------------------------------------------------
CHARGE
  0 Mns       :     6.999559  s :     6.999559
      pz      :     3.999963  p :    11.999387
      px      :     3.999712
      py      :     3.999712
      dz2     :     1.000377  d :     6.000274
      dxz     :     0.999969
      dyz     :     0.999969
      dx2y2   :     0.999988
      dxy     :     1.999970
      f0      :     0.000036  f :     0.000607
      f+1     :     0.000035
      f-1     :     0.000035
      f+2     :     0.000000
      f-2     :     0.000000
      f+3     :     0.000250
      f-3     :     0.000250
      g0      :     0.000031  g :     0.000164
      g+1     :     0.000027
      g-1     :     0.000027
      g+2     :     0.000011
      g-2     :     0.000028
      g+3     :     0.000003
      g-3     :     0.000003
      g+4     :     0.000033
      g-4     :     0.000000
      h0      :     0.000000  h :     0.000006
      h+1     :     0.000000
      h-1     :     0.000000
      h+2     :     0.000000
      h-2     :     0.000000
      h+3     :     0.000000
      h-3     :     0.000000
      h+4     :     0.000001
      h-4     :     0.000000
      h+5     :     0.000002
      h-5     :     0.000002
      i0      :     0.000000  i :     0.000004
      i+1     :     0.000000
      i-1     :     0.000000
      i+2     :     0.000000
      i-2     :     0.000000
      i+3     :     0.000000
      i-3     :     0.000000
      i+4     :     0.000000
      i-4     :     0.000000
      i+5     :     0.000000
      i-5     :     0.000000
      i+6     :     0.000001
      i-6     :     0.000001

SPIN
  0 Mns       :     0.999597  s :     0.999597
      pz      :    -0.000026  p :     0.000380
      px      :     0.000203
      py      :     0.000203
      dz2     :     1.000369  d :     4.000267
      dxz     :     0.999969
      dyz     :     0.999969
      dx2y2   :     0.999988
      dxy     :    -0.000028
      f0      :     0.000025  f :    -0.000381
      f+1     :     0.000024
      f-1     :     0.000024
      f+2     :     0.000000
      f-2     :    -0.000000
      f+3     :    -0.000228
      f-3     :    -0.000228
      g0      :     0.000030  g :     0.000132
      g+1     :     0.000027
      g-1     :     0.000027
      g+2     :     0.000011
      g-2     :     0.000027
      g+3     :     0.000003
      g-3     :     0.000003
      g+4     :     0.000004
      g-4     :     0.000000
      h0      :     0.000000  h :     0.000002
      h+1     :     0.000000
      h-1     :     0.000000
      h+2     :    -0.000000
      h-2     :     0.000000
      h+3     :     0.000000
      h-3     :     0.000000
      h+4     :     0.000000
      h-4     :     0.000000
      h+5     :     0.000001
      h-5     :     0.000001
      i0      :     0.000000  i :     0.000004
      i+1     :     0.000000
      i-1     :     0.000000
      i+2     :     0.000000
      i-2     :     0.000000
      i+3     :     0.000000
      i-3     :     0.000000
      i+4     :     0.000000
      i-4     :     0.000000
      i+5     :     0.000000
      i-5     :     0.000000
      i+6     :     0.000001
      i-6     :     0.000001


                      *****************************
                      * MAYER POPULATION ANALYSIS *
                      *****************************

  NA   - Mulliken gross atomic population
  ZA   - Total nuclear charge
  QA   - Mulliken gross atomic charge
  VA   - Mayer's total valence
  BVA  - Mayer's bonded valence
  FA   - Mayer's free valence

  ATOM       NA         ZA         QA         VA         BVA        FA
  0 Mn    25.0000    25.0000    -0.0000     5.0221     0.0000     5.0221

  Mayer bond orders larger than 0.100000


-------
TIMINGS
-------

Total SCF time: 0 days 0 hours 23 min 34 sec 

Total time                  ....    1414.114 sec
Sum of individual times     ....    1413.297 sec  ( 99.9%)

Fock matrix formation       ....    1412.834 sec  ( 99.9%)
Diagonalization             ....       0.185 sec  (  0.0%)
Density matrix formation    ....       0.022 sec  (  0.0%)
Population analysis         ....       0.011 sec  (  0.0%)
Initial guess               ....       0.137 sec  (  0.0%)
Orbital Transformation      ....       0.000 sec  (  0.0%)
Orbital Orthonormalization  ....       0.000 sec  (  0.0%)
DIIS solution               ....       0.079 sec  (  0.0%)


           ************************************************************
           *        Program running with 24 parallel MPI-processes    *
           *              working on a common directory               *
           ************************************************************


------------------------------------------------------------------------------- 
                              ORCA-MATRIX DRIVEN CI                            
------------------------------------------------------------------------------- 

--------------------------------
AUTOMATIC CHOICE OF INCORE LEVEL
--------------------------------

Memory available                           ...   2500.00 MB
Memory needed for S+T                      ...     44.02 MB
Memory needed for J+K                      ...     88.20 MB
Memory needed for DIIS                     ...    616.29 MB
Memory needed for 3-ext                    ...    498.90 MB
Memory needed for 4-ext                    ...   4689.68 MB
Memory needed for triples                  ...    249.45 MB
 -> Final InCoreLevel    ... 4
 -> check shows that triples correction can be computed


Wavefunction type
-----------------
Correlation treatment                      ...      CCSD     
Single excitations                         ... ON
Orbital optimization                       ... OFF
Calculation of Z vector                    ... OFF
Calculation of Brueckner orbitals          ... OFF
Perturbative triple excitations            ... ON
Calculation of F12 correction              ... OFF
Frozen core treatment                      ... chemical core (10 el)
Reference Wavefunction                     ... UHF
  Alpha-MOs occ    :     5 ...   14 ( 10 MO's/ 10 electrons)
  Beta-MOs occ     :     5 ...    9 (  5 MO's/  5 electrons)
  Alpha-MOs virt   :    15 ...  201 (187 MO's              )
  Beta-MOs virt    :    10 ...  201 (192 MO's              )
Number of AO's                             ...    202
Number of electrons                        ...     25
Number of correlated electrons             ...     15

Algorithmic settings
--------------------
Integral transformation                    ... AO direct full transformation
K(C) Formation                             ... FULL-MO TRAFO
Maximum number of iterations               ...        50
Convergence tolerance (max. residuum)      ... 1.000e-05
Level shift for amplitude update           ... 2.000e-01
Maximum number of DIIS vectors             ...         7
DIIS turned on at iteration                ...         0
Damping before turning on DIIS             ...     0.500
Damping after turning on DIIS              ...     0.000
Pair specific amplitude update             ... OFF
Natural orbital iterations                 ... OFF
Perturbative natural orbital generation    ... OFF
Printlevel                                 ... 2

Memory handling:
----------------
Maximum memory for working arrays          ...   2500 MB
Data storage in matrix containers          ... UNCOMPRESSED
Data type for integral storage             ... DOUBLE
In-Core Storage of quantities:
   Amplitudes+Sigma Vector      ... YES
   J+K operators                ... YES
   DIIS vectors                 ... YES
   3-external integrals         ... YES
   4-external integrals         ... NO


Initializing the integral package          ... done
Warning: reference  - re-canonicalizations have been set to INT 1 VIRT 1

--------------------------
UNRESTRICTED FOCK OPERATOR
--------------------------

<ss|ss>:         1540 b            0 skpd (  0.0%)    0.777 s ( 0.504 ms/b)
<ss|sp>:         4950 b            0 skpd (  0.0%)    7.265 s ( 1.468 ms/b)
<ss|sd>:         3850 b            0 skpd (  0.0%)    3.955 s ( 1.027 ms/b)
<ss|sf>:         2750 b            0 skpd (  0.0%)    0.358 s ( 0.130 ms/b)
<ss|sg>:         2200 b            0 skpd (  0.0%)    0.336 s ( 0.153 ms/b)
<ss|sh>:         1650 b            0 skpd (  0.0%)    0.351 s ( 0.213 ms/b)
<ss|si>:         1100 b            0 skpd (  0.0%)    0.253 s ( 0.230 ms/b)
<ss|pp>:         2475 b            0 skpd (  0.0%)    3.736 s ( 1.509 ms/b)
<ss|pd>:         3465 b            1 skpd (  0.0%)    2.890 s ( 0.834 ms/b)
<ss|pf>:         2475 b            0 skpd (  0.0%)    0.277 s ( 0.112 ms/b)
<ss|pg>:         1980 b            0 skpd (  0.0%)    0.336 s ( 0.169 ms/b)
<ss|ph>:         1485 b            0 skpd (  0.0%)    0.369 s ( 0.249 ms/b)
<ss|pi>:          990 b            0 skpd (  0.0%)    0.308 s ( 0.311 ms/b)
<ss|dd>:         1540 b            0 skpd (  0.0%)    0.964 s ( 0.626 ms/b)
<ss|df>:         1925 b            0 skpd (  0.0%)    0.187 s ( 0.097 ms/b)
<ss|dg>:         1540 b            0 skpd (  0.0%)    0.163 s ( 0.106 ms/b)
<ss|dh>:         1155 b            0 skpd (  0.0%)    0.198 s ( 0.171 ms/b)
<ss|di>:          770 b            0 skpd (  0.0%)    0.257 s ( 0.334 ms/b)
<ss|ff>:          825 b            0 skpd (  0.0%)    0.011 s ( 0.013 ms/b)
<ss|fg>:         1100 b            0 skpd (  0.0%)    0.016 s ( 0.015 ms/b)
<ss|fh>:          825 b            0 skpd (  0.0%)    0.023 s ( 0.028 ms/b)
<ss|fi>:          550 b            0 skpd (  0.0%)    0.033 s ( 0.060 ms/b)
<ss|gg>:          550 b            0 skpd (  0.0%)    0.024 s ( 0.043 ms/b)
<ss|gh>:          660 b            0 skpd (  0.0%)    0.033 s ( 0.051 ms/b)
<ss|gi>:          440 b            0 skpd (  0.0%)    0.046 s ( 0.105 ms/b)
<ss|hh>:          330 b            0 skpd (  0.0%)    0.046 s ( 0.139 ms/b)
<ss|hi>:          330 b            0 skpd (  0.0%)    0.061 s ( 0.186 ms/b)
<ss|ii>:          165 b            0 skpd (  0.0%)    0.081 s ( 0.489 ms/b)
<sp|sp>:         4095 b            1 skpd (  0.0%)    5.885 s ( 1.438 ms/b)
<sp|sd>:         6300 b           15 skpd (  0.2%)    5.995 s ( 0.954 ms/b)
<sp|sf>:         4500 b           11 skpd (  0.2%)    0.536 s ( 0.119 ms/b)
<sp|sg>:         3600 b           11 skpd (  0.3%)    0.568 s ( 0.158 ms/b)
<sp|sh>:         2700 b            7 skpd (  0.3%)    0.637 s ( 0.236 ms/b)
<sp|si>:         1800 b            2 skpd (  0.1%)    0.507 s ( 0.282 ms/b)
<sp|pp>:         4050 b           10 skpd (  0.2%)    5.252 s ( 1.300 ms/b)
<sp|pd>:         5670 b            7 skpd (  0.1%)    4.154 s ( 0.734 ms/b)
<sp|pf>:         4050 b           31 skpd (  0.8%)    0.483 s ( 0.120 ms/b)
<sp|pg>:         3240 b           16 skpd (  0.5%)    0.630 s ( 0.196 ms/b)
<sp|ph>:         2430 b           45 skpd (  1.9%)    0.794 s ( 0.333 ms/b)
<sp|pi>:         1620 b           27 skpd (  1.7%)    0.622 s ( 0.391 ms/b)
<sp|dd>:         2520 b            0 skpd (  0.0%)    1.803 s ( 0.716 ms/b)
<sp|df>:         3150 b           16 skpd (  0.5%)    0.391 s ( 0.125 ms/b)
<sp|dg>:         2520 b           17 skpd (  0.7%)    0.326 s ( 0.130 ms/b)
<sp|dh>:         1890 b           11 skpd (  0.6%)    0.399 s ( 0.213 ms/b)
<sp|di>:         1260 b           17 skpd (  1.3%)    0.559 s ( 0.450 ms/b)
<sp|ff>:         1350 b           10 skpd (  0.7%)    0.026 s ( 0.020 ms/b)
<sp|fg>:         1800 b           11 skpd (  0.6%)    0.037 s ( 0.021 ms/b)
<sp|fh>:         1350 b           32 skpd (  2.4%)    0.053 s ( 0.040 ms/b)
<sp|fi>:          900 b           19 skpd (  2.1%)    0.069 s ( 0.079 ms/b)
<sp|gg>:          900 b            0 skpd (  0.0%)    0.053 s ( 0.059 ms/b)
<sp|gh>:         1080 b            3 skpd (  0.3%)    0.075 s ( 0.069 ms/b)
<sp|gi>:          720 b            4 skpd (  0.6%)    0.096 s ( 0.134 ms/b)
<sp|hh>:          540 b            8 skpd (  1.5%)    0.099 s ( 0.186 ms/b)
<sp|hi>:          540 b           15 skpd (  2.8%)    0.128 s ( 0.244 ms/b)
<sp|ii>:          270 b            0 skpd (  0.0%)    0.170 s ( 0.629 ms/b)
<sd|sd>:         2485 b            7 skpd (  0.3%)    1.621 s ( 0.654 ms/b)
<sd|sf>:         3500 b           21 skpd (  0.6%)    0.390 s ( 0.112 ms/b)
<sd|sg>:         2800 b           18 skpd (  0.6%)    0.416 s ( 0.150 ms/b)
<sd|sh>:         2100 b           17 skpd (  0.8%)    0.633 s ( 0.304 ms/b)
<sd|si>:         1400 b           11 skpd (  0.8%)    0.469 s ( 0.337 ms/b)
<sd|pp>:         3150 b           16 skpd (  0.5%)    3.048 s ( 0.973 ms/b)
<sd|pd>:         4410 b           40 skpd (  0.9%)    2.961 s ( 0.678 ms/b)
<sd|pf>:         3150 b           51 skpd (  1.6%)    0.399 s ( 0.129 ms/b)
<sd|pg>:         2520 b           54 skpd (  2.1%)    0.639 s ( 0.259 ms/b)
<sd|ph>:         1890 b           38 skpd (  2.0%)    0.938 s ( 0.507 ms/b)
<sd|pi>:         1260 b           37 skpd (  2.9%)    0.695 s ( 0.568 ms/b)
<sd|dd>:         1960 b            2 skpd (  0.1%)    1.508 s ( 0.770 ms/b)
<sd|df>:         2450 b           25 skpd (  1.0%)    0.414 s ( 0.171 ms/b)
<sd|dg>:         1960 b           18 skpd (  0.9%)    0.367 s ( 0.189 ms/b)
<sd|dh>:         1470 b           21 skpd (  1.4%)    0.534 s ( 0.368 ms/b)
<sd|di>:          980 b           14 skpd (  1.4%)    0.673 s ( 0.696 ms/b)
<sd|ff>:         1050 b           14 skpd (  1.3%)    0.034 s ( 0.032 ms/b)
<sd|fg>:         1400 b           26 skpd (  1.9%)    0.049 s ( 0.036 ms/b)
<sd|fh>:         1050 b           25 skpd (  2.4%)    0.070 s ( 0.068 ms/b)
<sd|fi>:          700 b           16 skpd (  2.3%)    0.089 s ( 0.130 ms/b)
<sd|gg>:          700 b            6 skpd (  0.9%)    0.072 s ( 0.104 ms/b)
<sd|gh>:          840 b           13 skpd (  1.5%)    0.099 s ( 0.119 ms/b)
<sd|gi>:          560 b            9 skpd (  1.6%)    0.126 s ( 0.228 ms/b)
<sd|hh>:          420 b            5 skpd (  1.2%)    0.135 s ( 0.326 ms/b)
<sd|hi>:          420 b            6 skpd (  1.4%)    0.166 s ( 0.401 ms/b)
<sd|ii>:          210 b            1 skpd (  0.5%)    0.214 s ( 1.024 ms/b)
<sf|sf>:         1275 b           12 skpd (  0.9%)    0.031 s ( 0.024 ms/b)
<sf|sg>:         2000 b           22 skpd (  1.1%)    0.068 s ( 0.034 ms/b)
<sf|sh>:         1500 b           16 skpd (  1.1%)    0.122 s ( 0.082 ms/b)
<sf|si>:         1000 b            8 skpd (  0.8%)    0.093 s ( 0.093 ms/b)
<sf|pp>:         2250 b           22 skpd (  1.0%)    0.486 s ( 0.218 ms/b)
<sf|pd>:         3150 b           30 skpd (  1.0%)    0.501 s ( 0.160 ms/b)
<sf|pf>:         2250 b           55 skpd (  2.4%)    0.068 s ( 0.031 ms/b)
<sf|pg>:         1800 b           42 skpd (  2.3%)    0.125 s ( 0.071 ms/b)
<sf|ph>:         1350 b           57 skpd (  4.2%)    0.194 s ( 0.150 ms/b)
<sf|pi>:          900 b           44 skpd (  4.9%)    0.147 s ( 0.172 ms/b)
<sf|dd>:         1400 b            2 skpd (  0.1%)    0.283 s ( 0.202 ms/b)
<sf|df>:         1750 b           28 skpd (  1.6%)    0.086 s ( 0.050 ms/b)
<sf|dg>:         1400 b           27 skpd (  1.9%)    0.078 s ( 0.057 ms/b)
<sf|dh>:         1050 b           25 skpd (  2.4%)    0.110 s ( 0.107 ms/b)
<sf|di>:          700 b           32 skpd (  4.6%)    0.149 s ( 0.223 ms/b)
<sf|ff>:          750 b           18 skpd (  2.4%)    0.008 s ( 0.011 ms/b)
<sf|fg>:         1000 b           27 skpd (  2.7%)    0.012 s ( 0.012 ms/b)
<sf|fh>:          750 b           38 skpd (  5.1%)    0.016 s ( 0.023 ms/b)
<sf|fi>:          500 b           23 skpd (  4.6%)    0.021 s ( 0.044 ms/b)
<sf|gg>:          500 b            4 skpd (  0.8%)    0.018 s ( 0.035 ms/b)
<sf|gh>:          600 b           12 skpd (  2.0%)    0.024 s ( 0.041 ms/b)
<sf|gi>:          400 b           11 skpd (  2.8%)    0.030 s ( 0.078 ms/b)
<sf|hh>:          300 b           12 skpd (  4.0%)    0.032 s ( 0.112 ms/b)
<sf|hi>:          300 b           16 skpd (  5.3%)    0.039 s ( 0.137 ms/b)
<sf|ii>:          150 b            4 skpd (  2.7%)    0.052 s ( 0.356 ms/b)
<sg|sg>:          820 b           10 skpd (  1.2%)    0.068 s ( 0.085 ms/b)
<sg|sh>:         1200 b           16 skpd (  1.3%)    0.213 s ( 0.180 ms/b)
<sg|si>:          800 b            8 skpd (  1.0%)    0.168 s ( 0.212 ms/b)
<sg|pp>:         1800 b           17 skpd (  0.9%)    0.697 s ( 0.391 ms/b)
<sg|pd>:         2520 b           46 skpd (  1.8%)    0.771 s ( 0.312 ms/b)
<sg|pf>:         1800 b           57 skpd (  3.2%)    0.109 s ( 0.062 ms/b)
<sg|pg>:         1440 b           59 skpd (  4.1%)    0.206 s ( 0.149 ms/b)
<sg|ph>:         1080 b           47 skpd (  4.4%)    0.327 s ( 0.316 ms/b)
<sg|pi>:          720 b           43 skpd (  6.0%)    0.257 s ( 0.380 ms/b)
<sg|dd>:         1120 b            2 skpd (  0.2%)    0.443 s ( 0.396 ms/b)
<sg|df>:         1400 b           28 skpd (  2.0%)    0.146 s ( 0.107 ms/b)
<sg|dg>:         1120 b           21 skpd (  1.9%)    0.136 s ( 0.123 ms/b)
<sg|dh>:          840 b           23 skpd (  2.7%)    0.192 s ( 0.235 ms/b)
<sg|di>:          560 b           13 skpd (  2.3%)    0.254 s ( 0.465 ms/b)
<sg|ff>:          600 b           18 skpd (  3.0%)    0.013 s ( 0.022 ms/b)
<sg|fg>:          800 b           26 skpd (  3.2%)    0.020 s ( 0.026 ms/b)
<sg|fh>:          600 b           31 skpd (  5.2%)    0.028 s ( 0.049 ms/b)
<sg|fi>:          400 b           19 skpd (  4.8%)    0.035 s ( 0.092 ms/b)
<sg|gg>:          400 b            4 skpd (  1.0%)    0.030 s ( 0.075 ms/b)
<sg|gh>:          480 b           11 skpd (  2.3%)    0.040 s ( 0.085 ms/b)
<sg|gi>:          320 b           10 skpd (  3.1%)    0.051 s ( 0.163 ms/b)
<sg|hh>:          240 b            8 skpd (  3.3%)    0.052 s ( 0.224 ms/b)
<sg|hi>:          240 b            8 skpd (  3.3%)    0.065 s ( 0.281 ms/b)
<sg|ii>:          120 b            3 skpd (  2.5%)    0.085 s ( 0.726 ms/b)
<sh|sh>:          465 b            6 skpd (  1.3%)    0.165 s ( 0.360 ms/b)
<sh|si>:          600 b            8 skpd (  1.3%)    0.247 s ( 0.417 ms/b)
<sh|pp>:         1350 b           22 skpd (  1.6%)    0.974 s ( 0.733 ms/b)
<sh|pd>:         1890 b           25 skpd (  1.3%)    1.162 s ( 0.623 ms/b)
<sh|pf>:         1350 b           63 skpd (  4.7%)    0.169 s ( 0.131 ms/b)
<sh|pg>:         1080 b           39 skpd (  3.6%)    0.306 s ( 0.294 ms/b)
<sh|ph>:          810 b           67 skpd (  8.3%)    0.450 s ( 0.606 ms/b)
<sh|pi>:          540 b           61 skpd ( 11.3%)    0.378 s ( 0.788 ms/b)
<sh|dd>:          840 b            1 skpd (  0.1%)    0.691 s ( 0.824 ms/b)
<sh|df>:         1050 b           31 skpd (  3.0%)    0.213 s ( 0.209 ms/b)
<sh|dg>:          840 b           17 skpd (  2.0%)    0.197 s ( 0.239 ms/b)
<sh|dh>:          630 b           25 skpd (  4.0%)    0.267 s ( 0.442 ms/b)
<sh|di>:          420 b           23 skpd (  5.5%)    0.364 s ( 0.916 ms/b)
<sh|ff>:          450 b           20 skpd (  4.4%)    0.019 s ( 0.044 ms/b)
<sh|fg>:          600 b           29 skpd (  4.8%)    0.029 s ( 0.050 ms/b)
<sh|fh>:          450 b           49 skpd ( 10.9%)    0.038 s ( 0.094 ms/b)
<sh|fi>:          300 b           34 skpd ( 11.3%)    0.049 s ( 0.184 ms/b)
<sh|gg>:          300 b            3 skpd (  1.0%)    0.041 s ( 0.138 ms/b)
<sh|gh>:          360 b           13 skpd (  3.6%)    0.056 s ( 0.160 ms/b)
<sh|gi>:          240 b            8 skpd (  3.3%)    0.070 s ( 0.304 ms/b)
<sh|hh>:          180 b           12 skpd (  6.7%)    0.072 s ( 0.428 ms/b)
<sh|hi>:          180 b           17 skpd (  9.4%)    0.086 s ( 0.527 ms/b)
<sh|ii>:           90 b            3 skpd (  3.3%)    0.116 s ( 1.332 ms/b)
<si|si>:          210 b            1 skpd (  0.5%)    0.298 s ( 1.424 ms/b)
<si|pp>:          900 b           11 skpd (  1.2%)    1.189 s ( 1.338 ms/b)
<si|pd>:         1260 b           24 skpd (  1.9%)    1.489 s ( 1.205 ms/b)
<si|pf>:          900 b           53 skpd (  5.9%)    0.228 s ( 0.270 ms/b)
<si|pg>:          720 b           32 skpd (  4.4%)    0.382 s ( 0.556 ms/b)
<si|ph>:          540 b           53 skpd (  9.8%)    0.581 s ( 1.193 ms/b)
<si|pi>:          360 b           53 skpd ( 14.7%)    0.427 s ( 1.392 ms/b)
<si|dd>:          560 b            0 skpd (  0.0%)    0.895 s ( 1.598 ms/b)
<si|df>:          700 b           25 skpd (  3.6%)    0.265 s ( 0.393 ms/b)
<si|dg>:          560 b            9 skpd (  1.6%)    0.233 s ( 0.423 ms/b)
<si|dh>:          420 b           19 skpd (  4.5%)    0.318 s ( 0.793 ms/b)
<si|di>:          280 b           13 skpd (  4.6%)    0.430 s ( 1.610 ms/b)
<si|ff>:          300 b           13 skpd (  4.3%)    0.022 s ( 0.076 ms/b)
<si|fg>:          400 b           15 skpd (  3.8%)    0.033 s ( 0.085 ms/b)
<si|fh>:          300 b           40 skpd ( 13.3%)    0.045 s ( 0.172 ms/b)
<si|fi>:          200 b           20 skpd ( 10.0%)    0.056 s ( 0.309 ms/b)
<si|gg>:          200 b            1 skpd (  0.5%)    0.047 s ( 0.238 ms/b)
<si|gh>:          240 b            6 skpd (  2.5%)    0.063 s ( 0.270 ms/b)
<si|gi>:          160 b            3 skpd (  1.9%)    0.082 s ( 0.521 ms/b)
<si|hh>:          120 b            8 skpd (  6.7%)    0.086 s ( 0.764 ms/b)
<si|hi>:          120 b            8 skpd (  6.7%)    0.101 s ( 0.905 ms/b)
<si|ii>:           60 b            1 skpd (  1.7%)    0.139 s ( 2.350 ms/b)
<pp|pp>:         1035 b            0 skpd (  0.0%)    1.942 s ( 1.876 ms/b)
<pp|pd>:         2835 b            0 skpd (  0.0%)    2.819 s ( 0.995 ms/b)
<pp|pf>:         2025 b            0 skpd (  0.0%)    0.363 s ( 0.179 ms/b)
<pp|pg>:         1620 b            1 skpd (  0.1%)    0.564 s ( 0.349 ms/b)
<pp|ph>:         1215 b            0 skpd (  0.0%)    0.868 s ( 0.714 ms/b)
<pp|pi>:          810 b            0 skpd (  0.0%)    0.605 s ( 0.746 ms/b)
<pp|dd>:         1260 b            0 skpd (  0.0%)    1.362 s ( 1.081 ms/b)
<pp|df>:         1575 b            0 skpd (  0.0%)    0.375 s ( 0.238 ms/b)
<pp|dg>:         1260 b            2 skpd (  0.2%)    0.326 s ( 0.259 ms/b)
<pp|dh>:          945 b            1 skpd (  0.1%)    0.438 s ( 0.464 ms/b)
<pp|di>:          630 b            1 skpd (  0.2%)    0.587 s ( 0.933 ms/b)
<pp|ff>:          675 b            0 skpd (  0.0%)    0.029 s ( 0.043 ms/b)
<pp|fg>:          900 b            0 skpd (  0.0%)    0.043 s ( 0.048 ms/b)
<pp|fh>:          675 b            0 skpd (  0.0%)    0.059 s ( 0.088 ms/b)
<pp|fi>:          450 b            0 skpd (  0.0%)    0.076 s ( 0.169 ms/b)
<pp|gg>:          450 b            0 skpd (  0.0%)    0.066 s ( 0.147 ms/b)
<pp|gh>:          540 b            0 skpd (  0.0%)    0.084 s ( 0.155 ms/b)
<pp|gi>:          360 b            0 skpd (  0.0%)    0.106 s ( 0.295 ms/b)
<pp|hh>:          270 b            0 skpd (  0.0%)    0.125 s ( 0.463 ms/b)
<pp|hi>:          270 b            0 skpd (  0.0%)    0.154 s ( 0.571 ms/b)
<pp|ii>:          135 b            0 skpd (  0.0%)    0.184 s ( 1.362 ms/b)
<pd|pd>:         2016 b            0 skpd (  0.0%)    2.731 s ( 1.355 ms/b)
<pd|pf>:         2835 b            4 skpd (  0.1%)    0.562 s ( 0.199 ms/b)
<pd|pg>:         2268 b            3 skpd (  0.1%)    1.005 s ( 0.444 ms/b)
<pd|ph>:         1701 b           11 skpd (  0.6%)    1.625 s ( 0.961 ms/b)
<pd|pi>:         1134 b            2 skpd (  0.2%)    1.167 s ( 1.031 ms/b)
<pd|dd>:         1764 b            3 skpd (  0.2%)    2.191 s ( 1.244 ms/b)
<pd|df>:         2205 b            5 skpd (  0.2%)    0.657 s ( 0.299 ms/b)
<pd|dg>:         1764 b           23 skpd (  1.3%)    0.582 s ( 0.334 ms/b)
<pd|dh>:         1323 b            6 skpd (  0.5%)    0.849 s ( 0.645 ms/b)
<pd|di>:          882 b           14 skpd (  1.6%)    1.107 s ( 1.275 ms/b)
<pd|ff>:          945 b            2 skpd (  0.2%)    0.057 s ( 0.060 ms/b)
<pd|fg>:         1260 b            5 skpd (  0.4%)    0.082 s ( 0.066 ms/b)
<pd|fh>:          945 b           11 skpd (  1.2%)    0.118 s ( 0.127 ms/b)
<pd|fi>:          630 b            3 skpd (  0.5%)    0.149 s ( 0.237 ms/b)
<pd|gg>:          630 b            5 skpd (  0.8%)    0.123 s ( 0.198 ms/b)
<pd|gh>:          756 b            2 skpd (  0.3%)    0.164 s ( 0.218 ms/b)
<pd|gi>:          504 b            7 skpd (  1.4%)    0.207 s ( 0.416 ms/b)
<pd|hh>:          378 b            0 skpd (  0.0%)    0.221 s ( 0.585 ms/b)
<pd|hi>:          378 b            1 skpd (  0.3%)    0.281 s ( 0.744 ms/b)
<pd|ii>:          189 b            2 skpd (  1.1%)    0.363 s ( 1.943 ms/b)
<pf|pf>:         1035 b            1 skpd (  0.1%)    0.064 s ( 0.062 ms/b)
<pf|pg>:         1620 b           11 skpd (  0.7%)    0.181 s ( 0.112 ms/b)
<pf|ph>:         1215 b            7 skpd (  0.6%)    0.304 s ( 0.252 ms/b)
<pf|pi>:          810 b            7 skpd (  0.9%)    0.223 s ( 0.278 ms/b)
<pf|dd>:         1260 b            1 skpd (  0.1%)    0.365 s ( 0.290 ms/b)
<pf|df>:         1575 b            9 skpd (  0.6%)    0.121 s ( 0.077 ms/b)
<pf|dg>:         1260 b           21 skpd (  1.7%)    0.112 s ( 0.091 ms/b)
<pf|dh>:          945 b           14 skpd (  1.5%)    0.156 s ( 0.168 ms/b)
<pf|di>:          630 b           14 skpd (  2.2%)    0.208 s ( 0.338 ms/b)
<pf|ff>:          675 b            1 skpd (  0.1%)    0.012 s ( 0.018 ms/b)
<pf|fg>:          900 b            9 skpd (  1.0%)    0.018 s ( 0.020 ms/b)
<pf|fh>:          675 b            5 skpd (  0.7%)    0.025 s ( 0.038 ms/b)
<pf|fi>:          450 b            4 skpd (  0.9%)    0.032 s ( 0.073 ms/b)
<pf|gg>:          450 b            4 skpd (  0.9%)    0.026 s ( 0.058 ms/b)
<pf|gh>:          540 b            4 skpd (  0.7%)    0.036 s ( 0.067 ms/b)
<pf|gi>:          360 b            5 skpd (  1.4%)    0.045 s ( 0.128 ms/b)
<pf|hh>:          270 b            0 skpd (  0.0%)    0.048 s ( 0.178 ms/b)
<pf|hi>:          270 b            1 skpd (  0.4%)    0.061 s ( 0.225 ms/b)
<pf|ii>:          135 b            0 skpd (  0.0%)    0.080 s ( 0.594 ms/b)
<pg|pg>:          666 b            4 skpd (  0.6%)    0.164 s ( 0.248 ms/b)
<pg|ph>:          972 b           21 skpd (  2.2%)    0.463 s ( 0.487 ms/b)
<pg|pi>:          648 b            7 skpd (  1.1%)    0.341 s ( 0.531 ms/b)
<pg|dd>:         1008 b            3 skpd (  0.3%)    0.606 s ( 0.603 ms/b)
<pg|df>:         1260 b           12 skpd (  1.0%)    0.192 s ( 0.153 ms/b)
<pg|dg>:         1008 b           23 skpd (  2.3%)    0.172 s ( 0.174 ms/b)
<pg|dh>:          756 b           17 skpd (  2.2%)    0.232 s ( 0.314 ms/b)
<pg|di>:          504 b           17 skpd (  3.4%)    0.318 s ( 0.653 ms/b)
<pg|ff>:          540 b            4 skpd (  0.7%)    0.017 s ( 0.032 ms/b)
<pg|fg>:          720 b           10 skpd (  1.4%)    0.026 s ( 0.037 ms/b)
<pg|fh>:          540 b           15 skpd (  2.8%)    0.036 s ( 0.068 ms/b)
<pg|fi>:          360 b            7 skpd (  1.9%)    0.047 s ( 0.132 ms/b)
<pg|gg>:          360 b            5 skpd (  1.4%)    0.039 s ( 0.109 ms/b)
<pg|gh>:          432 b            3 skpd (  0.7%)    0.052 s ( 0.121 ms/b)
<pg|gi>:          288 b            5 skpd (  1.7%)    0.066 s ( 0.232 ms/b)
<pg|hh>:          216 b            2 skpd (  0.9%)    0.070 s ( 0.325 ms/b)
<pg|hi>:          216 b            0 skpd (  0.0%)    0.088 s ( 0.408 ms/b)
<pg|ii>:          108 b            0 skpd (  0.0%)    0.114 s ( 1.056 ms/b)
<ph|ph>:          378 b            6 skpd (  1.6%)    0.321 s ( 0.863 ms/b)
<ph|pi>:          486 b           12 skpd (  2.5%)    0.449 s ( 0.946 ms/b)
<ph|dd>:          756 b            0 skpd (  0.0%)    0.864 s ( 1.143 ms/b)
<ph|df>:          945 b           13 skpd (  1.4%)    0.265 s ( 0.285 ms/b)
<ph|dg>:          756 b           18 skpd (  2.4%)    0.229 s ( 0.310 ms/b)
<ph|dh>:          567 b           26 skpd (  4.6%)    0.306 s ( 0.565 ms/b)
<ph|di>:          378 b           15 skpd (  4.0%)    0.417 s ( 1.148 ms/b)
<ph|ff>:          405 b            4 skpd (  1.0%)    0.022 s ( 0.056 ms/b)
<ph|fg>:          540 b           19 skpd (  3.5%)    0.033 s ( 0.064 ms/b)
<ph|fh>:          405 b            8 skpd (  2.0%)    0.046 s ( 0.115 ms/b)
<ph|fi>:          270 b            8 skpd (  3.0%)    0.059 s ( 0.224 ms/b)
<ph|gg>:          270 b            2 skpd (  0.7%)    0.048 s ( 0.179 ms/b)
<ph|gh>:          324 b            8 skpd (  2.5%)    0.064 s ( 0.204 ms/b)
<ph|gi>:          216 b            2 skpd (  0.9%)    0.081 s ( 0.381 ms/b)
<ph|hh>:          162 b            0 skpd (  0.0%)    0.088 s ( 0.544 ms/b)
<ph|hi>:          162 b            1 skpd (  0.6%)    0.110 s ( 0.684 ms/b)
<ph|ii>:           81 b            0 skpd (  0.0%)    0.143 s ( 1.762 ms/b)
<pi|pi>:          171 b            3 skpd (  1.8%)    0.486 s ( 2.893 ms/b)
<pi|dd>:          504 b            0 skpd (  0.0%)    1.017 s ( 2.017 ms/b)
<pi|df>:          630 b            6 skpd (  1.0%)    0.298 s ( 0.478 ms/b)
<pi|dg>:          504 b           22 skpd (  4.4%)    0.247 s ( 0.512 ms/b)
<pi|dh>:          378 b            9 skpd (  2.4%)    0.333 s ( 0.902 ms/b)
<pi|di>:          252 b           13 skpd (  5.2%)    0.448 s ( 1.876 ms/b)
<pi|ff>:          270 b            3 skpd (  1.1%)    0.024 s ( 0.090 ms/b)
<pi|fg>:          360 b            9 skpd (  2.5%)    0.036 s ( 0.101 ms/b)
<pi|fh>:          270 b            9 skpd (  3.3%)    0.048 s ( 0.183 ms/b)
<pi|fi>:          180 b            5 skpd (  2.8%)    0.063 s ( 0.361 ms/b)
<pi|gg>:          180 b            2 skpd (  1.1%)    0.051 s ( 0.287 ms/b)
<pi|gh>:          216 b            2 skpd (  0.9%)    0.068 s ( 0.316 ms/b)
<pi|gi>:          144 b            2 skpd (  1.4%)    0.087 s ( 0.612 ms/b)
<pi|hh>:          108 b            2 skpd (  1.9%)    0.091 s ( 0.855 ms/b)
<pi|hi>:          108 b            0 skpd (  0.0%)    0.116 s ( 1.076 ms/b)
<pi|ii>:           54 b            0 skpd (  0.0%)    0.153 s ( 2.828 ms/b)
<dd|dd>:          406 b            0 skpd (  0.0%)    1.002 s ( 2.467 ms/b)
<dd|df>:          980 b            1 skpd (  0.1%)    0.359 s ( 0.366 ms/b)
<dd|dg>:          784 b            0 skpd (  0.0%)    0.325 s ( 0.415 ms/b)
<dd|dh>:          588 b            0 skpd (  0.0%)    0.459 s ( 0.780 ms/b)
<dd|di>:          392 b            0 skpd (  0.0%)    0.606 s ( 1.547 ms/b)
<dd|ff>:          420 b            0 skpd (  0.0%)    0.031 s ( 0.073 ms/b)
<dd|fg>:          560 b            0 skpd (  0.0%)    0.046 s ( 0.082 ms/b)
<dd|fh>:          420 b            0 skpd (  0.0%)    0.065 s ( 0.156 ms/b)
<dd|fi>:          280 b            0 skpd (  0.0%)    0.085 s ( 0.305 ms/b)
<dd|gg>:          280 b            0 skpd (  0.0%)    0.068 s ( 0.243 ms/b)
<dd|gh>:          336 b            0 skpd (  0.0%)    0.092 s ( 0.275 ms/b)
<dd|gi>:          224 b            0 skpd (  0.0%)    0.117 s ( 0.523 ms/b)
<dd|hh>:          168 b            0 skpd (  0.0%)    0.124 s ( 0.738 ms/b)
<dd|hi>:          168 b            0 skpd (  0.0%)    0.157 s ( 0.937 ms/b)
<dd|ii>:           84 b            0 skpd (  0.0%)    0.201 s ( 2.395 ms/b)
<df|df>:          630 b            4 skpd (  0.6%)    0.061 s ( 0.097 ms/b)
<df|dg>:          980 b           14 skpd (  1.4%)    0.096 s ( 0.099 ms/b)
<df|dh>:          735 b            9 skpd (  1.2%)    0.130 s ( 0.179 ms/b)
<df|di>:          490 b            7 skpd (  1.4%)    0.178 s ( 0.369 ms/b)
<df|ff>:          525 b            3 skpd (  0.6%)    0.012 s ( 0.023 ms/b)
<df|fg>:          700 b            9 skpd (  1.3%)    0.017 s ( 0.025 ms/b)
<df|fh>:          525 b           10 skpd (  1.9%)    0.024 s ( 0.046 ms/b)
<df|fi>:          350 b            4 skpd (  1.1%)    0.031 s ( 0.089 ms/b)
<df|gg>:          350 b            2 skpd (  0.6%)    0.025 s ( 0.072 ms/b)
<df|gh>:          420 b            8 skpd (  1.9%)    0.034 s ( 0.082 ms/b)
<df|gi>:          280 b            5 skpd (  1.8%)    0.043 s ( 0.155 ms/b)
<df|hh>:          210 b            1 skpd (  0.5%)    0.046 s ( 0.220 ms/b)
<df|hi>:          210 b            3 skpd (  1.4%)    0.058 s ( 0.281 ms/b)
<df|ii>:          105 b            0 skpd (  0.0%)    0.077 s ( 0.736 ms/b)
<dg|dg>:          406 b            5 skpd (  1.2%)    0.121 s ( 0.301 ms/b)
<dg|dh>:          588 b            8 skpd (  1.4%)    0.182 s ( 0.313 ms/b)
<dg|di>:          392 b            6 skpd (  1.5%)    0.242 s ( 0.628 ms/b)
<dg|ff>:          420 b            4 skpd (  1.0%)    0.015 s ( 0.036 ms/b)
<dg|fg>:          560 b           11 skpd (  2.0%)    0.022 s ( 0.041 ms/b)
<dg|fh>:          420 b           12 skpd (  2.9%)    0.030 s ( 0.074 ms/b)
<dg|fi>:          280 b            8 skpd (  2.9%)    0.039 s ( 0.145 ms/b)
<dg|gg>:          280 b            1 skpd (  0.4%)    0.033 s ( 0.120 ms/b)
<dg|gh>:          336 b            3 skpd (  0.9%)    0.044 s ( 0.133 ms/b)
<dg|gi>:          224 b            3 skpd (  1.3%)    0.057 s ( 0.256 ms/b)
<dg|hh>:          168 b            1 skpd (  0.6%)    0.059 s ( 0.356 ms/b)
<dg|hi>:          168 b            2 skpd (  1.2%)    0.076 s ( 0.459 ms/b)
<dg|ii>:           84 b            0 skpd (  0.0%)    0.100 s ( 1.185 ms/b)
<dh|dh>:          231 b            5 skpd (  2.2%)    0.214 s ( 0.946 ms/b)
<dh|di>:          294 b            6 skpd (  2.0%)    0.295 s ( 1.024 ms/b)
<dh|ff>:          315 b            5 skpd (  1.6%)    0.018 s ( 0.057 ms/b)
<dh|fg>:          420 b           10 skpd (  2.4%)    0.026 s ( 0.063 ms/b)
<dh|fh>:          315 b           17 skpd (  5.4%)    0.036 s ( 0.121 ms/b)
<dh|fi>:          210 b            6 skpd (  2.9%)    0.046 s ( 0.226 ms/b)
<dh|gg>:          210 b            2 skpd (  1.0%)    0.038 s ( 0.181 ms/b)
<dh|gh>:          252 b            7 skpd (  2.8%)    0.052 s ( 0.214 ms/b)
<dh|gi>:          168 b            3 skpd (  1.8%)    0.065 s ( 0.394 ms/b)
<dh|hh>:          126 b            1 skpd (  0.8%)    0.071 s ( 0.568 ms/b)
<dh|hi>:          126 b            2 skpd (  1.6%)    0.089 s ( 0.719 ms/b)
<dh|ii>:           63 b            0 skpd (  0.0%)    0.118 s ( 1.878 ms/b)
<di|di>:          105 b            3 skpd (  2.9%)    0.298 s ( 2.924 ms/b)
<di|ff>:          210 b            3 skpd (  1.4%)    0.018 s ( 0.087 ms/b)
<di|fg>:          280 b            9 skpd (  3.2%)    0.026 s ( 0.096 ms/b)
<di|fh>:          210 b            9 skpd (  4.3%)    0.035 s ( 0.173 ms/b)
<di|fi>:          140 b            6 skpd (  4.3%)    0.047 s ( 0.351 ms/b)
<di|gg>:          140 b            2 skpd (  1.4%)    0.037 s ( 0.269 ms/b)
<di|gh>:          168 b            4 skpd (  2.4%)    0.051 s ( 0.309 ms/b)
<di|gi>:          112 b            2 skpd (  1.8%)    0.066 s ( 0.597 ms/b)
<di|hh>:           84 b            1 skpd (  1.2%)    0.068 s ( 0.821 ms/b)
<di|hi>:           84 b            1 skpd (  1.2%)    0.088 s ( 1.065 ms/b)
<di|ii>:           42 b            0 skpd (  0.0%)    0.121 s ( 2.889 ms/b)
<ff|ff>:          120 b            1 skpd (  0.8%)    0.003 s ( 0.023 ms/b)
<ff|fg>:          300 b            3 skpd (  1.0%)    0.005 s ( 0.016 ms/b)
<ff|fh>:          225 b            2 skpd (  0.9%)    0.006 s ( 0.028 ms/b)
<ff|fi>:          150 b            2 skpd (  1.3%)    0.008 s ( 0.056 ms/b)
<ff|gg>:          150 b            1 skpd (  0.7%)    0.007 s ( 0.045 ms/b)
<ff|gh>:          180 b            2 skpd (  1.1%)    0.009 s ( 0.053 ms/b)
<ff|gi>:          120 b            2 skpd (  1.7%)    0.012 s ( 0.104 ms/b)
<ff|hh>:           90 b            0 skpd (  0.0%)    0.013 s ( 0.147 ms/b)
<ff|hi>:           90 b            0 skpd (  0.0%)    0.018 s ( 0.197 ms/b)
<ff|ii>:           45 b            0 skpd (  0.0%)    0.024 s ( 0.534 ms/b)
<fg|fg>:          210 b            3 skpd (  1.4%)    0.009 s ( 0.043 ms/b)
<fg|fh>:          300 b           10 skpd (  3.3%)    0.013 s ( 0.044 ms/b)
<fg|fi>:          200 b            5 skpd (  2.5%)    0.017 s ( 0.085 ms/b)
<fg|gg>:          200 b            2 skpd (  1.0%)    0.015 s ( 0.074 ms/b)
<fg|gh>:          240 b            4 skpd (  1.7%)    0.020 s ( 0.086 ms/b)
<fg|gi>:          160 b            2 skpd (  1.2%)    0.026 s ( 0.165 ms/b)
<fg|hh>:          120 b            1 skpd (  0.8%)    0.027 s ( 0.224 ms/b)
<fg|hi>:          120 b            0 skpd (  0.0%)    0.036 s ( 0.301 ms/b)
<fg|ii>:           60 b            0 skpd (  0.0%)    0.054 s ( 0.894 ms/b)
<fh|fh>:          120 b            3 skpd (  2.5%)    0.013 s ( 0.115 ms/b)
<fh|fi>:          150 b            6 skpd (  4.0%)    0.018 s ( 0.123 ms/b)
<fh|gg>:          150 b            2 skpd (  1.3%)    0.014 s ( 0.096 ms/b)
<fh|gh>:          180 b            6 skpd (  3.3%)    0.022 s ( 0.128 ms/b)
<fh|gi>:          120 b            3 skpd (  2.5%)    0.027 s ( 0.230 ms/b)
<fh|hh>:           90 b            0 skpd (  0.0%)    0.030 s ( 0.335 ms/b)
<fh|hi>:           90 b            2 skpd (  2.2%)    0.039 s ( 0.444 ms/b)
<fh|ii>:           45 b            0 skpd (  0.0%)    0.058 s ( 1.283 ms/b)
<fi|fi>:           55 b            2 skpd (  3.6%)    0.017 s ( 0.313 ms/b)
<fi|gg>:          100 b            1 skpd (  1.0%)    0.013 s ( 0.132 ms/b)
<fi|gh>:          120 b            2 skpd (  1.7%)    0.020 s ( 0.167 ms/b)
<fi|gi>:           80 b            0 skpd (  0.0%)    0.026 s ( 0.329 ms/b)
<fi|hh>:           60 b            1 skpd (  1.7%)    0.026 s ( 0.435 ms/b)
<fi|hi>:           60 b            0 skpd (  0.0%)    0.037 s ( 0.614 ms/b)
<fi|ii>:           30 b            0 skpd (  0.0%)    0.057 s ( 1.904 ms/b)
<gg|gg>:           55 b            0 skpd (  0.0%)    0.011 s ( 0.206 ms/b)
<gg|gh>:          120 b            0 skpd (  0.0%)    0.020 s ( 0.165 ms/b)
<gg|gi>:           80 b            0 skpd (  0.0%)    0.023 s ( 0.291 ms/b)
<gg|hh>:           60 b            0 skpd (  0.0%)    0.024 s ( 0.400 ms/b)
<gg|hi>:           60 b            0 skpd (  0.0%)    0.033 s ( 0.556 ms/b)
<gg|ii>:           30 b            0 skpd (  0.0%)    0.051 s ( 1.689 ms/b)
<gh|gh>:           78 b            0 skpd (  0.0%)    0.032 s ( 0.407 ms/b)
[...]
Number of Beta-MO pairs included           ...   15
    ... Now sorting integrals
SORTING ALPHA/ALPHA PAIRS
IBATCH = 1 of  1
Closing buffer JAO[aa] ( 0.00 GB; CompressionRatio= 1.00)
SORTING BETA/BETA PAIRS
IBATCH = 1 of  1
Closing buffer JAO[bb] ( 0.00 GB; CompressionRatio= 1.00)
Collecting buffer JAO 
TOTAL TIME for half transformation         ...   264.129 sec
AO-integral generation                     ...   263.925 sec
Half transformation                        ...     0.130 sec
J-integral sorting                         ...     0.056 sec

-------------------------- SECOND HALF TRANSFORMATION -------------------------
Formation of (ij|kl),(ij|ka), (ij|ab)      ... ok (     0.138 sec)
Formation of (ik|jl),(ik|ja), (ia|jb)      ... ok (     0.192 sec)


-----------------------
SPIN UNRESTRICTED GUESS
-----------------------

Entering MDCI_UHF_Guess, Tailored=0
Spin-components of the MP2 energy:
EMP2(aa)=     -0.170307060
EMP2(bb)=     -0.044492864
EMP2(ab)=     -0.406677864

Initial guess performed in     0.083 sec
E(0)                                       ...  -1149.753499795
E(MP2)                                     ...     -0.621477787
Initial E(tot)                             ...  -1150.374977582
<T|T>                                      ...      0.095608572
Number of pairs included                   ... 105

------------------------------------------------
                  UHF COUPLED CLUSTER ITERATIONS
------------------------------------------------

Number of amplitudes to be optimized       ...      2767715

Iter       E(tot)           E(Corr)          Delta-E          Residual     Time      <S|S>**1/2
  0  -1150.374977582     -0.621477787     -0.000000000      0.032803096   67.46      0.000001124
                           *** Turning on DIIS ***
  1  -1150.334118281     -0.580618486      0.040859301      0.007105434  133.79      0.047410973
  2  -1150.347729149     -0.594229354     -0.013610868      0.004399348  133.95      0.048607466
  3  -1150.348530370     -0.595030575     -0.000801221      0.002948086  134.57      0.061287186
  4  -1150.349320040     -0.595820245     -0.000789670      0.001780277  135.03      0.068015167
  5  -1150.349869591     -0.596369797     -0.000549552      0.000455198  135.56      0.076351333
  6  -1150.349948674     -0.596448879     -0.000079083      0.000248123  135.85      0.078508490
  7  -1150.349976732     -0.596476938     -0.000028058      0.000113846  136.35      0.079378946
  8  -1150.349982893     -0.596483098     -0.000006161      0.000068329  136.29      0.079626147
  9  -1150.349982010     -0.596482215      0.000000883      0.000024732  136.52      0.079667425
 10  -1150.349983463     -0.596483669     -0.000001454      0.000014558  136.42      0.079649163
 11  -1150.349981349     -0.596481555      0.000002114      0.000004477  136.37      0.079620136
               --- The Coupled-Cluster iterations have converged ---

----------------------
COUPLED CLUSTER ENERGY
----------------------

E(0)                                       ...  -1149.753499795
E(CORR)                                    ...     -0.596481555
E(TOT)                                     ...  -1150.349981349
Singles norm <S|S>**1/2                    ...      0.079620136 ( 0.064956821, 0.014663314)  
T1 diagnostic                              ...      0.020557831                              

------------------
LARGEST AMPLITUDES
------------------
  14a-> 27a  -1a-> -1a       0.050367
  14a-> 43a  -1a-> -1a       0.037668
   9b-> 28b  -1b-> -1b       0.032890
  14a-> 18a  -1a-> -1a       0.032485
  13a-> 48a   9b-> 44b       0.024729
  13a-> 32a  -1a-> -1a       0.023148
  12a-> 31a  -1a-> -1a       0.020582
   9b-> 44b  -1b-> -1b       0.020310
  12a-> 47a   9b-> 44b       0.019913
  12a-> 47a  -1a-> -1a       0.019413
  13a-> 73a   9b-> 44b       0.019130
  13a-> 73a   9b-> 69b       0.019103
  13a-> 48a  -1a-> -1a       0.019000
  13a-> 48a   9b-> 69b       0.018193
  11a-> 45a  -1a-> -1a       0.018046
  10a-> 46a  -1a-> -1a       0.018046

----------------------
UHF TRIPLES CORRECTION (Algorithm 1)
----------------------

Multiplier for the singles contribution    ...      1.000000000

SPIN-CASE Alpha-Alpha-Alpha:
10% done
20% done
30% done
40% done
50% done
60% done
70% done
80% done
90% done


SPIN-CASE Beta-Beta-Beta:
10% done
20% done
30% done
40% done
50% done
60% done
70% done
80% done
90% done


SPIN-CASE Alpha-Alpha-Beta:
10% done
20% done
30% done
40% done
50% done
60% done
70% done
80% done
90% done


SPIN-CASE Beta-Beta-Alpha:
10% done
20% done
30% done
40% done
50% done
60% done
70% done
80% done
90% done


Triples Correction (T)                     ...     -0.020400628
    alpha-alpha-alpha ... -0.003021447 ( 14.8%)
    alpha-alpha-beta  ... -0.012685472 ( 62.2%)
    alpha-beta -beta  ... -0.004498966 ( 22.1%)
    beta -beta -beta  ... -0.000194742 (  1.0%)
Scaling of triples based on CCSD energies (Peterson et al. Molecular Physics 113, 1551 (2015))
E(T*) = f*E(T) where f = E(F12-CCSD)/E(CCSD) 
f = CCSD (with F12)/ CCSD (without F12)    ...      1.000000000
Scaled triples correction (T)              ...     -0.020400628

Final correlation energy                   ...     -0.616882182
E(CCSD)                                    ...  -1150.349981349
E(CCSD(T))                                 ...  -1150.370381977



        !!!!!!!!!!!!!!!!!!!!!!!!!!!!!!!!!!!!!!!!!!!!!!!!!!!!!!!!!!!!!!!!!!!!!!!!!! 
        !  Warning: Densities are linearized densities                           !
        !!!!!!!!!!!!!!!!!!!!!!!!!!!!!!!!!!!!!!!!!!!!!!!!!!!!!!!!!!!!!!!!!!!!!!!!!! 

NORM  =      1.102205437 sqrt=     1.049859722
W(HF) =      0.907271881
------------------------------------------------------------------------------
                           ORCA POPULATION ANALYSIS
------------------------------------------------------------------------------
Input electron density              ... 25_Mn.mdcip
Input spin density                  ... 25_Mn.mdcir
BaseName (.gbw .S,...)              ... 25_Mn

                    ********************************
                    * MULLIKEN POPULATION ANALYSIS *
                    ********************************

------------------------------------------
MULLIKEN ATOMIC CHARGES AND SPIN DENSITIES
------------------------------------------
   0 Mn:   -0.000000    5.000000
Sum of atomic charges       :   -0.0000000
Sum of atomic spin densities:    5.0000000

---------------------------------------------------
MULLIKEN REDUCED ORBITAL CHARGES AND SPIN DENSITIES
---------------------------------------------------
CHARGE
  0 Mns       :     6.983942  s :     6.983942
      pz      :     3.991517  p :    11.989167
      px      :     3.998825
      py      :     3.998825
      dz2     :     1.001750  d :     5.983435
      dxz     :     1.001242
      dyz     :     1.001242
      dx2y2   :     1.000088
      dxy     :     1.979113
      f0      :     0.004459  f :     0.036642
      f+1     :     0.004582
      f-1     :     0.004582
      f+2     :     0.004385
      f-2     :     0.005789
      f+3     :     0.006422
      f-3     :     0.006422
      g0      :     0.000542  g :     0.005308
      g+1     :     0.000544
      g-1     :     0.000544
      g+2     :     0.000488
      g-2     :     0.000627
      g+3     :     0.000596
      g-3     :     0.000596
      g+4     :     0.000687
      g-4     :     0.000684
      h0      :     0.000102  h :     0.001234
      h+1     :     0.000102
      h-1     :     0.000102
      h+2     :     0.000093
      h-2     :     0.000115
      h+3     :     0.000109
      h-3     :     0.000109
      h+4     :     0.000118
      h-4     :     0.000118
      h+5     :     0.000133
      h-5     :     0.000133
      i0      :     0.000018  i :     0.000272
      i+1     :     0.000018
      i-1     :     0.000018
      i+2     :     0.000016
      i-2     :     0.000021
      i+3     :     0.000019
      i-3     :     0.000019
      i+4     :     0.000021
      i-4     :     0.000021
      i+5     :     0.000023
      i-5     :     0.000023
      i+6     :     0.000027
      i-6     :     0.000027

SPIN
  0 Mns       :     0.987973  s :     0.987973
      pz      :     0.011467  p :     0.028878
      px      :     0.008706
      py      :     0.008706
      dz2     :     0.987747  d :     3.962507
      dxz     :     0.987991
      dyz     :     0.987991
      dx2y2   :     0.989102
      dxy     :     0.009676
      f0      :     0.003356  f :     0.017808
      f+1     :     0.003226
      f-1     :     0.003226
      f+2     :     0.003415
      f-2     :     0.001972
      f+3     :     0.001306
      f-3     :     0.001306
      g0      :     0.000323  g :     0.002336
      g+1     :     0.000314
      g-1     :     0.000314
      g+2     :     0.000298
      g-2     :     0.000276
      g+3     :     0.000238
      g-3     :     0.000238
      g+4     :     0.000167
      g-4     :     0.000167
      h0      :     0.000051  h :     0.000425
      h+1     :     0.000050
      h-1     :     0.000050
      h+2     :     0.000050
      h-2     :     0.000043
      h+3     :     0.000041
      h-3     :     0.000041
      h+4     :     0.000031
      h-4     :     0.000031
      h+5     :     0.000019
      h-5     :     0.000019
      i0      :     0.000006  i :     0.000072
      i+1     :     0.000006
      i-1     :     0.000006
      i+2     :     0.000006
      i-2     :     0.000006
      i+3     :     0.000006
      i-3     :     0.000006
      i+4     :     0.000005
      i-4     :     0.000005
      i+5     :     0.000005
      i-5     :     0.000005
      i+6     :     0.000004
      i-6     :     0.000004


                     *******************************
                     * LOEWDIN POPULATION ANALYSIS *
                     *******************************

-----------------------------------------
LOEWDIN ATOMIC CHARGES AND SPIN DENSITIES
-----------------------------------------
   0 Mn:   -0.000000    5.000000

--------------------------------------------------
LOEWDIN REDUCED ORBITAL CHARGES AND SPIN DENSITIES
--------------------------------------------------
CHARGE
  0 Mns       :     6.983942  s :     6.983942
      pz      :     3.991517  p :    11.989167
      px      :     3.998825
      py      :     3.998825
      dz2     :     1.001750  d :     5.983435
      dxz     :     1.001242
      dyz     :     1.001242
      dx2y2   :     1.000088
      dxy     :     1.979113
      f0      :     0.004459  f :     0.036642
      f+1     :     0.004582
      f-1     :     0.004582
      f+2     :     0.004385
      f-2     :     0.005789
      f+3     :     0.006422
      f-3     :     0.006422
      g0      :     0.000542  g :     0.005308
      g+1     :     0.000544
      g-1     :     0.000544
      g+2     :     0.000488
      g-2     :     0.000627
      g+3     :     0.000596
      g-3     :     0.000596
      g+4     :     0.000687
      g-4     :     0.000684
      h0      :     0.000102  h :     0.001234
      h+1     :     0.000102
      h-1     :     0.000102
      h+2     :     0.000093
      h-2     :     0.000115
      h+3     :     0.000109
      h-3     :     0.000109
      h+4     :     0.000118
      h-4     :     0.000118
      h+5     :     0.000133
      h-5     :     0.000133
      i0      :     0.000018  i :     0.000272
      i+1     :     0.000018
      i-1     :     0.000018
      i+2     :     0.000016
      i-2     :     0.000021
      i+3     :     0.000019
      i-3     :     0.000019
      i+4     :     0.000021
      i-4     :     0.000021
      i+5     :     0.000023
      i-5     :     0.000023
      i+6     :     0.000027
      i-6     :     0.000027

SPIN
  0 Mns       :     0.987973  s :     0.987973
      pz      :     0.011467  p :     0.028878
      px      :     0.008706
      py      :     0.008706
      dz2     :     0.987747  d :     3.962507
      dxz     :     0.987991
      dyz     :     0.987991
      dx2y2   :     0.989102
      dxy     :     0.009676
      f0      :     0.003356  f :     0.017808
      f+1     :     0.003226
      f-1     :     0.003226
      f+2     :     0.003415
      f-2     :     0.001972
      f+3     :     0.001306
      f-3     :     0.001306
      g0      :     0.000323  g :     0.002336
      g+1     :     0.000314
      g-1     :     0.000314
      g+2     :     0.000298
      g-2     :     0.000276
      g+3     :     0.000238
      g-3     :     0.000238
      g+4     :     0.000167
      g-4     :     0.000167
      h0      :     0.000051  h :     0.000425
      h+1     :     0.000050
      h-1     :     0.000050
      h+2     :     0.000050
      h-2     :     0.000043
      h+3     :     0.000041
      h-3     :     0.000041
      h+4     :     0.000031
      h-4     :     0.000031
      h+5     :     0.000019
      h-5     :     0.000019
      i0      :     0.000006  i :     0.000072
      i+1     :     0.000006
      i-1     :     0.000006
      i+2     :     0.000006
      i-2     :     0.000006
      i+3     :     0.000006
      i-3     :     0.000006
      i+4     :     0.000005
      i-4     :     0.000005
      i+5     :     0.000005
      i-5     :     0.000005
      i+6     :     0.000004
      i-6     :     0.000004


                      *****************************
                      * MAYER POPULATION ANALYSIS *
                      *****************************

  NA   - Mulliken gross atomic population
  ZA   - Total nuclear charge
  QA   - Mulliken gross atomic charge
  VA   - Mayer's total valence
  BVA  - Mayer's bonded valence
  FA   - Mayer's free valence

  ATOM       NA         ZA         QA         VA         BVA        FA
  0 Mn    25.0000    25.0000    -0.0000     5.5521     0.0000     5.5521





------------------------------------------------------------------------------- 
                                     TIMINGS                                   
------------------------------------------------------------------------------- 


Total execution time                   ...     2575.277 sec

Fock Matrix Formation                  ...      138.481 sec (  5.4%)
Initial Guess                          ...        0.083 sec (  0.0%)
DIIS Solver                            ...        3.967 sec (  0.2%)
State Vector Update                    ...        0.180 sec (  0.0%)
Sigma-vector construction              ...     1553.991 sec ( 60.3%)
  <0|H|D>                              ...        0.013 sec (  0.0% of sigma)
  <D|H|D>(0-ext Fock)                  ...        0.063 sec (  0.0% of sigma)
  <D|H|D>(0-ext)                       ...        0.269 sec (  0.0% of sigma)
  <D|H|D>(2-ext Fock)                  ...        0.030 sec (  0.0% of sigma)
  <D|H|D>(2-ext)                       ...        1.085 sec (  0.1% of sigma)
  <D|H|D>(4-ext)                       ...       75.832 sec (  4.9% of sigma)
  <S|H|0>                              ...        2.188 sec (  0.1% of sigma)
  <S|H|S>                              ...        0.004 sec (  0.0% of sigma)
  <S|H|D>(1-ext)                       ...        0.014 sec (  0.0% of sigma)
  <D|H|S>(1-ext)                       ...        0.257 sec (  0.0% of sigma)
  Fock-dressing                        ...     1462.035 sec ( 94.1% of sigma)
  (ik|jl)-dressing                     ...        0.296 sec (  0.0% of sigma)
  (ij|ab),(ia|jb)-dressing             ...       10.097 sec (  0.6% of sigma)
  Pair energies                        ...        0.011 sec (  0.0% of sigma)
Total Time for computing (T)           ...       24.622 sec (  1.0% of ALL)
  I/O of integral and amplitudes       ...        4.913 sec ( 20.0% of (T))
  External N**7 contributions          ...        7.838 sec ( 31.8% of (T))
  Internal N**7 contributions          ...        1.842 sec (  7.5% of (T))
  N**6 triples energy contributions    ...        9.396 sec ( 38.2% of (T))


-------------------------   --------------------
FINAL SINGLE POINT ENERGY     -1150.370381976864
-------------------------   --------------------


                            ***************************************
                            *     ORCA property calculations      *
                            ***************************************

                                    ---------------------
                                    Active property flags
                                    ---------------------
   (+) Dipole Moment


------------------------------------------------------------------------------
                       ORCA ELECTRIC PROPERTIES CALCULATION
------------------------------------------------------------------------------

Dipole Moment Calculation                       ... on
Quadrupole Moment Calculation                   ... off
Polarizability Calculation                      ... off
GBWName                                         ... 25_Mn.gbw
Electron density file                           ... 25_Mn.scfp
The origin for moment calculation is the CENTER OF MASS  = ( 0.000000,  0.000000  0.000000)

-------------
DIPOLE MOMENT
-------------
                                X             Y             Z
Electronic contribution:     -0.00000      -0.00000       0.00000
Nuclear contribution   :      0.00000       0.00000       0.00000
                        -----------------------------------------
Total Dipole Moment    :     -0.00000      -0.00000       0.00000
                        -----------------------------------------
Magnitude (a.u.)       :      0.00000
Magnitude (Debye)      :      0.00000



--------------------
Rotational spectrum 
--------------------
 
Rotational constants in cm-1:     0.000000     0.000000     0.000000 
Rotational constants in MHz :     0.000000     0.000000     0.000000 

 Dipole components along the rotational axes: 
x,y,z [a.u.] :    -0.000000    -0.000000     0.000000 
x,y,z [Debye]:    -0.000000    -0.000000     0.000000 

 

                           *** MDCI DENSITY ***

------------------------------------------------------------------------------
                       ORCA ELECTRIC PROPERTIES CALCULATION
------------------------------------------------------------------------------

Dipole Moment Calculation                       ... on
Quadrupole Moment Calculation                   ... off
Polarizability Calculation                      ... off
GBWName                                         ... 25_Mn.gbw
Electron density file                           ... 25_Mn.mdcip
The origin for moment calculation is the CENTER OF MASS  = ( 0.000000,  0.000000  0.000000)

-------------
DIPOLE MOMENT
-------------
                                X             Y             Z
Electronic contribution:      0.00000       0.00000      -0.00000
Nuclear contribution   :      0.00000       0.00000       0.00000
                        -----------------------------------------
Total Dipole Moment    :      0.00000       0.00000      -0.00000
                        -----------------------------------------
Magnitude (a.u.)       :      0.00000
Magnitude (Debye)      :      0.00000



--------------------
Rotational spectrum 
--------------------
 
Rotational constants in cm-1:     0.000000     0.000000     0.000000 
Rotational constants in MHz :     0.000000     0.000000     0.000000 

 Dipole components along the rotational axes: 
x,y,z [a.u.] :     0.000000     0.000000    -0.000000 
x,y,z [Debye]:     0.000000     0.000000    -0.000000 

 

Timings for individual modules:

Sum of individual times         ...     4009.741 sec (=  66.829 min)
GTO integral calculation        ...       17.689 sec (=   0.295 min)   0.4 %
SCF iterations                  ...     1414.708 sec (=  23.578 min)  35.3 %
MDCI module                     ...     2577.344 sec (=  42.956 min)  64.3 %
                             ****ORCA TERMINATED NORMALLY****
TOTAL RUN TIME: 0 days 1 hours 6 minutes 50 seconds 980 msec
