
                                 *****************
                                 * O   R   C   A *
                                 *****************

           --- An Ab Initio, DFT and Semiempirical electronic structure package ---

                  #######################################################
                  #                        -***-                        #
                  #          Department of theory and spectroscopy      #
                  #               Directorship: Frank Neese             #
                  #        Max Planck Institute fuer Kohlenforschung    #
                  #                Kaiser Wilhelm Platz 1               #
                  #                 D-45470 Muelheim/Ruhr               #
                  #                      Germany                        #
                  #                                                     #
                  #                  All rights reserved                #
                  #                        -***-                        #
                  #######################################################


                         Program Version 4.2.0 -  RELEASE  -


 With contributions from (in alphabetic order):
   Daniel Aravena         : Magnetic Suceptibility
   Michael Atanasov       : Ab Initio Ligand Field Theory (pilot matlab implementation)
   Alexander A. Auer      : GIAO ZORA, VPT2
   Ute Becker             : Parallelization
   Giovanni Bistoni       : ED, misc. LED, open-shell LED, HFLED
   Martin Brehm           : Molecular dynamics
   Dmytro Bykov           : SCF Hessian
   Vijay G. Chilkuri      : MRCI spin determinant printing, contributions to CSF-ICE
   Dipayan Datta          : RHF DLPNO-CCSD density
   Achintya Kumar Dutta   : EOM-CC, STEOM-CC
   Dmitry Ganyushin       : Spin-Orbit,Spin-Spin,Magnetic field MRCI
   Miquel Garcia          : C-PCM Hessian, Gaussian charge scheme
   Yang Guo               : DLPNO-NEVPT2, CIM, IAO-localization
   Andreas Hansen         : Spin unrestricted coupled pair/coupled cluster methods
   Benjamin Helmich-Paris : CASSCF linear response (MC-RPA)
   Lee Huntington         : MR-EOM, pCC
   Robert Izsak           : Overlap fitted RIJCOSX, COSX-SCS-MP3, EOM
   Christian Kollmar      : KDIIS, OOCD, Brueckner-CCSD(T), CCSD density
   Simone Kossmann        : Meta GGA functionals, TD-DFT gradient, OOMP2, MP2 Hessian
   Martin Krupicka        : AUTO-CI
   Lucas Lang             : DCDCAS
   Dagmar Lenk            : GEPOL surface, SMD
   Dimitrios Liakos       : Extrapolation schemes; Compound Job, initial MDCI parallelization
   Dimitrios Manganas     : Further ROCIS development; embedding schemes
   Dimitrios Pantazis     : SARC Basis sets
   Taras Petrenko         : DFT Hessian,TD-DFT gradient, ASA, ECA, R-Raman, ABS, FL, XAS/XES, NRVS
   Peter Pinski           : DLPNO-MP2, DLPNO-MP2 Gradient
   Christoph Reimann      : Effective Core Potentials
   Marius Retegan         : Local ZFS, SOC
   Christoph Riplinger    : Optimizer, TS searches, QM/MM, DLPNO-CCSD(T), (RO)-DLPNO pert. Triples
   Tobias Risthaus        : Range-separated hybrids, TD-DFT gradient, RPA, STAB
   Michael Roemelt        : Original ROCIS implementation
   Masaaki Saitow         : Open-shell DLPNO-CCSD energy and density
   Barbara Sandhoefer     : DKH picture change effects
   Avijit Sen             : IP-ROCIS
   Kantharuban Sivalingam : CASSCF convergence, NEVPT2, FIC-MRCI
   Bernardo de Souza      : ESD, SOC TD-DFT
   Georgi Stoychev        : AutoAux, RI-MP2 NMR
   Willem Van den Heuvel  : Paramagnetic NMR
   Boris Wezisla          : Elementary symmetry handling
   Frank Wennmohs         : Technical directorship


 We gratefully acknowledge several colleagues who have allowed us to
 interface, adapt or use parts of their codes:
   Stefan Grimme, W. Hujo, H. Kruse,             : VdW corrections, initial TS optimization,
                  C. Bannwarth                     DFT functionals, gCP, sTDA/sTD-DF
   Ed Valeev, F. Pavosevic, A. Kumar             : LibInt (2-el integral package), F12 methods
   Garnet Chan, S. Sharma, J. Yang, R. Olivares  : DMRG
   Ulf Ekstrom                                   : XCFun DFT Library
   Mihaly Kallay                                 : mrcc  (arbitrary order and MRCC methods)
   Andreas Klamt, Michael Diedenhofen            : otool_cosmo (COSMO solvation model)
   Jiri Pittner, Ondrej Demel                    : Mk-CCSD
   Frank Weinhold                                : gennbo (NPA and NBO analysis)
   Christopher J. Cramer and Donald G. Truhlar   : smd solvation model
   Lars Goerigk                                  : TD-DFT with DH, B97 family of functionals
   V. Asgeirsson, H. Jonsson                     : NEB implementation
   FAccTs GmbH                                   : IRC, NEB, NEB-TS, Multilevel, MM, QM/MM, CI optimization
   S Lehtola, MJT Oliveira, MAL Marques          : LibXC Library


 Your calculation uses the libint2 library for the computation of 2-el integrals
 For citations please refer to: http://libint.valeyev.net

 Your ORCA version has been built with support for libXC version: 4.2.3
 For citations please refer to: https://tddft.org/programs/libxc/

 This ORCA versions uses:
   CBLAS   interface :  Fast vector & matrix operations
   LAPACKE interface :  Fast linear algebra routines
   SCALAPACK package :  Parallel linear algebra routines


----- Orbital basis set information -----
Your calculation utilizes the basis: aug-cc-pV5Z 
          H : Obtained from the ccRepo (grant-hill.group.shef.ac.uk/ccrepo) Feb. 2017
              T. H. Dunning, Jr., J. Chem. Phys. 90, 1007 (1989)
              Diffuse s exponent - S. Mielke, unpublished
         He : Obtained from the ccRepo (grant-hill.group.shef.ac.uk/ccrepo) Feb. 2017
              D. E. Woon, T. H. Dunning, Jr., J. Chem. Phys. 100, 2975 (1994)
  Li-Be, Na : Obtained from the ccRepo (grant-hill.group.shef.ac.uk/ccrepo) Feb. 2017
              B. P. Prascher, D. E. Woon, K. A. Peterson, T. H. Dunning, Jr., A. K. Wilson, Theor. Chem. Acc. 128, 69 (2011)
        B-F : Obtained from the ccRepo (grant-hill.group.shef.ac.uk/ccrepo) Feb. 2017
              R. A. Kendall, T. H. Dunning, Jr., R. J. Harrison, J. Chem. Phys. 96, 6796 (1992)
              T. H. Dunning, Jr., J. Chem. Phys. 90, 1007 (1989)
         Ne : Obtained from the ccRepo (grant-hill.group.shef.ac.uk/ccrepo) Feb. 2017
              T. H. Dunning, Jr., J. Chem. Phys. 90, 1007 (1989)
         Mg : Obtained from the Peterson Research Group Website (tyr0.chem.wsu.edu/~kipeters) Feb. 2017
              B. P. Prascher, D. E. Woon, K. A. Peterson, T. H. Dunning, Jr., A. K. Wilson, Theor. Chem. Acc. 128, 69 (2011)
      Al-Ar : Obtained from the ccRepo (grant-hill.group.shef.ac.uk/ccrepo) Feb. 2017
              D. E. Woon, T. H. Dunning, Jr., J. Chem. Phys. 98, 1358 (1993)
      Sc-Zn : Obtained from the ccRepo (grant-hill.group.shef.ac.uk/ccrepo) Feb. 2017
              N. B. Balabanov, K. A. Peterson, J. Chem. Phys. 123, 064107 (2005)
              N. B. Balabanov, K. A. Peterson, J. Chem. Phys. 125, 074110 (2006)
      Ga-Kr : Obtained from the ccRepo (grant-hill.group.shef.ac.uk/ccrepo) Feb. 2017
              A. K. Wilson, D. E. Woon, K. A. Peterson, T. H. Dunning, Jr., J. Chem. Phys. 110, 7667 (1999)

================================================================================
                                        WARNINGS
                       Please study these warnings very carefully!
================================================================================


WARNING: your system is open-shell and RHF/RKS was chosen
  ===> : WILL SWITCH to UHF/UKS


WARNING: MDCI localization with Augmented Hessian Foster-Boys
  ===> : Switching off randomization!

WARNING: Post HF methods need fully converged wavefunctions
  ===> : Setting SCFConvForced true
         You can overwrite this default with %scf ConvForced false 


INFO   : the flag for use of LIBINT has been found!

================================================================================
                                       INPUT FILE
================================================================================
NAME = 26_Fe.in
|  1> #
|  2> # 26_Fe CCSD(T)/aug-cc-pV5Z
|  3> #
|  4> ! CCSD(T) aug-cc-pV5Z tightscf slowconv
|  5> 
|  6> *xyz 0 5
|  7>  Fe 0.0 0.0 0.0
|  8> *
|  9> 
| 10> %maxcore 5000 
| 11> 
| 12> %pal
| 13> nprocs 24
| 14> end
| 15> 
| 16> 
| 17>                          ****END OF INPUT****
================================================================================

                       ****************************
                       * Single Point Calculation *
                       ****************************

---------------------------------
CARTESIAN COORDINATES (ANGSTROEM)
---------------------------------
  Fe     0.000000    0.000000    0.000000

----------------------------
CARTESIAN COORDINATES (A.U.)
----------------------------
  NO LB      ZA    FRAG     MASS         X           Y           Z
   0 Fe   26.0000    0    55.850    0.000000    0.000000    0.000000

--------------------------------
INTERNAL COORDINATES (ANGSTROEM)
--------------------------------
 Fe     0   0   0     0.000000000000     0.00000000     0.00000000

---------------------------
INTERNAL COORDINATES (A.U.)
---------------------------
 Fe     0   0   0     0.000000000000     0.00000000     0.00000000

---------------------
BASIS SET INFORMATION
---------------------
There are 1 groups of distinct atoms

 Group   1 Type Fe  : 218s133p57d5f4g3h2i contracted to 10s9p7d5f4g3h2i pattern {272727272727272711/1919181819191911/111111111111/11111/1111/111/11}

Atom   0Fe   basis set group =>   1


           ************************************************************
           *        Program running with 24 parallel MPI-processes    *
           *              working on a common directory               *
           ************************************************************
------------------------------------------------------------------------------
                           ORCA GTO INTEGRAL CALCULATION
------------------------------------------------------------------------------

                         BASIS SET STATISTICS AND STARTUP INFO

 # of primitive gaussian shells          ...  422
 # of primitive gaussian functions       ... 1032
 # of contracted shells                  ...   40
 # of contracted basis functions         ...  202
 Highest angular momentum                ...    6
 Maximum contraction depth               ...   27
 Integral package used                   ... LIBINT
 Integral threshhold            Thresh   ...  2.500e-11
 Primitive cut-off              TCut     ...  2.500e-12


------------------------------ INTEGRAL EVALUATION ----------------------------


 * One electron integrals 
 Pre-screening matrix                    ... done
 Shell pair data                         ... done (   0.003 sec)



           ************************************************************
           *        Program running with 24 parallel MPI-processes    *
           *              working on a common directory               *
           ************************************************************
-------------------------------------------------------------------------------
                                 ORCA SCF
-------------------------------------------------------------------------------

------------
SCF SETTINGS
------------
Hamiltonian:
 Ab initio Hamiltonian  Method          .... Hartree-Fock(GTOs)


General Settings:
 Integral files         IntName         .... 26_Fe
 Hartree-Fock type      HFTyp           .... UHF
 Total Charge           Charge          ....    0
 Multiplicity           Mult            ....    5
 Number of Electrons    NEL             ....   26
 Basis Dimension        Dim             ....  202
 Nuclear Repulsion      ENuc            ....      0.0000000000 Eh

Convergence Acceleration:
 DIIS                   CNVDIIS         .... on
   Start iteration      DIISMaxIt       ....     0
   Startup error        DIISStart       ....  0.200000
   # of expansion vecs  DIISMaxEq       ....     5
   Bias factor          DIISBfac        ....   1.050
   Max. coefficient     DIISMaxC        ....  10.000
 Newton-Raphson         CNVNR           .... off
 SOSCF                  CNVSOSCF        .... off
 Level Shifting         CNVShift        .... on
   Level shift para.    LevelShift      ....    0.2500
   Turn off err/grad.   ShiftErr        ....    0.0000
 Zerner damping         CNVZerner       .... off
 Static damping         CNVDamp         .... on
   Fraction old density DampFac         ....    0.8500
   Max. Damping (<1)    DampMax         ....    0.9800
   Min. Damping (>=0)   DampMin         ....    0.0000
   Turn off err/grad.   DampErr         ....    0.0300
 Fernandez-Rico         CNVRico         .... off

SCF Procedure:
 Maximum # iterations   MaxIter         ....   125
 SCF integral mode      SCFMode         .... Direct
   Integral package                     .... LIBINT
 Reset frequency        DirectResetFreq ....    20
 Integral Threshold     Thresh          ....  2.500e-11 Eh
 Primitive CutOff       TCut            ....  2.500e-12 Eh

Convergence Tolerance:
 Convergence Check Mode ConvCheckMode   .... Total+1el-Energy
 Convergence forced     ConvForced      .... 1
 Energy Change          TolE            ....  1.000e-08 Eh
 1-El. energy change                    ....  1.000e-05 Eh
 DIIS Error             TolErr          ....  5.000e-07


Diagonalization of the overlap matrix:
Smallest eigenvalue                        ... 8.229e-05
Time for diagonalization                   ...    0.024 sec
Threshold for overlap eigenvalues          ... 1.000e-08
Number of eigenvalues below threshold      ... 0
Time for construction of square roots      ...    0.008 sec
Total time needed                          ...    0.033 sec

-------------------
DFT GRID GENERATION
-------------------

General Integration Accuracy     IntAcc      ...  4.340
Radial Grid Type                 RadialGrid  ... Gauss-Chebyshev
Angular Grid (max. acc.)         AngularGrid ... Lebedev-110
Angular grid pruning method      GridPruning ... 3 (G Style)
Weight generation scheme         WeightScheme... Becke
Basis function cutoff            BFCut       ...    1.0000e-11
Integration weight cutoff        WCut        ...    1.0000e-14
Grids for H and He will be reduced by one unit

# of grid points (after initial pruning)     ...   2912 (   0.0 sec)
# of grid points (after weights+screening)   ...   2912 (   0.0 sec)
Grid point division into batches done        ...    0.0 sec
Reduced shell lists constructed in    0.0 sec

Total number of grid points                  ...     2912
Total number of batches                      ...       46
Average number of points per batch           ...       63
Average number of grid points per atom       ...     2912
Average number of shells per batch           ...    20.00 (50.00%)
Average number of basis functions per batch  ...    70.67 (34.98%)
Average number of large shells per batch     ...    16.00 (80.00%)
Average number of large basis fcns per batch ...    53.33 (75.47%)
Maximum spatial batch extension              ...  18.98, 28.73, 28.73 au
Average spatial batch extension              ...   0.83,  1.25,  1.25 au

Time for grid setup =    0.029 sec

------------------------------
INITIAL GUESS: MODEL POTENTIAL
------------------------------
Loading Hartree-Fock densities                     ... done
Calculating cut-offs                               ... done
Setting up the integral package                    ... done
Initializing the effective Hamiltonian             ... done
Starting the Coulomb interaction                   ... done (   0.0 sec)
Reading the grid                                   ... done
Mapping shells                                     ... done
Starting the XC term evaluation                    ... done (   0.0 sec)
Transforming the Hamiltonian                       ... done (   0.0 sec)
Diagonalizing the Hamiltonian                      ... done (   0.0 sec)
Back transforming the eigenvectors                 ... done (   0.0 sec)
Now organizing SCF variables                       ... done
                      ------------------
                      INITIAL GUESS DONE (   0.2 sec)
                      ------------------
--------------
SCF ITERATIONS
--------------
ITER       Energy         Delta-E        Max-DP      RMS-DP      [F,P]     Damp
               ***  Starting incremental Fock matrix formation  ***
  0  -1262.3134723182   0.000000000000 0.03569273  0.00041668  0.2481383 0.8500
  1  -1262.3241705319  -0.010698213729 0.03046063  0.00035842  0.2167473 0.8500
                               ***Turning on DIIS***
  2  -1262.3321356866  -0.007965154697 0.02548774  0.00030134  0.1887571 0.8500
  3  -1262.9343202080  -0.602184521384 0.02098766  0.00025074  0.1637943 0.8500
  4  -1263.1024981256  -0.168177917608 0.01782043  0.00021497  0.1403633 0.8500
  5  -1262.9758525195   0.126645606076 0.01541754  0.00018712  0.1194240 0.8500
  6  -1262.8521673259   0.123685193562 0.01327772  0.00016229  0.1014918 0.8500
  7  -1262.6803796255   0.171787700406 0.01145297  0.00014096  0.0862734 0.8500
  8  -1262.6458019453   0.034577680200 0.00970782  0.00012094  0.0735118 0.8500
  9  -1262.6360020883   0.009799857072 0.00820262  0.00010352  0.0626128 0.8500
 10  -1262.6098546459   0.026147442356 0.00696215  0.00008892  0.0532722 0.8500
 11  -1262.5746891497   0.035165496169 0.00601006  0.00007662  0.0453055 0.8500
 12  -1262.5399878712   0.034701278562 0.00548008  0.00006613  0.0385353 0.8500
 13  -1262.5150137500   0.024974121222 0.00495896  0.00005704  0.0327890 0.8500
 14  -1262.4967227446   0.018291005409 0.02970620  0.00032785  0.0279019 0.0000
 15  -1262.3757414136   0.120981330903 0.00252963  0.00001675  0.0014787 0.0000
 16  -1262.3758453639  -0.000103950261 0.00260158  0.00001446  0.0013952 0.0000
 17  -1262.3743883754   0.001456988498 0.00273583  0.00001767  0.0013928 0.0000
 18  -1262.3753313440  -0.000942968544 0.00236976  0.00001330  0.0013970 0.0000
 19  -1262.3740965274   0.001234816588 0.00161286  0.00000832  0.0014084 0.0000
               *** Restarting incremental Fock matrix formation ***
                                   *** Resetting DIIS ***
 20  -1262.3745533778  -0.000456850475 0.00142001  0.00000759  0.0014204 0.0000
 21  -1262.3746551016  -0.000101723786 0.00088616  0.00000461  0.0014403 0.0000
 22  -1262.3740156608   0.000639440789 0.00053610  0.00000251  0.0014536 0.0000
 23  -1262.3740246853  -0.000009024422 0.00003329  0.00000023  0.0014430 0.0000
 24  -1262.3740042036   0.000020481632 0.00001731  0.00000008  0.0014435 0.0000
 25  -1262.3742469929  -0.000242789306 0.00162869  0.00000757  0.0014435 0.0000
 26  -1262.3744086199  -0.000161626989 0.00107232  0.00000512  0.0014728 0.0000
 27  -1262.3741613763   0.000247243626 0.00236912  0.00001118  0.0014913 0.0000
 28  -1262.3741789846  -0.000017608328 0.00022224  0.00000119  0.0014416 0.0000
 29  -1262.3743903251  -0.000211340473 0.00045055  0.00000207  0.0014508 0.0000
 30  -1262.3746579468  -0.000267621748 0.00085308  0.00000394  0.0014577 0.0000
 31  -1262.3745753002   0.000082646687 0.00067651  0.00000318  0.0014720 0.0000
 32  -1262.3742569676   0.000318332557 0.00003710  0.00000022  0.0014837 0.0000
 33  -1262.3740961374   0.000160830221 0.00037660  0.00000178  0.0014835 0.0000
 34  -1262.3741453918  -0.000049254391 0.00092139  0.00000432  0.0014761 0.0000
 35  -1262.3743353367  -0.000189944921 0.00098043  0.00000464  0.0014948 0.0000
 36  -1262.3746013442  -0.000266007457 0.00014957  0.00000083  0.0015137 0.0000
 37  -1262.3748450438  -0.000243699648 0.00056726  0.00000274  0.0015087 0.0000
 38  -1262.3750963855  -0.000251341669 0.00056352  0.00000273  0.0015224 0.0000
 39  -1262.3751445307  -0.000048145244 0.00100266  0.00000483  0.0015084 0.0000
               *** Restarting incremental Fock matrix formation ***
                                   *** Resetting DIIS ***
 40  -1262.3745874169   0.000557113801 0.00152138  0.00000736  0.0015320 0.0000
 41  -1262.3743454210   0.000241995869 0.00092096  0.00000453  0.0015657 0.0000
 42  -1262.3742883924   0.000057028642 0.00102307  0.00000508  0.0015861 0.0000
 43  -1262.3741145722   0.000173820251 0.00012029  0.00000062  0.0015589 0.0000
 44  -1262.3740995575   0.000015014669 0.00015810  0.00000080  0.0015578 0.0000
 45  -1262.3745378266  -0.000438269108 0.00189900  0.00000938  0.0015536 0.0000
 46  -1262.3746731648  -0.000135338174 0.00132571  0.00000660  0.0016016 0.0000
 47  -1262.3747490068  -0.000075842078 0.00295297  0.00001489  0.0016331 0.0000
 48  -1262.3750503329  -0.000301326036 0.00014886  0.00000095  0.0015518 0.0000
 49  -1262.3747816388   0.000268694112 0.00009416  0.00000040  0.0015535 0.0000
 50  -1262.3742964730   0.000485165755 0.00019416  0.00000079  0.0015537 0.0000
 51  -1262.3744554246  -0.000158951566 0.00037937  0.00000185  0.0015544 0.0000
 52  -1262.3751474110  -0.000691986405 0.00183946  0.00000917  0.0015404 0.0000
 53  -1262.3747309103   0.000416500633 0.00130678  0.00000659  0.0015883 0.0000
 54  -1262.3737858628   0.000945047564 0.00306719  0.00001533  0.0016205 0.0000
 55  -1262.3734579631   0.000327899731 0.00057367  0.00000286  0.0015392 0.0000
 56  -1262.3736781247  -0.000220161667 0.00020099  0.00000083  0.0015576 0.0000
 57  -1262.3741944447  -0.000516319981 0.00046350  0.00000219  0.0015573 0.0000
 58  -1262.3749339758  -0.000739531140 0.00052049  0.00000249  0.0015666 0.0000
 59  -1262.3750360907  -0.000102114819 0.00136961  0.00000693  0.0015773 0.0000
               *** Restarting incremental Fock matrix formation ***
                                   *** Resetting DIIS ***
 60  -1262.3746137574   0.000422333304 0.00160616  0.00000816  0.0016141 0.0000
 61  -1262.3745075233   0.000106234069 0.00076991  0.00000396  0.0016567 0.0000
 62  -1262.3744845118   0.000023011506 0.00103805  0.00000537  0.0016767 0.0000
 63  -1262.3744024501   0.000082061653 0.00022562  0.00000119  0.0016450 0.0000
 64  -1262.3744083291  -0.000005878996 0.00029664  0.00000155  0.0016401 0.0000
 65  -1262.3746026454  -0.000194316250 0.00190719  0.00000981  0.0016311 0.0000
 66  -1262.3746381216  -0.000035476250 0.00148332  0.00000768  0.0016875 0.0000
 67  -1262.3747014971  -0.000063375441 0.00277092  0.00001447  0.0017286 0.0000
 68  -1262.3748386326  -0.000137135569 0.00019510  0.00000116  0.0016422 0.0000
 69  -1262.3747235784   0.000115054250 0.00027978  0.00000140  0.0016417 0.0000
 70  -1262.3744842599   0.000239318436 0.00066482  0.00000335  0.0016489 0.0000
 71  -1262.3745387344  -0.000054474459 0.00039896  0.00000198  0.0016665 0.0000
 72  -1262.3746667442  -0.000128009753 0.00128775  0.00000672  0.0016757 0.0000
 73  -1262.3747379841  -0.000071239921 0.00094800  0.00000490  0.0017145 0.0000
 74  -1262.3747777118  -0.000039727727 0.00065551  0.00000341  0.0016852 0.0000
 75  -1262.3748055998  -0.000027887999 0.00126218  0.00000655  0.0017064 0.0000
 76  -1262.3747518621   0.000053737665 0.00006918  0.00000040  0.0017428 0.0000
 77  -1262.3745758131   0.000176049029 0.00039988  0.00000204  0.0017414 0.0000
 78  -1262.3744560862   0.000119726962 0.00053281  0.00000281  0.0017303 0.0000
 79  -1262.3744573928  -0.000001306665 0.00091843  0.00000481  0.0017481 0.0000
               *** Restarting incremental Fock matrix formation ***
                                   *** Resetting DIIS ***
 80  -1262.3746568831  -0.000199490264 0.00176111  0.00000932  0.0017756 0.0000
 81  -1262.3747809015  -0.000124018440 0.00112406  0.00000600  0.0018404 0.0000
 82  -1262.3748617946  -0.000080893112 0.00129495  0.00000684  0.0018910 0.0000
 83  -1262.3749277645  -0.000065969866 0.00014387  0.00000081  0.0018289 0.0000
 84  -1262.3749310443  -0.000003279811 0.00020984  0.00000111  0.0018247 0.0000
 85  -1262.3746880872   0.000242957102 0.00217692  0.00001154  0.0018150 0.0000
 86  -1262.3746629031   0.000025184138 0.00159894  0.00000848  0.0019178 0.0000
 87  -1262.3747588331  -0.000095930042 0.00356914  0.00001876  0.0019889 0.0000
 88  -1262.3746200729   0.000138760174 0.00021416  0.00000138  0.0018225 0.0000
 89  -1262.3746940698  -0.000073996844 0.00002612  0.00000017  0.0018190 0.0000
 90  -1262.3748492486  -0.000155178780 0.00004950  0.00000018  0.0018199 0.0000
 91  -1262.3747684778   0.000080770810 0.00063381  0.00000317  0.0018224 0.0000
 92  -1262.3745842061   0.000184271694 0.00168424  0.00000896  0.0017966 0.0000
 93  -1262.3747037236  -0.000119517510 0.00220834  0.00001176  0.0018771 0.0000
 94  -1262.3749375206  -0.000233797071 0.00200591  0.00001059  0.0019773 0.0000
 95  -1262.3749109990   0.000026521615 0.00013794  0.00000082  0.0018798 0.0000
 96  -1262.3749109790   0.000000019980 0.00079953  0.00000421  0.0018783 0.0000
 97  -1262.3748478176   0.000063161456 0.00155901  0.00000824  0.0019159 0.0000
 98  -1262.3746782643   0.000169553292 0.00117983  0.00000623  0.0019865 0.0000
 99  -1262.3744063870   0.000271877292 0.00297229  0.00001562  0.0020383 0.0000
               *** Restarting incremental Fock matrix formation ***
                                   *** Resetting DIIS ***
100  -1262.3746817906  -0.000275403599 0.00185586  0.00000979  0.0019007 0.0000
101  -1262.3745398027   0.000141987908 0.00244898  0.00001286  0.0019930 0.0000
102  -1262.3744749465   0.000064856217 0.00091775  0.00000484  0.0021020 0.0000
103  -1262.3749501355  -0.000475189049 0.00403141  0.00002103  0.0021388 0.0000
104  -1262.3750908575  -0.000140721985 0.00083650  0.00000445  0.0019568 0.0000
105  -1262.3747766396   0.000314217913 0.00150057  0.00000772  0.0019262 0.0000
106  -1262.3749068892  -0.000130249614 0.00210477  0.00001074  0.0018619 0.0000
107  -1262.3748200282   0.000086861000 0.00455103  0.00002324  0.0017736 0.0000
108  -1262.3750800032  -0.000259974952 0.00999042  0.00005065  0.0015945 0.0000
109  -1262.3748677243   0.000212278839 0.00334266  0.00001742  0.0012481 0.0000
110  -1262.3750073776  -0.000139653270 0.01841768  0.00009231  0.0013746 0.0000
111  -1262.3782637034  -0.003256325820 0.00562591  0.00002811  0.0009793 0.0000
112  -1262.3754117916   0.002851911853 0.00411932  0.00002012  0.0005228 0.0000
113  -1262.3742785783   0.001133213246 0.00357440  0.00001729  0.0003687 0.0000
114  -1262.3753074445  -0.001028866159 0.00204141  0.00000962  0.0002560 0.0000
115  -1262.3747848178   0.000522626636 0.00145324  0.00000677  0.0001508 0.0000
116  -1262.3746848213   0.000099996531 0.00118385  0.00000534  0.0000945 0.0000
117  -1262.3746398462   0.000044975079 0.00059091  0.00000259  0.0001220 0.0000
118  -1262.3744847264   0.000155119862 0.00014853  0.00000063  0.0001368 0.0000
119  -1262.3744863467  -0.000001620312 0.00037997  0.00000194  0.0001358 0.0000
               *** Restarting incremental Fock matrix formation ***
                                   *** Resetting DIIS ***
120  -1262.3744830853   0.000003261418 0.00011730  0.00000047  0.0001176 0.0000
121  -1262.3745314638  -0.000048378546 0.00016236  0.00000064  0.0001184 0.0000
122  -1262.3744980027   0.000033461128 0.00019391  0.00000076  0.0001186 0.0000
123  -1262.3744697638   0.000028238879 0.00018236  0.00000072  0.0001191 0.0000
124  -1262.3745103828  -0.000040618985 0.00005874  0.00000024  0.0001199 0.0000

               *****************************************************
               *                      ERROR                        *
               *        SCF NOT CONVERGED AFTER 125 CYCLES         *
               *****************************************************


---------------
SCF CONVERGENCE
---------------

  Last Energy change         ...   -4.0619e-05  Tolerance :   1.0000e-08
  Last MAX-Density change    ...    5.8744e-05  Tolerance :   1.0000e-07
  Last RMS-Density change    ...    2.3542e-07  Tolerance :   5.0000e-09
  Last DIIS Error            ...    1.1988e-04  Tolerance :   5.0000e-07

     --------------------------------------------------------------------
                                      ERROR
     This wavefunction IS NOT CONVERGED! 
     But SCFConvergence was forced (by user or by method)
     Aborting ...
     --------------------------------------------------------------------


--------------------------------------------------------------------------
Primary job  terminated normally, but 1 process returned
a non-zero exit code. Per user-direction, the job has been aborted.
--------------------------------------------------------------------------
--------------------------------------------------------------------------
mpirun detected that one or more processes exited with non-zero status, thus causing
the job to be terminated. The first process to do so was:

  Process name: [[44829,1],12]
  Exit code:    125
--------------------------------------------------------------------------

ORCA finished by error termination in SCF
Calling Command: mpirun -np 24  /sw/apps/orca/orca_4_2_0_linux_x86-64_openmpi314/orca_scf_mpi 26_Fe.gbw b 26_Fe 
[file orca_tools/qcmsg.cpp, line 458]: 
  .... aborting the run

[file orca_tools/qcmsg.cpp, line 458]: 
  .... aborting the run

