
                                 *****************
                                 * O   R   C   A *
                                 *****************

           --- An Ab Initio, DFT and Semiempirical electronic structure package ---

                  #######################################################
                  #                        -***-                        #
                  #          Department of theory and spectroscopy      #
                  #               Directorship: Frank Neese             #
                  #        Max Planck Institute fuer Kohlenforschung    #
                  #                Kaiser Wilhelm Platz 1               #
                  #                 D-45470 Muelheim/Ruhr               #
                  #                      Germany                        #
                  #                                                     #
                  #                  All rights reserved                #
                  #                        -***-                        #
                  #######################################################


                         Program Version 4.2.0 -  RELEASE  -


 With contributions from (in alphabetic order):
   Daniel Aravena         : Magnetic Suceptibility
   Michael Atanasov       : Ab Initio Ligand Field Theory (pilot matlab implementation)
   Alexander A. Auer      : GIAO ZORA, VPT2
   Ute Becker             : Parallelization
   Giovanni Bistoni       : ED, misc. LED, open-shell LED, HFLED
   Martin Brehm           : Molecular dynamics
   Dmytro Bykov           : SCF Hessian
   Vijay G. Chilkuri      : MRCI spin determinant printing, contributions to CSF-ICE
   Dipayan Datta          : RHF DLPNO-CCSD density
   Achintya Kumar Dutta   : EOM-CC, STEOM-CC
   Dmitry Ganyushin       : Spin-Orbit,Spin-Spin,Magnetic field MRCI
   Miquel Garcia          : C-PCM Hessian, Gaussian charge scheme
   Yang Guo               : DLPNO-NEVPT2, CIM, IAO-localization
   Andreas Hansen         : Spin unrestricted coupled pair/coupled cluster methods
   Benjamin Helmich-Paris : CASSCF linear response (MC-RPA)
   Lee Huntington         : MR-EOM, pCC
   Robert Izsak           : Overlap fitted RIJCOSX, COSX-SCS-MP3, EOM
   Christian Kollmar      : KDIIS, OOCD, Brueckner-CCSD(T), CCSD density
   Simone Kossmann        : Meta GGA functionals, TD-DFT gradient, OOMP2, MP2 Hessian
   Martin Krupicka        : AUTO-CI
   Lucas Lang             : DCDCAS
   Dagmar Lenk            : GEPOL surface, SMD
   Dimitrios Liakos       : Extrapolation schemes; Compound Job, initial MDCI parallelization
   Dimitrios Manganas     : Further ROCIS development; embedding schemes
   Dimitrios Pantazis     : SARC Basis sets
   Taras Petrenko         : DFT Hessian,TD-DFT gradient, ASA, ECA, R-Raman, ABS, FL, XAS/XES, NRVS
   Peter Pinski           : DLPNO-MP2, DLPNO-MP2 Gradient
   Christoph Reimann      : Effective Core Potentials
   Marius Retegan         : Local ZFS, SOC
   Christoph Riplinger    : Optimizer, TS searches, QM/MM, DLPNO-CCSD(T), (RO)-DLPNO pert. Triples
   Tobias Risthaus        : Range-separated hybrids, TD-DFT gradient, RPA, STAB
   Michael Roemelt        : Original ROCIS implementation
   Masaaki Saitow         : Open-shell DLPNO-CCSD energy and density
   Barbara Sandhoefer     : DKH picture change effects
   Avijit Sen             : IP-ROCIS
   Kantharuban Sivalingam : CASSCF convergence, NEVPT2, FIC-MRCI
   Bernardo de Souza      : ESD, SOC TD-DFT
   Georgi Stoychev        : AutoAux, RI-MP2 NMR
   Willem Van den Heuvel  : Paramagnetic NMR
   Boris Wezisla          : Elementary symmetry handling
   Frank Wennmohs         : Technical directorship


 We gratefully acknowledge several colleagues who have allowed us to
 interface, adapt or use parts of their codes:
   Stefan Grimme, W. Hujo, H. Kruse,             : VdW corrections, initial TS optimization,
                  C. Bannwarth                     DFT functionals, gCP, sTDA/sTD-DF
   Ed Valeev, F. Pavosevic, A. Kumar             : LibInt (2-el integral package), F12 methods
   Garnet Chan, S. Sharma, J. Yang, R. Olivares  : DMRG
   Ulf Ekstrom                                   : XCFun DFT Library
   Mihaly Kallay                                 : mrcc  (arbitrary order and MRCC methods)
   Andreas Klamt, Michael Diedenhofen            : otool_cosmo (COSMO solvation model)
   Jiri Pittner, Ondrej Demel                    : Mk-CCSD
   Frank Weinhold                                : gennbo (NPA and NBO analysis)
   Christopher J. Cramer and Donald G. Truhlar   : smd solvation model
   Lars Goerigk                                  : TD-DFT with DH, B97 family of functionals
   V. Asgeirsson, H. Jonsson                     : NEB implementation
   FAccTs GmbH                                   : IRC, NEB, NEB-TS, Multilevel, MM, QM/MM, CI optimization
   S Lehtola, MJT Oliveira, MAL Marques          : LibXC Library


 Your calculation uses the libint2 library for the computation of 2-el integrals
 For citations please refer to: http://libint.valeyev.net

 Your ORCA version has been built with support for libXC version: 4.2.3
 For citations please refer to: https://tddft.org/programs/libxc/

 This ORCA versions uses:
   CBLAS   interface :  Fast vector & matrix operations
   LAPACKE interface :  Fast linear algebra routines
   SCALAPACK package :  Parallel linear algebra routines


----- Orbital basis set information -----
Your calculation utilizes the basis: aug-cc-pV5Z 
          H : Obtained from the ccRepo (grant-hill.group.shef.ac.uk/ccrepo) Feb. 2017
              T. H. Dunning, Jr., J. Chem. Phys. 90, 1007 (1989)
              Diffuse s exponent - S. Mielke, unpublished
         He : Obtained from the ccRepo (grant-hill.group.shef.ac.uk/ccrepo) Feb. 2017
              D. E. Woon, T. H. Dunning, Jr., J. Chem. Phys. 100, 2975 (1994)
  Li-Be, Na : Obtained from the ccRepo (grant-hill.group.shef.ac.uk/ccrepo) Feb. 2017
              B. P. Prascher, D. E. Woon, K. A. Peterson, T. H. Dunning, Jr., A. K. Wilson, Theor. Chem. Acc. 128, 69 (2011)
        B-F : Obtained from the ccRepo (grant-hill.group.shef.ac.uk/ccrepo) Feb. 2017
              R. A. Kendall, T. H. Dunning, Jr., R. J. Harrison, J. Chem. Phys. 96, 6796 (1992)
              T. H. Dunning, Jr., J. Chem. Phys. 90, 1007 (1989)
         Ne : Obtained from the ccRepo (grant-hill.group.shef.ac.uk/ccrepo) Feb. 2017
              T. H. Dunning, Jr., J. Chem. Phys. 90, 1007 (1989)
         Mg : Obtained from the Peterson Research Group Website (tyr0.chem.wsu.edu/~kipeters) Feb. 2017
              B. P. Prascher, D. E. Woon, K. A. Peterson, T. H. Dunning, Jr., A. K. Wilson, Theor. Chem. Acc. 128, 69 (2011)
      Al-Ar : Obtained from the ccRepo (grant-hill.group.shef.ac.uk/ccrepo) Feb. 2017
              D. E. Woon, T. H. Dunning, Jr., J. Chem. Phys. 98, 1358 (1993)
      Sc-Zn : Obtained from the ccRepo (grant-hill.group.shef.ac.uk/ccrepo) Feb. 2017
              N. B. Balabanov, K. A. Peterson, J. Chem. Phys. 123, 064107 (2005)
              N. B. Balabanov, K. A. Peterson, J. Chem. Phys. 125, 074110 (2006)
      Ga-Kr : Obtained from the ccRepo (grant-hill.group.shef.ac.uk/ccrepo) Feb. 2017
              A. K. Wilson, D. E. Woon, K. A. Peterson, T. H. Dunning, Jr., J. Chem. Phys. 110, 7667 (1999)

================================================================================
                                        WARNINGS
                       Please study these warnings very carefully!
================================================================================


WARNING: your system is open-shell and RHF/RKS was chosen
  ===> : WILL SWITCH to UHF/UKS


WARNING: MDCI localization with Augmented Hessian Foster-Boys
  ===> : Switching off randomization!

WARNING: Post HF methods need fully converged wavefunctions
  ===> : Setting SCFConvForced true
         You can overwrite this default with %scf ConvForced false 


INFO   : the flag for use of LIBINT has been found!

================================================================================
                                       INPUT FILE
================================================================================
NAME = 32_Ge.in
|  1> #
|  2> # 32_Ge CCSD(T)/aug-cc-pV5Z
|  3> #
|  4> ! CCSD(T) aug-cc-pV5Z tightscf
|  5> 
|  6> *xyz 0 3
|  7>  Ge 0.0 0.0 0.0
|  8> *
|  9> 
| 10> %maxcore 5000 
| 11> 
| 12> %pal
| 13> nprocs 24
| 14> end
| 15> 
| 16> 
| 17>                          ****END OF INPUT****
================================================================================

                       ****************************
                       * Single Point Calculation *
                       ****************************

---------------------------------
CARTESIAN COORDINATES (ANGSTROEM)
---------------------------------
  Ge     0.000000    0.000000    0.000000

----------------------------
CARTESIAN COORDINATES (A.U.)
----------------------------
  NO LB      ZA    FRAG     MASS         X           Y           Z
   0 Ge   32.0000    0    72.590    0.000000    0.000000    0.000000

--------------------------------
INTERNAL COORDINATES (ANGSTROEM)
--------------------------------
 Ge     0   0   0     0.000000000000     0.00000000     0.00000000

---------------------------
INTERNAL COORDINATES (A.U.)
---------------------------
 Ge     0   0   0     0.000000000000     0.00000000     0.00000000

---------------------
BASIS SET INFORMATION
---------------------
There are 1 groups of distinct atoms

 Group   1 Type Ge  : 93s44p14d4f3g2h contracted to 9s8p6d4f3g2h pattern {2222222211111/13131311111/911111/1111/111/11}

Atom   0Ge   basis set group =>   1


           ************************************************************
           *        Program running with 24 parallel MPI-processes    *
           *              working on a common directory               *
           ************************************************************
------------------------------------------------------------------------------
                           ORCA GTO INTEGRAL CALCULATION
------------------------------------------------------------------------------

                         BASIS SET STATISTICS AND STARTUP INFO

 # of primitive gaussian shells          ...  160
 # of primitive gaussian functions       ...  372
 # of contracted shells                  ...   32
 # of contracted basis functions         ...  140
 Highest angular momentum                ...    5
 Maximum contraction depth               ...   22
 Integral package used                   ... LIBINT
 Integral threshhold            Thresh   ...  2.500e-11
 Primitive cut-off              TCut     ...  2.500e-12


------------------------------ INTEGRAL EVALUATION ----------------------------


 * One electron integrals 
 Pre-screening matrix                    ... done
 Shell pair data                         ... done (   0.000 sec)



           ************************************************************
           *        Program running with 24 parallel MPI-processes    *
           *              working on a common directory               *
           ************************************************************
-------------------------------------------------------------------------------
                                 ORCA SCF
-------------------------------------------------------------------------------

------------
SCF SETTINGS
------------
Hamiltonian:
 Ab initio Hamiltonian  Method          .... Hartree-Fock(GTOs)


General Settings:
 Integral files         IntName         .... 32_Ge
 Hartree-Fock type      HFTyp           .... UHF
 Total Charge           Charge          ....    0
 Multiplicity           Mult            ....    3
 Number of Electrons    NEL             ....   32
 Basis Dimension        Dim             ....  140
 Nuclear Repulsion      ENuc            ....      0.0000000000 Eh

Convergence Acceleration:
 DIIS                   CNVDIIS         .... on
   Start iteration      DIISMaxIt       ....    12
   Startup error        DIISStart       ....  0.200000
   # of expansion vecs  DIISMaxEq       ....     5
   Bias factor          DIISBfac        ....   1.050
   Max. coefficient     DIISMaxC        ....  10.000
 Newton-Raphson         CNVNR           .... off
 SOSCF                  CNVSOSCF        .... off
 Level Shifting         CNVShift        .... on
   Level shift para.    LevelShift      ....    0.2500
   Turn off err/grad.   ShiftErr        ....    0.0010
 Zerner damping         CNVZerner       .... off
 Static damping         CNVDamp         .... on
   Fraction old density DampFac         ....    0.7000
   Max. Damping (<1)    DampMax         ....    0.9800
   Min. Damping (>=0)   DampMin         ....    0.0000
   Turn off err/grad.   DampErr         ....    0.1000
 Fernandez-Rico         CNVRico         .... off

SCF Procedure:
 Maximum # iterations   MaxIter         ....   125
 SCF integral mode      SCFMode         .... Direct
   Integral package                     .... LIBINT
 Reset frequency        DirectResetFreq ....    20
 Integral Threshold     Thresh          ....  2.500e-11 Eh
 Primitive CutOff       TCut            ....  2.500e-12 Eh

Convergence Tolerance:
 Convergence Check Mode ConvCheckMode   .... Total+1el-Energy
 Convergence forced     ConvForced      .... 1
 Energy Change          TolE            ....  1.000e-08 Eh
 1-El. energy change                    ....  1.000e-05 Eh
 DIIS Error             TolErr          ....  5.000e-07


Diagonalization of the overlap matrix:
Smallest eigenvalue                        ... 1.808e-04
Time for diagonalization                   ...    0.004 sec
Threshold for overlap eigenvalues          ... 1.000e-08
Number of eigenvalues below threshold      ... 0
Time for construction of square roots      ...    0.003 sec
Total time needed                          ...    0.007 sec

-------------------
DFT GRID GENERATION
-------------------

General Integration Accuracy     IntAcc      ...  4.340
Radial Grid Type                 RadialGrid  ... Gauss-Chebyshev
Angular Grid (max. acc.)         AngularGrid ... Lebedev-110
Angular grid pruning method      GridPruning ... 3 (G Style)
Weight generation scheme         WeightScheme... Becke
Basis function cutoff            BFCut       ...    1.0000e-11
Integration weight cutoff        WCut        ...    1.0000e-14
Grids for H and He will be reduced by one unit

# of grid points (after initial pruning)     ...   2912 (   0.0 sec)
# of grid points (after weights+screening)   ...   2912 (   0.0 sec)
Grid point division into batches done        ...    0.0 sec
Reduced shell lists constructed in    0.0 sec

Total number of grid points                  ...     2912
Total number of batches                      ...       46
Average number of points per batch           ...       63
Average number of grid points per atom       ...     2912
Average number of shells per batch           ...    14.67 (45.83%)
Average number of basis functions per batch  ...    76.00 (54.29%)
Average number of large shells per batch     ...    11.33 (77.27%)
Average number of large basis fcns per batch ...    54.00 (71.05%)
Maximum spatial batch extension              ...  15.81, 23.94, 23.94 au
Average spatial batch extension              ...   0.69,  1.04,  1.04 au

Time for grid setup =    0.020 sec

------------------------------
INITIAL GUESS: MODEL POTENTIAL
------------------------------
Loading Hartree-Fock densities                     ... done
Calculating cut-offs                               ... done
Setting up the integral package                    ... done
Initializing the effective Hamiltonian             ... done
Starting the Coulomb interaction                   ... done (   0.0 sec)
Reading the grid                                   ... done
Mapping shells                                     ... done
Starting the XC term evaluation                    ... done (   0.0 sec)
Transforming the Hamiltonian                       ... done (   0.0 sec)
Diagonalizing the Hamiltonian                      ... done (   0.0 sec)
Back transforming the eigenvectors                 ... done (   0.0 sec)
Now organizing SCF variables                       ... done
                      ------------------
                      INITIAL GUESS DONE (   0.1 sec)
                      ------------------
--------------
SCF ITERATIONS
--------------
ITER       Energy         Delta-E        Max-DP      RMS-DP      [F,P]     Damp
               ***  Starting incremental Fock matrix formation  ***
  0  -2075.3136706811   0.000000000000 0.04961051  0.00101602  0.2176414 0.7000
  1  -2075.3296107579  -0.015940076821 0.07051102  0.00108851  0.1265668 0.7000
                               ***Turning on DIIS***
  2  -2075.3395331815  -0.009922423626 0.22871220  0.00336197  0.0731521 0.0000
  3  -2075.5491956125  -0.209662430965 0.08816021  0.00121715  0.0322142 0.0000
  4  -2075.1948656909   0.354329921632 0.01041724  0.00016409  0.0132594 0.0000
  5  -2075.3579367931  -0.163071102224 0.00334935  0.00004346  0.0018342 0.0000
  6  -2075.3667053513  -0.008768558161 0.00181726  0.00002828  0.0007539 0.0000
  7  -2075.3634335066   0.003271844661 0.00048696  0.00000878  0.0001790 0.0000
  8  -2075.3638177084  -0.000384201811 0.00015389  0.00000178  0.0000288 0.0000
  9  -2075.3639874550  -0.000169746634 0.00005560  0.00000062  0.0000064 0.0000
 10  -2075.3640207327  -0.000033277684 0.00002208  0.00000025  0.0000022 0.0000
                            ***DIIS convergence achieved***

               *****************************************************
               *                     SUCCESS                       *
               *           SCF CONVERGED AFTER  11 CYCLES          *
               *****************************************************


----------------
TOTAL SCF ENERGY
----------------

Total Energy       :        -2075.36405016 Eh          -56473.52686 eV

Components:
Nuclear Repulsion  :            0.00000000 Eh               0.00000 eV
Electronic Energy  :        -2075.36405016 Eh          -56473.52686 eV
One Electron Energy:        -2895.15218263 Eh          -78781.09604 eV
Two Electron Energy:          819.78813246 Eh           22307.56918 eV

Virial components:
Potential Energy   :        -4150.72546618 Eh         -112946.98205 eV
Kinetic Energy     :         2075.36141602 Eh           56473.45518 eV
Virial Ratio       :            2.00000127


---------------
SCF CONVERGENCE
---------------

  Last Energy change         ...   -2.9432e-05  Tolerance :   1.0000e-08
  Last MAX-Density change    ...    1.6686e-06  Tolerance :   1.0000e-07
  Last RMS-Density change    ...    2.6738e-08  Tolerance :   5.0000e-09
  Last DIIS Error            ...    5.3758e-07  Tolerance :   5.0000e-07

             **** THE GBW FILE WAS UPDATED (32_Ge.gbw) ****
             **** DENSITY FILE WAS UPDATED (32_Ge.scfp) ****
             **** ENERGY FILE WAS UPDATED (32_Ge.en.tmp) ****
----------------------
UHF SPIN CONTAMINATION
----------------------

Expectation value of <S**2>     :     2.011340
Ideal value S*(S+1) for S=1.0   :     2.000000
Deviation                       :     0.011340

             **** THE GBW FILE WAS UPDATED (32_Ge.gbw) ****
             **** DENSITY FILE WAS UPDATED (32_Ge.scfp) ****
----------------
ORBITAL ENERGIES
----------------
                 SPIN UP ORBITALS
  NO   OCC          E(Eh)            E(eV) 
   0   1.0000    -405.245565    -11027.2924 
   1   1.0000     -52.149930     -1419.0717 
   2   1.0000     -46.237370     -1258.1828 
   3   1.0000     -46.237370     -1258.1828 
   4   1.0000     -46.236504     -1258.1593 
   5   1.0000      -7.193085      -195.7338 
   6   1.0000      -5.165592      -140.5629 
   7   1.0000      -5.165592      -140.5629 
   8   1.0000      -5.164716      -140.5391 
   9   1.0000      -1.640665       -44.6448 
  10   1.0000      -1.638304       -44.5805 
  11   1.0000      -1.638304       -44.5805 
  12   1.0000      -1.631620       -44.3986 
  13   1.0000      -1.631620       -44.3986 
  14   1.0000      -0.629824       -17.1384 
  15   1.0000      -0.291292        -7.9265 
  16   1.0000      -0.291292        -7.9265 
  17   0.0000      -0.012678        -0.3450 
  18   0.0000       0.041302         1.1239 
  19   0.0000       0.045748         1.2449 
  20   0.0000       0.045748         1.2449 
  21   0.0000       0.051539         1.4024 
  22   0.0000       0.104149         2.8340 
  23   0.0000       0.104280         2.8376 
  24   0.0000       0.104280         2.8376 
  25   0.0000       0.105301         2.8654 
  26   0.0000       0.105301         2.8654 
  27   0.0000       0.216107         5.8806 
  28   0.0000       0.216107         5.8806 
  29   0.0000       0.229088         6.2338 
  30   0.0000       0.236143         6.4258 
  31   0.0000       0.270715         7.3665 
  32   0.0000       0.271274         7.3817 
  33   0.0000       0.271274         7.3817 
  34   0.0000       0.273640         7.4461 
  35   0.0000       0.273640         7.4461 
  36   0.0000       0.278098         7.5674 
  37   0.0000       0.278098         7.5674 
  38   0.0000       0.294642         8.0176 
  39   0.0000       0.294642         8.0176 
  40   0.0000       0.303101         8.2478 
  41   0.0000       0.303101         8.2478 
  42   0.0000       0.306675         8.3450 
  43   0.0000       0.702006        19.1026 
  44   0.0000       0.703007        19.1298 
  45   0.0000       0.703007        19.1298 
  46   0.0000       0.706045        19.2125 
  47   0.0000       0.706045        19.2125 
  48   0.0000       0.711164        19.3518 
  49   0.0000       0.711164        19.3518 
  50   0.0000       0.718308        19.5461 
  51   0.0000       0.718308        19.5461 
  52   0.0000       0.721478        19.6324 
  53   0.0000       0.722985        19.6734 
  54   0.0000       0.722985        19.6734 
  55   0.0000       0.727387        19.7932 
  56   0.0000       0.727387        19.7932 
  57   0.0000       0.733220        19.9519 
  58   0.0000       0.733220        19.9519 
  59   0.0000       0.769364        20.9354 
  60   0.0000       0.769364        20.9354 
  61   0.0000       0.773999        21.0616 
  62   0.0000       0.798381        21.7251 
  63   0.0000       0.798381        21.7251 
  64   0.0000       0.801029        21.7971 
  65   0.0000       0.801029        21.7971 
  66   0.0000       0.802147        21.8275 
  67   0.0000       0.854473        23.2514 
  68   0.0000       1.605057        43.6758 
  69   0.0000       1.607012        43.7290 
  70   0.0000       1.607012        43.7290 
  71   0.0000       1.612863        43.8882 
  72   0.0000       1.612863        43.8882 
  73   0.0000       1.622542        44.1516 
  74   0.0000       1.622542        44.1516 
  75   0.0000       1.793820        48.8123 
  76   0.0000       1.795390        48.8550 
  77   0.0000       1.795390        48.8550 
  78   0.0000       1.800115        48.9836 
  79   0.0000       1.800115        48.9836 
  80   0.0000       1.801735        49.0277 
  81   0.0000       1.802859        49.0583 
  82   0.0000       1.802859        49.0583 
  83   0.0000       1.806239        49.1503 
  84   0.0000       1.806239        49.1503 
  85   0.0000       1.808026        49.1989 
  86   0.0000       1.808026        49.1989 
  87   0.0000       1.811911        49.3046 
  88   0.0000       1.811911        49.3046 
  89   0.0000       1.819150        49.5016 
  90   0.0000       1.819150        49.5016 
  91   0.0000       1.819928        49.5228 
  92   0.0000       1.819928        49.5228 
  93   0.0000       1.830365        49.8068 
  94   0.0000       1.830365        49.8068 
  95   0.0000       2.111143        57.4471 
  96   0.0000       2.114690        57.5436 
  97   0.0000       2.114690        57.5436 
  98   0.0000       2.125642        57.8417 
  99   0.0000       2.125642        57.8417 
 100   0.0000       2.490361        67.7662 
 101   0.0000       2.502701        68.1020 
 102   0.0000       2.502701        68.1020 
 103   0.0000       2.729557        74.2750 
 104   0.0000       3.243788        88.2679 
 105   0.0000       3.246586        88.3441 
 106   0.0000       3.246586        88.3441 
 107   0.0000       3.255086        88.5754 
 108   0.0000       3.255086        88.5754 
 109   0.0000       3.269623        88.9710 
 110   0.0000       3.269623        88.9710 
 111   0.0000       4.071228       110.7837 
 112   0.0000       4.073101       110.8347 
 113   0.0000       4.073101       110.8347 
 114   0.0000       4.078746       110.9883 
 115   0.0000       4.078746       110.9883 
 116   0.0000       4.088235       111.2465 
 117   0.0000       4.088235       111.2465 
 118   0.0000       4.101689       111.6126 
 119   0.0000       4.101689       111.6126 
 120   0.0000       4.183879       113.8491 
 121   0.0000       4.185295       113.8877 
 122   0.0000       4.185295       113.8877 
 123   0.0000       4.189555       114.0036 
 124   0.0000       4.189555       114.0036 
 125   0.0000       4.196698       114.1980 
 126   0.0000       4.196698       114.1980 
 127   0.0000       4.206785       114.4724 
 128   0.0000       4.206785       114.4724 
 129   0.0000       4.219905       114.8294 
 130   0.0000       4.219905       114.8294 
 131   0.0000       5.411968       147.2671 
 132   0.0000       5.416678       147.3953 
 133   0.0000       5.416678       147.3953 
 134   0.0000       5.431173       147.7897 
 135   0.0000       5.431173       147.7897 
 136   0.0000       8.717813       237.2238 
 137   0.0000       8.728951       237.5268 
 138   0.0000       8.728951       237.5268 
 139   0.0000      12.962116       352.7171 

                 SPIN DOWN ORBITALS
  NO   OCC          E(Eh)            E(eV) 
   0   1.0000    -405.241797    -11027.1899 
   1   1.0000     -52.149200     -1419.0519 
   2   1.0000     -46.236300     -1258.1537 
   3   1.0000     -46.232317     -1258.0453 
   4   1.0000     -46.232317     -1258.0453 
   5   1.0000      -7.187212      -195.5740 
   6   1.0000      -5.165694      -140.5657 
   7   1.0000      -5.151503      -140.1795 
   8   1.0000      -5.151503      -140.1795 
   9   1.0000      -1.639351       -44.6090 
  10   1.0000      -1.635605       -44.5071 
  11   1.0000      -1.635605       -44.5071 
  12   1.0000      -1.624861       -44.2147 
  13   1.0000      -1.624861       -44.2147 
  14   1.0000      -0.479136       -13.0379 
  15   0.0000       0.005080         0.1382 
  16   0.0000       0.028504         0.7756 
  17   0.0000       0.028504         0.7756 
  18   0.0000       0.047080         1.2811 
  19   0.0000       0.056811         1.5459 
  20   0.0000       0.078152         2.1266 
  21   0.0000       0.078152         2.1266 
  22   0.0000       0.108283         2.9465 
  23   0.0000       0.109874         2.9898 
  24   0.0000       0.109874         2.9898 
  25   0.0000       0.115852         3.1525 
  26   0.0000       0.115852         3.1525 
  27   0.0000       0.236460         6.4344 
  28   0.0000       0.253946         6.9102 
  29   0.0000       0.260241         7.0815 
  30   0.0000       0.260241         7.0815 
  31   0.0000       0.274391         7.4666 
  32   0.0000       0.275763         7.5039 
  33   0.0000       0.275763         7.5039 
  34   0.0000       0.279256         7.5989 
  35   0.0000       0.279256         7.5989 
  36   0.0000       0.286177         7.7873 
  37   0.0000       0.286177         7.7873 
  38   0.0000       0.329520         8.9667 
  39   0.0000       0.334300         9.0968 
  40   0.0000       0.334300         9.0968 
  41   0.0000       0.353810         9.6276 
  42   0.0000       0.353810         9.6276 
  43   0.0000       0.708948        19.2915 
  44   0.0000       0.710328        19.3290 
  45   0.0000       0.710328        19.3290 
  46   0.0000       0.714512        19.4429 
  47   0.0000       0.714512        19.4429 
  48   0.0000       0.721656        19.6373 
  49   0.0000       0.721656        19.6373 
  50   0.0000       0.732110        19.9217 
  51   0.0000       0.732110        19.9217 
  52   0.0000       0.737493        20.0682 
  53   0.0000       0.741640        20.1811 
  54   0.0000       0.741640        20.1811 
  55   0.0000       0.752141        20.4668 
  56   0.0000       0.752141        20.4668 
  57   0.0000       0.769739        20.9457 
  58   0.0000       0.769739        20.9457 
  59   0.0000       0.783612        21.3232 
  60   0.0000       0.816811        22.2266 
  61   0.0000       0.816811        22.2266 
  62   0.0000       0.827146        22.5078 
  63   0.0000       0.836276        22.7562 
  64   0.0000       0.836276        22.7562 
  65   0.0000       0.864514        23.5246 
  66   0.0000       0.864514        23.5246 
  67   0.0000       0.880259        23.9531 
  68   0.0000       1.624558        44.2065 
  69   0.0000       1.629238        44.3338 
  70   0.0000       1.629238        44.3338 
  71   0.0000       1.643436        44.7202 
  72   0.0000       1.643436        44.7202 
  73   0.0000       1.668004        45.3887 
  74   0.0000       1.668004        45.3887 
  75   0.0000       1.809292        49.2333 
  76   0.0000       1.811917        49.3048 
  77   0.0000       1.811917        49.3048 
  78   0.0000       1.811937        49.3053 
  79   0.0000       1.813473        49.3471 
  80   0.0000       1.813473        49.3471 
  81   0.0000       1.818106        49.4732 
  82   0.0000       1.818106        49.4732 
  83   0.0000       1.819863        49.5210 
  84   0.0000       1.819863        49.5210 
  85   0.0000       1.825911        49.6856 
  86   0.0000       1.825911        49.6856 
  87   0.0000       1.833353        49.8881 
  88   0.0000       1.833353        49.8881 
  89   0.0000       1.837032        49.9882 
  90   0.0000       1.837032        49.9882 
  91   0.0000       1.851758        50.3889 
  92   0.0000       1.851758        50.3889 
  93   0.0000       1.852849        50.4186 
  94   0.0000       1.852849        50.4186 
  95   0.0000       2.126305        57.8597 
  96   0.0000       2.134940        58.0947 
  97   0.0000       2.134940        58.0947 
  98   0.0000       2.163049        58.8596 
  99   0.0000       2.163049        58.8596 
 100   0.0000       2.497458        67.9593 
 101   0.0000       2.534200        68.9591 
 102   0.0000       2.534200        68.9591 
 103   0.0000       2.747546        74.7645 
 104   0.0000       3.254622        88.5628 
 105   0.0000       3.258828        88.6772 
 106   0.0000       3.258828        88.6772 
 107   0.0000       3.271622        89.0254 
 108   0.0000       3.271622        89.0254 
 109   0.0000       3.293819        89.6294 
 110   0.0000       3.293819        89.6294 
 111   0.0000       4.083319       111.1128 
 112   0.0000       4.086104       111.1885 
 113   0.0000       4.086104       111.1885 
 114   0.0000       4.094509       111.4173 
 115   0.0000       4.094509       111.4173 
 116   0.0000       4.108696       111.8033 
 117   0.0000       4.108696       111.8033 
 118   0.0000       4.128952       112.3545 
 119   0.0000       4.128952       112.3545 
 120   0.0000       4.195406       114.1628 
 121   0.0000       4.197367       114.2162 
 122   0.0000       4.197367       114.2162 
 123   0.0000       4.203276       114.3769 
 124   0.0000       4.203276       114.3769 
 125   0.0000       4.213201       114.6470 
 126   0.0000       4.213201       114.6470 
 127   0.0000       4.227266       115.0298 
 128   0.0000       4.227266       115.0298 
 129   0.0000       4.245651       115.5300 
 130   0.0000       4.245651       115.5300 
 131   0.0000       5.417070       147.4060 
 132   0.0000       5.423559       147.5826 
 133   0.0000       5.423559       147.5826 
 134   0.0000       5.443862       148.1350 
 135   0.0000       5.443862       148.1350 
 136   0.0000       8.719878       237.2800 
 137   0.0000       8.743365       237.9190 
 138   0.0000       8.743365       237.9190 
 139   0.0000      12.970017       352.9321 

                    ********************************
                    * MULLIKEN POPULATION ANALYSIS *
                    ********************************

--------------------------------------------
MULLIKEN ATOMIC CHARGES AND SPIN POPULATIONS
--------------------------------------------
   0 Ge:    0.000000    2.000000
Sum of atomic charges         :    0.0000000
Sum of atomic spin populations:    2.0000000

-----------------------------------------------------
MULLIKEN REDUCED ORBITAL CHARGES AND SPIN POPULATIONS
-----------------------------------------------------
CHARGE
  0 Ges       :     7.994693  s :     7.994693
      pz      :     4.999977  p :    13.999954
      px      :     4.999975
      py      :     4.000002
      dz2     :     2.001324  d :    10.005289
      dxz     :     1.999998
      dyz     :     1.999996
      dx2y2   :     2.003976
      dxy     :     1.999996
      f0      :     0.000008  f :     0.000046
      f+1     :     0.000001
      f-1     :     0.000000
      f+2     :     0.000014
      f-2     :     0.000000
      f+3     :     0.000021
      f-3     :     0.000001
      g0      :     0.000001  g :     0.000019
      g+1     :     0.000000
      g-1     :     0.000002
      g+2     :     0.000002
      g-2     :     0.000001
      g+3     :     0.000002
      g-3     :     0.000002
      g+4     :     0.000004
      g-4     :     0.000004
      h0      :     0.000000  h :     0.000000
      h+1     :     0.000000
      h-1     :     0.000000
      h+2     :     0.000000
      h-2     :     0.000000
      h+3     :     0.000000
      h-3     :     0.000000
      h+4     :     0.000000
      h-4     :     0.000000
      h+5     :     0.000000
      h-5     :     0.000000

SPIN
  0 Ges       :    -0.000561  s :    -0.000561
      pz      :     0.999978  p :     1.999959
      px      :     0.999977
      py      :     0.000004
      dz2     :     0.000142  d :     0.000573
      dxz     :     0.000001
      dyz     :     0.000003
      dx2y2   :     0.000424
      dxy     :     0.000003
      f0      :     0.000008  f :     0.000041
      f+1     :     0.000001
      f-1     :    -0.000000
      f+2     :     0.000013
      f-2     :     0.000000
      f+3     :     0.000020
      f-3     :    -0.000000
      g0      :    -0.000001  g :    -0.000012
      g+1     :    -0.000000
      g-1     :    -0.000002
      g+2     :    -0.000002
      g-2     :    -0.000000
      g+3     :    -0.000001
      g-3     :    -0.000001
      g+4     :    -0.000003
      g-4     :    -0.000002
      h0      :     0.000000  h :     0.000000
      h+1     :     0.000000
      h-1     :    -0.000000
      h+2     :     0.000000
      h-2     :     0.000000
      h+3     :     0.000000
      h-3     :    -0.000000
      h+4     :     0.000000
      h-4     :     0.000000
      h+5     :     0.000000
      h-5     :    -0.000000


                     *******************************
                     * LOEWDIN POPULATION ANALYSIS *
                     *******************************

-------------------------------------------
LOEWDIN ATOMIC CHARGES AND SPIN POPULATIONS
-------------------------------------------
   0 Ge:    0.000000    2.000000

----------------------------------------------------
LOEWDIN REDUCED ORBITAL CHARGES AND SPIN POPULATIONS
----------------------------------------------------
CHARGE
  0 Ges       :     7.994693  s :     7.994693
      pz      :     4.999977  p :    13.999954
      px      :     4.999975
      py      :     4.000002
      dz2     :     2.001324  d :    10.005289
      dxz     :     1.999998
      dyz     :     1.999996
      dx2y2   :     2.003976
      dxy     :     1.999996
      f0      :     0.000008  f :     0.000046
      f+1     :     0.000001
      f-1     :     0.000000
      f+2     :     0.000014
      f-2     :     0.000000
      f+3     :     0.000021
      f-3     :     0.000001
      g0      :     0.000001  g :     0.000019
      g+1     :     0.000000
      g-1     :     0.000002
      g+2     :     0.000002
      g-2     :     0.000001
      g+3     :     0.000002
      g-3     :     0.000002
      g+4     :     0.000004
      g-4     :     0.000004
      h0      :     0.000000  h :     0.000000
      h+1     :     0.000000
      h-1     :     0.000000
      h+2     :     0.000000
      h-2     :     0.000000
      h+3     :     0.000000
      h-3     :     0.000000
      h+4     :     0.000000
      h-4     :     0.000000
      h+5     :     0.000000
      h-5     :     0.000000

SPIN
  0 Ges       :    -0.000561  s :    -0.000561
      pz      :     0.999978  p :     1.999959
      px      :     0.999977
      py      :     0.000004
      dz2     :     0.000142  d :     0.000573
      dxz     :     0.000001
      dyz     :     0.000003
      dx2y2   :     0.000424
      dxy     :     0.000003
      f0      :     0.000008  f :     0.000041
      f+1     :     0.000001
      f-1     :    -0.000000
      f+2     :     0.000013
      f-2     :     0.000000
      f+3     :     0.000020
      f-3     :    -0.000000
      g0      :    -0.000001  g :    -0.000012
      g+1     :    -0.000000
      g-1     :    -0.000002
      g+2     :    -0.000002
      g-2     :    -0.000000
      g+3     :    -0.000001
      g-3     :    -0.000001
      g+4     :    -0.000003
      g-4     :    -0.000002
      h0      :     0.000000  h :     0.000000
      h+1     :     0.000000
      h-1     :    -0.000000
      h+2     :     0.000000
      h-2     :     0.000000
      h+3     :     0.000000
      h-3     :    -0.000000
      h+4     :     0.000000
      h-4     :     0.000000
      h+5     :     0.000000
      h-5     :    -0.000000


                      *****************************
                      * MAYER POPULATION ANALYSIS *
                      *****************************

  NA   - Mulliken gross atomic population
  ZA   - Total nuclear charge
  QA   - Mulliken gross atomic charge
  VA   - Mayer's total valence
  BVA  - Mayer's bonded valence
  FA   - Mayer's free valence

  ATOM       NA         ZA         QA         VA         BVA        FA
  0 Ge    32.0000    32.0000     0.0000     2.0227     0.0000     2.0227

  Mayer bond orders larger than 0.100000


-------
TIMINGS
-------

Total SCF time: 0 days 0 hours 0 min 23 sec 

Total time                  ....      23.095 sec
Sum of individual times     ....      22.621 sec  ( 97.9%)

Fock matrix formation       ....      22.385 sec  ( 96.9%)
Diagonalization             ....       0.059 sec  (  0.3%)
Density matrix formation    ....       0.007 sec  (  0.0%)
Population analysis         ....       0.006 sec  (  0.0%)
Initial guess               ....       0.120 sec  (  0.5%)
Orbital Transformation      ....       0.000 sec  (  0.0%)
Orbital Orthonormalization  ....       0.000 sec  (  0.0%)
DIIS solution               ....       0.024 sec  (  0.1%)


           ************************************************************
           *        Program running with 24 parallel MPI-processes    *
           *              working on a common directory               *
           ************************************************************


------------------------------------------------------------------------------- 
                              ORCA-MATRIX DRIVEN CI                            
------------------------------------------------------------------------------- 

--------------------------------
AUTOMATIC CHOICE OF INCORE LEVEL
--------------------------------

Memory available                           ...   2500.00 MB
Memory needed for S+T                      ...     12.47 MB
Memory needed for J+K                      ...     25.00 MB
Memory needed for DIIS                     ...    174.52 MB
Memory needed for 3-ext                    ...    113.58 MB
Memory needed for 4-ext                    ...    880.23 MB
Memory needed for triples                  ...     70.99 MB
 -> Final InCoreLevel    ... 5
 -> check shows that triples correction can be computed


Wavefunction type
-----------------
Correlation treatment                      ...      CCSD     
Single excitations                         ... ON
Orbital optimization                       ... OFF
Calculation of Z vector                    ... OFF
Calculation of Brueckner orbitals          ... OFF
Perturbative triple excitations            ... ON
Calculation of F12 correction              ... OFF
Frozen core treatment                      ... chemical core (18 el)
Reference Wavefunction                     ... UHF
  Alpha-MOs occ    :     9 ...   16 (  8 MO's/  8 electrons)
  Beta-MOs occ     :     9 ...   14 (  6 MO's/  6 electrons)
  Alpha-MOs virt   :    17 ...  139 (123 MO's              )
  Beta-MOs virt    :    15 ...  139 (125 MO's              )
Number of AO's                             ...    140
Number of electrons                        ...     32
Number of correlated electrons             ...     14

Algorithmic settings
--------------------
Integral transformation                    ... AO direct full transformation
K(C) Formation                             ... FULL-MO TRAFO
Maximum number of iterations               ...        50
Convergence tolerance (max. residuum)      ... 1.000e-05
Level shift for amplitude update           ... 2.000e-01
Maximum number of DIIS vectors             ...         7
DIIS turned on at iteration                ...         0
Damping before turning on DIIS             ...     0.500
Damping after turning on DIIS              ...     0.000
Pair specific amplitude update             ... OFF
Natural orbital iterations                 ... OFF
Perturbative natural orbital generation    ... OFF
Printlevel                                 ... 2

Memory handling:
----------------
Maximum memory for working arrays          ...   2500 MB
Data storage in matrix containers          ... UNCOMPRESSED
Data type for integral storage             ... DOUBLE
In-Core Storage of quantities:
   Amplitudes+Sigma Vector      ... YES
   J+K operators                ... YES
   DIIS vectors                 ... YES
   3-external integrals         ... YES
   4-external integrals         ... YES


Initializing the integral package          ... done
Warning: reference  - re-canonicalizations have been set to INT 1 VIRT 1

--------------------------
UNRESTRICTED FOCK OPERATOR
--------------------------

<ss|ss>:         1035 b            0 skpd (  0.0%)    0.077 s ( 0.074 ms/b)
<ss|sp>:         3240 b            1 skpd (  0.0%)    0.202 s ( 0.062 ms/b)
<ss|sd>:         2430 b            6 skpd (  0.2%)    0.168 s ( 0.069 ms/b)
<ss|sf>:         1620 b           28 skpd (  1.7%)    0.018 s ( 0.011 ms/b)
<ss|sg>:         1215 b           33 skpd (  2.7%)    0.020 s ( 0.017 ms/b)
<ss|sh>:          810 b           29 skpd (  3.6%)    0.022 s ( 0.028 ms/b)
<ss|pp>:         1620 b            0 skpd (  0.0%)    0.166 s ( 0.103 ms/b)
<ss|pd>:         2160 b            3 skpd (  0.1%)    0.142 s ( 0.066 ms/b)
<ss|pf>:         1440 b            9 skpd (  0.6%)    0.017 s ( 0.012 ms/b)
<ss|pg>:         1080 b           10 skpd (  0.9%)    0.022 s ( 0.020 ms/b)
<ss|ph>:          720 b            9 skpd (  1.2%)    0.025 s ( 0.035 ms/b)
<ss|dd>:          945 b            0 skpd (  0.0%)    0.108 s ( 0.114 ms/b)
<ss|df>:         1080 b            0 skpd (  0.0%)    0.014 s ( 0.013 ms/b)
<ss|dg>:          810 b            0 skpd (  0.0%)    0.020 s ( 0.025 ms/b)
<ss|dh>:          540 b            0 skpd (  0.0%)    0.027 s ( 0.050 ms/b)
<ss|ff>:          450 b            0 skpd (  0.0%)    0.002 s ( 0.005 ms/b)
<ss|fg>:          540 b            0 skpd (  0.0%)    0.003 s ( 0.006 ms/b)
<ss|fh>:          360 b            0 skpd (  0.0%)    0.004 s ( 0.012 ms/b)
<ss|gg>:          270 b            0 skpd (  0.0%)    0.005 s ( 0.017 ms/b)
<ss|gh>:          270 b            0 skpd (  0.0%)    0.006 s ( 0.023 ms/b)
<ss|hh>:          135 b            0 skpd (  0.0%)    0.008 s ( 0.059 ms/b)
<sp|sp>:         2628 b            6 skpd (  0.2%)    0.200 s ( 0.076 ms/b)
<sp|sd>:         3888 b           67 skpd (  1.7%)    0.180 s ( 0.047 ms/b)
<sp|sf>:         2592 b          145 skpd (  5.6%)    0.020 s ( 0.008 ms/b)
<sp|sg>:         1944 b          228 skpd ( 11.7%)    0.026 s ( 0.015 ms/b)
<sp|sh>:         1296 b          165 skpd ( 12.7%)    0.031 s ( 0.027 ms/b)
<sp|pp>:         2592 b            2 skpd (  0.1%)    0.159 s ( 0.062 ms/b)
<sp|pd>:         3456 b           16 skpd (  0.5%)    0.137 s ( 0.040 ms/b)
<sp|pf>:         2304 b           31 skpd (  1.3%)    0.022 s ( 0.010 ms/b)
<sp|pg>:         1728 b           32 skpd (  1.9%)    0.030 s ( 0.018 ms/b)
<sp|ph>:         1152 b           31 skpd (  2.7%)    0.039 s ( 0.035 ms/b)
<sp|dd>:         1512 b            1 skpd (  0.1%)    0.145 s ( 0.096 ms/b)
<sp|df>:         1728 b            8 skpd (  0.5%)    0.022 s ( 0.013 ms/b)
<sp|dg>:         1296 b           16 skpd (  1.2%)    0.032 s ( 0.025 ms/b)
<sp|dh>:          864 b           11 skpd (  1.3%)    0.044 s ( 0.052 ms/b)
<sp|ff>:          720 b            1 skpd (  0.1%)    0.004 s ( 0.006 ms/b)
<sp|fg>:          864 b            6 skpd (  0.7%)    0.006 s ( 0.007 ms/b)
<sp|fh>:          576 b            4 skpd (  0.7%)    0.008 s ( 0.014 ms/b)
<sp|gg>:          432 b            8 skpd (  1.9%)    0.008 s ( 0.020 ms/b)
<sp|gh>:          432 b           10 skpd (  2.3%)    0.011 s ( 0.027 ms/b)
<sp|hh>:          216 b            9 skpd (  4.2%)    0.015 s ( 0.071 ms/b)
<sd|sd>:         1485 b           32 skpd (  2.2%)    0.071 s ( 0.049 ms/b)
<sd|sf>:         1944 b          123 skpd (  6.3%)    0.011 s ( 0.006 ms/b)
<sd|sg>:         1458 b          127 skpd (  8.7%)    0.016 s ( 0.012 ms/b)
<sd|sh>:          972 b           99 skpd ( 10.2%)    0.024 s ( 0.027 ms/b)
<sd|pp>:         1944 b           22 skpd (  1.1%)    0.075 s ( 0.039 ms/b)
<sd|pd>:         2592 b           76 skpd (  2.9%)    0.083 s ( 0.033 ms/b)
<sd|pf>:         1728 b           70 skpd (  4.1%)    0.014 s ( 0.008 ms/b)
<sd|pg>:         1296 b           99 skpd (  7.6%)    0.023 s ( 0.019 ms/b)
<sd|ph>:          864 b           81 skpd (  9.4%)    0.033 s ( 0.042 ms/b)
<sd|dd>:         1134 b            6 skpd (  0.5%)    0.098 s ( 0.087 ms/b)
<sd|df>:         1296 b           29 skpd (  2.2%)    0.019 s ( 0.015 ms/b)
<sd|dg>:          972 b           23 skpd (  2.4%)    0.029 s ( 0.031 ms/b)
<sd|dh>:          648 b           17 skpd (  2.6%)    0.044 s ( 0.070 ms/b)
<sd|ff>:          540 b           22 skpd (  4.1%)    0.004 s ( 0.008 ms/b)
<sd|fg>:          648 b           28 skpd (  4.3%)    0.006 s ( 0.009 ms/b)
<sd|fh>:          432 b           23 skpd (  5.3%)    0.008 s ( 0.020 ms/b)
<sd|gg>:          324 b           11 skpd (  3.4%)    0.008 s ( 0.027 ms/b)
<sd|gh>:          324 b           13 skpd (  4.0%)    0.011 s ( 0.036 ms/b)
<sd|hh>:          162 b            6 skpd (  3.7%)    0.015 s ( 0.094 ms/b)
<sf|sf>:          666 b          134 skpd ( 20.1%)    0.004 s ( 0.007 ms/b)
<sf|sg>:          972 b          208 skpd ( 21.4%)    0.007 s ( 0.009 ms/b)
<sf|sh>:          648 b          150 skpd ( 23.1%)    0.012 s ( 0.024 ms/b)
<sf|pp>:         1296 b           35 skpd (  2.7%)    0.038 s ( 0.030 ms/b)
<sf|pd>:         1728 b          118 skpd (  6.8%)    0.043 s ( 0.027 ms/b)
<sf|pf>:         1152 b          145 skpd ( 12.6%)    0.008 s ( 0.008 ms/b)
<sf|pg>:          864 b          104 skpd ( 12.0%)    0.014 s ( 0.018 ms/b)
<sf|ph>:          576 b           95 skpd ( 16.5%)    0.021 s ( 0.044 ms/b)
<sf|dd>:          756 b           28 skpd (  3.7%)    0.061 s ( 0.084 ms/b)
<sf|df>:          864 b           92 skpd ( 10.6%)    0.011 s ( 0.015 ms/b)
<sf|dg>:          648 b           63 skpd (  9.7%)    0.019 s ( 0.033 ms/b)
<sf|dh>:          432 b           49 skpd ( 11.3%)    0.024 s ( 0.063 ms/b)
<sf|ff>:          360 b           46 skpd ( 12.8%)    0.002 s ( 0.008 ms/b)
<sf|fg>:          432 b           64 skpd ( 14.8%)    0.003 s ( 0.009 ms/b)
<sf|fh>:          288 b           43 skpd ( 14.9%)    0.004 s ( 0.018 ms/b)
<sf|gg>:          216 b           30 skpd ( 13.9%)    0.005 s ( 0.029 ms/b)
<sf|gh>:          216 b           33 skpd ( 15.3%)    0.006 s ( 0.035 ms/b)
<sf|hh>:          108 b           39 skpd ( 36.1%)    0.005 s ( 0.073 ms/b)
<sg|sg>:          378 b           86 skpd ( 22.8%)    0.009 s ( 0.029 ms/b)
<sg|sh>:          486 b          115 skpd ( 23.7%)    0.018 s ( 0.048 ms/b)
<sg|pp>:          972 b           48 skpd (  4.9%)    0.054 s ( 0.059 ms/b)
<sg|pd>:         1296 b          160 skpd ( 12.3%)    0.063 s ( 0.056 ms/b)
<sg|pf>:          864 b          124 skpd ( 14.4%)    0.010 s ( 0.014 ms/b)
<sg|pg>:          648 b          155 skpd ( 23.9%)    0.015 s ( 0.030 ms/b)
<sg|ph>:          432 b          111 skpd ( 25.7%)    0.017 s ( 0.054 ms/b)
<sg|dd>:          567 b           28 skpd (  4.9%)    0.090 s ( 0.167 ms/b)
<sg|df>:          648 b           74 skpd ( 11.4%)    0.017 s ( 0.029 ms/b)
<sg|dg>:          486 b           59 skpd ( 12.1%)    0.028 s ( 0.065 ms/b)
<sg|dh>:          324 b           38 skpd ( 11.7%)    0.040 s ( 0.140 ms/b)
<sg|ff>:          270 b           42 skpd ( 15.6%)    0.003 s ( 0.014 ms/b)
<sg|fg>:          324 b           58 skpd ( 17.9%)    0.005 s ( 0.018 ms/b)
<sg|fh>:          216 b           40 skpd ( 18.5%)    0.006 s ( 0.032 ms/b)
<sg|gg>:          162 b           24 skpd ( 14.8%)    0.008 s ( 0.056 ms/b)
<sg|gh>:          162 b           29 skpd ( 17.9%)    0.009 s ( 0.070 ms/b)
<sg|hh>:           81 b           12 skpd ( 14.8%)    0.012 s ( 0.173 ms/b)
<sh|sh>:          171 b           40 skpd ( 23.4%)    0.019 s ( 0.141 ms/b)
<sh|pp>:          648 b           37 skpd (  5.7%)    0.070 s ( 0.115 ms/b)
<sh|pd>:          864 b          124 skpd ( 14.4%)    0.071 s ( 0.096 ms/b)
<sh|pf>:          576 b          106 skpd ( 18.4%)    0.013 s ( 0.027 ms/b)
<sh|pg>:          432 b          118 skpd ( 27.3%)    0.016 s ( 0.052 ms/b)
<sh|ph>:          288 b          119 skpd ( 41.3%)    0.025 s ( 0.145 ms/b)
<sh|dd>:          378 b           22 skpd (  5.8%)    0.124 s ( 0.348 ms/b)
<sh|df>:          432 b           56 skpd ( 13.0%)    0.020 s ( 0.053 ms/b)
<sh|dg>:          324 b           43 skpd ( 13.3%)    0.032 s ( 0.113 ms/b)
<sh|dh>:          216 b           30 skpd ( 13.9%)    0.045 s ( 0.241 ms/b)
<sh|ff>:          180 b           29 skpd ( 16.1%)    0.004 s ( 0.026 ms/b)
<sh|fg>:          216 b           46 skpd ( 21.3%)    0.005 s ( 0.032 ms/b)
<sh|fh>:          144 b           94 skpd ( 65.3%)    0.001 s ( 0.023 ms/b)
<sh|gg>:          108 b           19 skpd ( 17.6%)    0.009 s ( 0.102 ms/b)
<sh|gh>:          108 b           23 skpd ( 21.3%)    0.010 s ( 0.121 ms/b)
<sh|hh>: done
<pp|pp>:          666 b            0 skpd (  0.0%)    0.082 s ( 0.124 ms/b)
<pp|pd>:         1728 b            0 skpd (  0.0%)    0.088 s ( 0.051 ms/b)
<pp|pf>:         1152 b            0 skpd (  0.0%)    0.016 s ( 0.014 ms/b)
<pp|pg>:          864 b            0 skpd (  0.0%)    0.025 s ( 0.029 ms/b)
<pp|ph>:          576 b            0 skpd (  0.0%)    0.042 s ( 0.073 ms/b)
<pp|dd>:          756 b            0 skpd (  0.0%)    0.097 s ( 0.128 ms/b)
<pp|df>:          864 b            1 skpd (  0.1%)    0.020 s ( 0.023 ms/b)
<pp|dg>:          648 b            0 skpd (  0.0%)    0.030 s ( 0.046 ms/b)
<pp|dh>:          432 b            1 skpd (  0.2%)    0.045 s ( 0.103 ms/b)
<pp|ff>:          360 b            0 skpd (  0.0%)    0.005 s ( 0.013 ms/b)
<pp|fg>:          432 b            0 skpd (  0.0%)    0.006 s ( 0.014 ms/b)
<pp|fh>:          288 b            0 skpd (  0.0%)    0.008 s ( 0.029 ms/b)
<pp|gg>:          216 b            0 skpd (  0.0%)    0.009 s ( 0.044 ms/b)
<pp|gh>:          216 b            0 skpd (  0.0%)    0.012 s ( 0.056 ms/b)
<pp|hh>:          108 b            0 skpd (  0.0%)    0.017 s ( 0.161 ms/b)
<pd|pd>:         1176 b            0 skpd (  0.0%)    0.088 s ( 0.075 ms/b)
<pd|pf>:         1536 b           13 skpd (  0.8%)    0.019 s ( 0.012 ms/b)
<pd|pg>:         1152 b           10 skpd (  0.9%)    0.030 s ( 0.027 ms/b)
<pd|ph>:          768 b           15 skpd (  2.0%)    0.047 s ( 0.063 ms/b)
<pd|dd>:         1008 b            0 skpd (  0.0%)    0.110 s ( 0.109 ms/b)
<pd|df>:         1152 b            3 skpd (  0.3%)    0.025 s ( 0.022 ms/b)
<pd|dg>:          864 b            4 skpd (  0.5%)    0.038 s ( 0.044 ms/b)
<pd|dh>:          576 b            2 skpd (  0.3%)    0.059 s ( 0.102 ms/b)
<pd|ff>:          480 b            0 skpd (  0.0%)    0.006 s ( 0.013 ms/b)
<pd|fg>:          576 b            4 skpd (  0.7%)    0.010 s ( 0.018 ms/b)
<pd|fh>:          384 b            3 skpd (  0.8%)    0.012 s ( 0.032 ms/b)
<pd|gg>:          288 b            3 skpd (  1.0%)    0.013 s ( 0.046 ms/b)
<pd|gh>:          288 b            6 skpd (  2.1%)    0.017 s ( 0.061 ms/b)
<pd|hh>:          144 b           11 skpd (  7.6%)    0.022 s ( 0.167 ms/b)
<pf|pf>:          528 b            7 skpd (  1.3%)    0.008 s ( 0.016 ms/b)
<pf|pg>:          768 b           14 skpd (  1.8%)    0.019 s ( 0.025 ms/b)
<pf|ph>:          512 b           10 skpd (  2.0%)    0.030 s ( 0.059 ms/b)
<pf|dd>:          672 b            3 skpd (  0.4%)    0.061 s ( 0.091 ms/b)
<pf|df>:          768 b           28 skpd (  3.6%)    0.014 s ( 0.019 ms/b)
<pf|dg>:          576 b           12 skpd (  2.1%)    0.024 s ( 0.042 ms/b)
<pf|dh>:          384 b           18 skpd (  4.7%)    0.030 s ( 0.083 ms/b)
<pf|ff>:          320 b            4 skpd (  1.2%)    0.004 s ( 0.014 ms/b)
<pf|fg>:          384 b           10 skpd (  2.6%)    0.006 s ( 0.017 ms/b)
<pf|fh>:          256 b            8 skpd (  3.1%)    0.009 s ( 0.035 ms/b)
<pf|gg>:          192 b            5 skpd (  2.6%)    0.009 s ( 0.047 ms/b)
<pf|gh>:          192 b            6 skpd (  3.1%)    0.012 s ( 0.063 ms/b)
<pf|hh>:           96 b            3 skpd (  3.1%)    0.016 s ( 0.174 ms/b)
<pg|pg>:          300 b            9 skpd (  3.0%)    0.024 s ( 0.084 ms/b)
<pg|ph>:          384 b           16 skpd (  4.2%)    0.042 s ( 0.113 ms/b)
<pg|dd>:          504 b            4 skpd (  0.8%)    0.095 s ( 0.190 ms/b)
<pg|df>:          576 b           15 skpd (  2.6%)    0.021 s ( 0.038 ms/b)
<pg|dg>:          432 b           20 skpd (  4.6%)    0.034 s ( 0.082 ms/b)
<pg|dh>:          288 b           14 skpd (  4.9%)    0.049 s ( 0.180 ms/b)
<pg|ff>:          240 b            5 skpd (  2.1%)    0.005 s ( 0.022 ms/b)
<pg|fg>:          288 b           14 skpd (  4.9%)    0.008 s ( 0.030 ms/b)
<pg|fh>:          192 b           11 skpd (  5.7%)    0.010 s ( 0.055 ms/b)
<pg|gg>:          144 b            9 skpd (  6.2%)    0.012 s ( 0.085 ms/b)
<pg|gh>:          144 b           12 skpd (  8.3%)    0.014 s ( 0.104 ms/b)
<pg|hh>:           72 b            9 skpd ( 12.5%)    0.016 s ( 0.257 ms/b)
<ph|ph>:          136 b            5 skpd (  3.7%)    0.042 s ( 0.324 ms/b)
<ph|dd>:          336 b            3 skpd (  0.9%)    0.121 s ( 0.364 ms/b)
<ph|df>:          384 b           30 skpd (  7.8%)    0.022 s ( 0.062 ms/b)
<ph|dg>:          288 b           15 skpd (  5.2%)    0.039 s ( 0.144 ms/b)
<ph|dh>:          192 b           42 skpd ( 21.9%)    0.039 s ( 0.260 ms/b)
<ph|ff>:          160 b            4 skpd (  2.5%)    0.006 s ( 0.037 ms/b)
<ph|fg>:          192 b           12 skpd (  6.2%)    0.009 s ( 0.048 ms/b)
<ph|fh>:          128 b           10 skpd (  7.8%)    0.010 s ( 0.089 ms/b)
<ph|gg>:           96 b            8 skpd (  8.3%)    0.012 s ( 0.141 ms/b)
<ph|gh>:           96 b           15 skpd ( 15.6%)    0.013 s ( 0.158 ms/b)
<ph|hh>:           48 b            6 skpd ( 12.5%)    0.018 s ( 0.435 ms/b)
<dd|dd>:          231 b            0 skpd (  0.0%)    0.050 s ( 0.217 ms/b)
<dd|df>:          504 b            0 skpd (  0.0%)    0.013 s ( 0.025 ms/b)
<dd|dg>:          378 b            0 skpd (  0.0%)    0.019 s ( 0.051 ms/b)
<dd|dh>:          252 b            0 skpd (  0.0%)    0.029 s ( 0.114 ms/b)
<dd|ff>:          210 b            0 skpd (  0.0%)    0.003 s ( 0.016 ms/b)
<dd|fg>:          252 b            0 skpd (  0.0%)    0.005 s ( 0.020 ms/b)
<dd|fh>:          168 b            0 skpd (  0.0%)    0.007 s ( 0.041 ms/b)
<dd|gg>:          126 b            0 skpd (  0.0%)    0.007 s ( 0.059 ms/b)
<dd|gh>:          126 b            0 skpd (  0.0%)    0.010 s ( 0.080 ms/b)
<dd|hh>:           63 b            0 skpd (  0.0%)    0.014 s ( 0.218 ms/b)
<df|df>:          300 b            0 skpd (  0.0%)    0.007 s ( 0.023 ms/b)
<df|dg>:          432 b            0 skpd (  0.0%)    0.016 s ( 0.037 ms/b)
<df|dh>:          288 b            0 skpd (  0.0%)    0.023 s ( 0.080 ms/b)
<df|ff>:          240 b            0 skpd (  0.0%)    0.004 s ( 0.018 ms/b)
<df|fg>:          288 b            0 skpd (  0.0%)    0.006 s ( 0.021 ms/b)
<df|fh>:          192 b            0 skpd (  0.0%)    0.008 s ( 0.041 ms/b)
<df|gg>:          144 b            0 skpd (  0.0%)    0.008 s ( 0.058 ms/b)
<df|gh>:          144 b            0 skpd (  0.0%)    0.011 s ( 0.079 ms/b)
<df|hh>:           72 b            5 skpd (  6.9%)    0.014 s ( 0.213 ms/b)
<dg|dg>:          171 b            0 skpd (  0.0%)    0.013 s ( 0.077 ms/b)
<dg|dh>:          216 b            0 skpd (  0.0%)    0.029 s ( 0.136 ms/b)
<dg|ff>:          180 b            0 skpd (  0.0%)    0.004 s ( 0.024 ms/b)
<dg|fg>:          216 b            0 skpd (  0.0%)    0.007 s ( 0.032 ms/b)
<dg|fh>:          144 b            0 skpd (  0.0%)    0.009 s ( 0.062 ms/b)
<dg|gg>:          108 b            0 skpd (  0.0%)    0.011 s ( 0.097 ms/b)
<dg|gh>:          108 b            0 skpd (  0.0%)    0.014 s ( 0.128 ms/b)
<dg|hh>:           54 b            0 skpd (  0.0%)    0.018 s ( 0.334 ms/b)
<dh|dh>:           78 b            0 skpd (  0.0%)    0.019 s ( 0.243 ms/b)
<dh|ff>:          120 b            0 skpd (  0.0%)    0.004 s ( 0.036 ms/b)
<dh|fg>:          144 b            0 skpd (  0.0%)    0.006 s ( 0.045 ms/b)
<dh|fh>:           96 b           38 skpd ( 39.6%)    0.005 s ( 0.088 ms/b)
<dh|gg>:           72 b            0 skpd (  0.0%)    0.009 s ( 0.129 ms/b)
<dh|gh>:           72 b            0 skpd (  0.0%)    0.014 s ( 0.189 ms/b)
<dh|hh>: done
<ff|ff>:           55 b            0 skpd (  0.0%)    0.002 s ( 0.034 ms/b)
<ff|fg>:          120 b            0 skpd (  0.0%)    0.004 s ( 0.030 ms/b)
<ff|fh>:           80 b            0 skpd (  0.0%)    0.004 s ( 0.055 ms/b)
<ff|gg>:           60 b            0 skpd (  0.0%)    0.005 s ( 0.076 ms/b)
<ff|gh>:           60 b            0 skpd (  0.0%)    0.006 s ( 0.107 ms/b)
<ff|hh>:           30 b            0 skpd (  0.0%)    0.009 s ( 0.306 ms/b)
<fg|fg>:           78 b            0 skpd (  0.0%)    0.006 s ( 0.073 ms/b)
<fg|fh>:           96 b            0 skpd (  0.0%)    0.008 s ( 0.083 ms/b)
<fg|gg>:           72 b            0 skpd (  0.0%)    0.009 s ( 0.129 ms/b)
<fg|gh>:           72 b            0 skpd (  0.0%)    0.013 s ( 0.176 ms/b)
<fg|hh>:           36 b            0 skpd (  0.0%)    0.017 s ( 0.465 ms/b)
<fh|fh>:           36 b            0 skpd (  0.0%)    0.007 s ( 0.208 ms/b)
<fh|gg>:           48 b            0 skpd (  0.0%)    0.008 s ( 0.161 ms/b)
<fh|gh>:           48 b            3 skpd (  6.2%)    0.012 s ( 0.273 ms/b)
<fh|hh>:           24 b            0 skpd (  0.0%)    0.017 s ( 0.727 ms/b)
<gg|gg>:           21 b            0 skpd (  0.0%)    0.007 s ( 0.332 ms/b)
<gg|gh>:           36 b            0 skpd (  0.0%)    0.012 s ( 0.327 ms/b)
<gg|hh>:           18 b            0 skpd (  0.0%)    0.015 s ( 0.821 ms/b)
<gh|gh>:           21 b            0 skpd (  0.0%)    0.016 s ( 0.759 ms/b)
<gh|hh>: done
<hh|hh>: done
Recanonicalizing the internal orbitals
Recanonicalizing the virtual orbitals
Time needed for Fock operator              ...            6.486 sec
Reference energy                           ...  -2075.364050209
Warning: for UHF the TrafoType has to be JK
Warning: for UHF the K(C)-option cannot be MO but must be AOX

-------------------------------
PARTIAL EXCHANGE TRANSFORMATION
-------------------------------

Transformation type                        ... two-operators
Generation of integrals (i,mue|j,nue)      ... ON
Generation of integrals (mue,kappa|nue,tau)... ON
Generation of integrals (i,mue|a,nue)      ... ON
Dimension of the basis                     ...  140
Number of internal alpha-MOs               ...    8 (   9-  16)
Number of internal beta-MOs                ...    6 (   9-  14)
Number of external alpha-MOs               ...  123 (  17- 139)
Number of external beta-MOs                ...  125 (  15- 139)
Pair cutoff                                ... 0.000e+00 Eh
Number of AO pairs in the trafo            ... 9870
Total Number of distinct AO pairs          ... 9870
Memory devoted for trafo                   ... 2500.0 MB 
Max. Number of MO pairs treated together   ... 16718      
Number Format for Storage                  ... Double (8 Byte)
Integral package used                      ... LIBINT

Starting integral evaluation:
    ... done with AO integral generation
Closing buffer AOK[aa] ( 0.00 GB; CompressionRatio= 0.98)
Closing buffer AOK[bb] ( 0.00 GB; CompressionRatio= 0.96)
Closing buffer AOK[ab] ( 0.00 GB; CompressionRatio= 0.97)
Closing buffer AOK[ba] ( 0.00 GB; CompressionRatio= 0.97)
Collecting buffer AOK 
Closing buffer IAAO1[aa] ( 0.00 GB; CompressionRatio= 1.00)
Closing buffer IAAO1[bb] ( 0.00 GB; CompressionRatio= 1.00)
Closing buffer IAAO1[ab] ( 0.00 GB; CompressionRatio= 1.00)
Closing buffer IAAO1[ba] ( 0.00 GB; CompressionRatio= 1.00)
Closing buffer IAAO2[aa] ( 0.00 GB; CompressionRatio= 1.00)
Closing buffer IAAO2[bb] ( 0.00 GB; CompressionRatio= 1.00)
Closing buffer IAAO2[ab] ( 0.00 GB; CompressionRatio= 1.00)
Closing buffer IAAO2[ba] ( 0.00 GB; CompressionRatio= 1.00)
Collecting buffer IAAO 
Closing buffer PRQS    ( 0.01 GB; CompressionRatio= 1.00)
Collecting buffer PRQS 
Number of alpha/alpha MO pairs in trafo    ...   36
Number of beta /beta  MO pairs in trafo    ...   21
Number of alpha/ beta MO pairs in trafo    ...   48
------------------------
SORTING OF (i,mue|j,nue)
------------------------

SORTING OF ALPHA/ALPHA PAIRS
IBATCH = 1 of  1
Closing buffer KAO[aa] ( 0.00 GB; CompressionRatio= 1.00)
Collecting buffer KAO 
SORTING OF BETA /BETA  PAIRS
IBATCH = 1 of  1
Closing buffer KAO[bb] ( 0.00 GB; CompressionRatio= 1.00)
Collecting buffer KAO 
SORTING OF ALPHA/BETA  PAIRS
IBATCH = 1 of  1
Closing buffer KAO[ab] ( 0.00 GB; CompressionRatio= 0.999923475244)
Collecting buffer KAO[ab] 
------------------------
SORTING OF (i,mue|a,nue)
------------------------

Number of alpha/alpha (i,a) pairs in trafo  ...  984
Number of beta /beta  (i,a) pairs in trafo  ...  750
Number of alpha/ beta (i,a) pairs in trafo  ... 1000
Number of beta /alpha (i,a) pairs in trafo  ...  738
Setting up the alpha/alpha list             ... done
Setting up the beta /beta  list             ... done
Setting up the alpha/beta  list             ... done
Setting up the beta /alpha list             ... done
    ... Now sorting (i,mue|a,nue)integrals
    ... Integrals (i,b|a,c) will be made on the fly
SORTING OF ALPHA/ALPHA PAIRS
IBATCH = 1 of  1
Closing buffer IPAQ[aa]  0.00 GB; CompressionRatio= 1.00)
SORTING OF BETA /BETA  PAIRS
IBATCH = 1 of  1
Closing buffer IPAQ[bb]( 0.00 GB; CompressionRatio= 1.00)
SORTING OF ALPHA/BETA  PAIRS (NMatSort_ab=42)
IBATCH = 1 of  1
Closing buffer IPAQ[ab]( 0.00 GB; CompressionRatio= 1.00)
SORTING OF BETA/ALPHA  PAIRS
IBATCH = 1 of  1
Closing buffer IPAQ[ba]( 0.00 GB; CompressionRatio= 1.00)
N(AO-Batches) Done                         ...      9216 
N(AO-Batches) Skipped                      ...         0 
N(IJ)-pairs Skipped                        ...         0 
TOTAL TIME for half transformation         ...    19.342 sec
AO-integral generation                     ...     1.243 sec
Half transformation                        ...     0.019 sec
K-integral sorting                         ...     1.606 sec
<ss|**>: 
------------------------------
PARTIAL COULOMB TRANSFORMATION
------------------------------

Transformation type                        ... two-operators
Dimension of the basis                     ...  140
Number of internal alpha-MOs               ...    8 (9-16)
Number of internal beta-MOs                ...    6 (9-14)
Pair cutoff                                ... 0.000e+00 Eh
Number of AO pairs included in the trafo   ... 9870
Total Number of distinct AO pairs          ... 9870
Memory devoted for trafo                   ... 2500.0 MB 
Max. Number of MO pairs treated together   ... 33199      
Max. Number of MOs treated per batch       ...  237      
Number Format for Storage                  ... Double (8 Byte)
AO-integral source                         ... DIRECT
Integral package used                      ... LIBINT

Starting integral evaluation:
<sp|**>:        23760 b        0 skpd     1.115 s (  0.047 ms/b)
<sd|**>:        38016 b        0 skpd     0.839 s (  0.022 ms/b)
       28512 b        0 skpd     0.941 s (  0.033 ms/b)
<sf|**>:        19008 b        0 skpd     0.167 s (  0.009 ms/b)
<sg|**>:        14256 b        0 skpd     0.300 s (  0.021 ms/b)
<sh|**>:         9504 b        0 skpd     0.499 s (  0.052 ms/b)
<pp|**>:        19008 b        0 skpd     0.947 s (  0.050 ms/b)
<pd|**>:        25344 b        0 skpd     1.095 s (  0.043 ms/b)
<pf|**>:        16896 b        0 skpd     0.220 s (  0.013 ms/b)
<pg|**>:        12672 b        0 skpd     0.364 s (  0.029 ms/b)
<ph|**>:         8448 b        0 skpd     0.580 s (  0.069 ms/b)
<dd|**>:        11088 b        0 skpd     1.412 s (  0.127 ms/b)
<df|**>:        12672 b        0 skpd     0.286 s (  0.023 ms/b)
<dg|**>:         9504 b        0 skpd     0.457 s (  0.048 ms/b)
<dh|**>:         6336 b        0 skpd     0.675 s (  0.107 ms/b)
<ff|**>:         5280 b        0 skpd     0.072 s (  0.014 ms/b)
<fg|**>:         6336 b        0 skpd     0.109 s (  0.017 ms/b)
<fh|**>:         4224 b        0 skpd     0.154 s (  0.036 ms/b)
<gg|**>:         3168 b        0 skpd     0.171 s (  0.054 ms/b)
<gh|**>:         3168 b        0 skpd     0.234 s (  0.074 ms/b)
<hh|**>:         1584 b        0 skpd     0.326 s (  0.206 ms/b)
Closing buffer AOJ[aa] ( 0.00 GB; CompressionRatio= 0.96)
Closing buffer AOJ[bb] ( 0.00 GB; CompressionRatio= 0.00)
Collecting buffer AOJ 
    ... done with AO integral generation
Number of Alpha-MO pairs included          ...   36
Number of Beta-MO pairs included           ...   21
    ... Now sorting integrals
SORTING ALPHA/ALPHA PAIRS
IBATCH = 1 of  1
Closing buffer JAO[aa] ( 0.00 GB; CompressionRatio= 1.00)
SORTING BETA/BETA PAIRS
IBATCH = 1 of  1
Closing buffer JAO[bb] ( 0.00 GB; CompressionRatio= 1.00)
Collecting buffer JAO 
TOTAL TIME for half transformation         ...    11.011 sec
AO-integral generation                     ...    10.953 sec
Half transformation                        ...     0.024 sec
J-integral sorting                         ...     0.026 sec

-------------------------- SECOND HALF TRANSFORMATION -------------------------
Formation of (ij|kl),(ij|ka), (ij|ab)      ... ok (     0.056 sec)
Formation of (ik|jl),(ik|ja), (ia|jb)      ... ok (     0.083 sec)


-----------------------
SPIN UNRESTRICTED GUESS
-----------------------

Entering MDCI_UHF_Guess, Tailored=0
Spin-components of the MP2 energy:
EMP2(aa)=     -0.053391592
EMP2(bb)=     -0.037030452
EMP2(ab)=     -0.187065099

Initial guess performed in     0.034 sec
E(0)                                       ...  -2075.364050209
E(MP2)                                     ...     -0.277487142
Initial E(tot)                             ...  -2075.641537352
<T|T>                                      ...      0.060626507
Number of pairs included                   ... 91

------------------------------------------------
                  UHF COUPLED CLUSTER ITERATIONS
------------------------------------------------

Number of amplitudes to be optimized       ...      1067839

Iter       E(tot)           E(Corr)          Delta-E          Residual     Time      <S|S>**1/2
  0  -2075.641537352     -0.277487142      0.000000000      0.027568997    4.50      0.000000302
                           *** Turning on DIIS ***
  1  -2075.625095359     -0.261045150      0.016441992      0.006638586    6.41      0.032019572
  2  -2075.633059752     -0.269009543     -0.007964393      0.003960250    6.45      0.035109634
  3  -2075.635197082     -0.271146873     -0.002137330      0.001506210    6.47      0.041168617
  4  -2075.635780512     -0.271730303     -0.000583430      0.000522018    6.51      0.042978685
  5  -2075.635853713     -0.271803503     -0.000073201      0.000128640    6.52      0.043517800
  6  -2075.635862859     -0.271812649     -0.000009146      0.000028359    6.52      0.043594881
  7  -2075.635864049     -0.271813840     -0.000001190      0.000008871    6.55      0.043596856
               --- The Coupled-Cluster iterations have converged ---

----------------------
COUPLED CLUSTER ENERGY
----------------------

E(0)                                       ...  -2075.364050209
E(CORR)                                    ...     -0.271813840
E(TOT)                                     ...  -2075.635864049
Singles norm <S|S>**1/2                    ...      0.043596856 ( 0.028758375, 0.014838481)  
T1 diagnostic                              ...      0.011651750                              

------------------
LARGEST AMPLITUDES
------------------
  14a-> 17a  14b-> 15b       0.061205
  14a-> 17a  14b-> 19b       0.041156
  14a-> 17a  14b-> 27b       0.036850
  15a-> 40a  14b-> 15b       0.032050
  16a-> 41a  14b-> 15b       0.032050
  16a-> 39a  15a-> 38a       0.030120
  16a-> 38a  15a-> 39a       0.030120
  14a-> 29a  14b-> 15b       0.029899
  16a-> 38a  14b-> 21b       0.028624
  15a-> 38a  14b-> 20b       0.028624
  16a-> 39a  14b-> 20b       0.028624
  15a-> 39a  14b-> 21b       0.028624
  14a-> 21a  14b-> 15b       0.028271
  16a-> 64a  14b-> 15b       0.021965
  15a-> 65a  14b-> 15b       0.021965
  15a-> 17a  14b-> 40b       0.021747

----------------------
UHF TRIPLES CORRECTION (Algorithm 1)
----------------------

Multiplier for the singles contribution    ...      1.000000000

SPIN-CASE Alpha-Alpha-Alpha:
10% done
20% done
30% done
40% done
50% done
60% done
70% done
80% done
90% done


SPIN-CASE Beta-Beta-Beta:
10% done
20% done
30% done
40% done
50% done
60% done
70% done
80% done
90% done


SPIN-CASE Alpha-Alpha-Beta:
10% done
20% done
30% done
40% done
50% done
60% done
70% done
80% done
90% done


SPIN-CASE Beta-Beta-Alpha:
10% done
20% done
30% done
40% done
50% done
60% done
70% done
80% done
90% done


Triples Correction (T)                     ...     -0.008281733
    alpha-alpha-alpha ... -0.000452920 (  5.5%)
    alpha-alpha-beta  ... -0.005040754 ( 60.9%)
    alpha-beta -beta  ... -0.002599442 ( 31.4%)
    beta -beta -beta  ... -0.000188617 (  2.3%)
Scaling of triples based on CCSD energies (Peterson et al. Molecular Physics 113, 1551 (2015))
E(T*) = f*E(T) where f = E(F12-CCSD)/E(CCSD) 
f = CCSD (with F12)/ CCSD (without F12)    ...      1.000000000
Scaled triples correction (T)              ...     -0.008281733

Final correlation energy                   ...     -0.280095573
E(CCSD)                                    ...  -2075.635864049
E(CCSD(T))                                 ...  -2075.644145782



        !!!!!!!!!!!!!!!!!!!!!!!!!!!!!!!!!!!!!!!!!!!!!!!!!!!!!!!!!!!!!!!!!!!!!!!!!! 
        !  Warning: Densities are linearized densities                           !
        !!!!!!!!!!!!!!!!!!!!!!!!!!!!!!!!!!!!!!!!!!!!!!!!!!!!!!!!!!!!!!!!!!!!!!!!!! 

NORM  =      1.079781728 sqrt=     1.039125463
W(HF) =      0.926113097
------------------------------------------------------------------------------
                           ORCA POPULATION ANALYSIS
------------------------------------------------------------------------------
Input electron density              ... 32_Ge.mdcip
Input spin density                  ... 32_Ge.mdcir
BaseName (.gbw .S,...)              ... 32_Ge

                    ********************************
                    * MULLIKEN POPULATION ANALYSIS *
                    ********************************

------------------------------------------
MULLIKEN ATOMIC CHARGES AND SPIN DENSITIES
------------------------------------------
   0 Ge:   -0.000000    2.000000
Sum of atomic charges       :   -0.0000000
Sum of atomic spin densities:    2.0000000

---------------------------------------------------
MULLIKEN REDUCED ORBITAL CHARGES AND SPIN DENSITIES
---------------------------------------------------
CHARGE
  0 Ges       :     7.935304  s :     7.935304
      pz      :     4.993700  p :    14.023705
      px      :     4.993698
      py      :     4.036307
      dz2     :     2.007344  d :    10.030143
      dxz     :     2.008637
      dyz     :     2.004702
      dx2y2   :     2.004758
      dxy     :     2.004702
      f0      :     0.001484  f :     0.009512
      f+1     :     0.001635
      f-1     :     0.001264
      f+2     :     0.001364
      f-2     :     0.001338
      f+3     :     0.001213
      f-3     :     0.001215
      g0      :     0.000140  g :     0.001157
      g+1     :     0.000156
      g-1     :     0.000121
      g+2     :     0.000133
      g-2     :     0.000133
      g+3     :     0.000124
      g-3     :     0.000124
      g+4     :     0.000113
      g-4     :     0.000113
      h0      :     0.000018  h :     0.000179
      h+1     :     0.000021
      h-1     :     0.000015
      h+2     :     0.000017
      h-2     :     0.000017
      h+3     :     0.000016
      h-3     :     0.000016
      h+4     :     0.000015
      h-4     :     0.000015
      h+5     :     0.000014
      h-5     :     0.000014

SPIN
  0 Ges       :     0.026360  s :     0.026360
      pz      :     0.973655  p :     1.944647
      px      :     0.973653
      py      :    -0.002661
      dz2     :     0.007388  d :     0.027118
      dxz     :     0.009339
      dyz     :     0.003453
      dx2y2   :     0.003485
      dxy     :     0.003453
      f0      :     0.000299  f :     0.001691
      f+1     :     0.000368
      f-1     :     0.000198
      f+2     :     0.000244
      f-2     :     0.000233
      f+3     :     0.000175
      f-3     :     0.000175
      g0      :     0.000024  g :     0.000158
      g+1     :     0.000033
      g-1     :     0.000013
      g+2     :     0.000020
      g-2     :     0.000020
      g+3     :     0.000015
      g-3     :     0.000015
      g+4     :     0.000009
      g-4     :     0.000009
      h0      :     0.000003  h :     0.000026
      h+1     :     0.000004
      h-1     :     0.000002
      h+2     :     0.000003
      h-2     :     0.000003
      h+3     :     0.000002
      h-3     :     0.000002
      h+4     :     0.000002
      h-4     :     0.000002
      h+5     :     0.000002
      h-5     :     0.000002


                     *******************************
                     * LOEWDIN POPULATION ANALYSIS *
                     *******************************

-----------------------------------------
LOEWDIN ATOMIC CHARGES AND SPIN DENSITIES
-----------------------------------------
   0 Ge:    0.000000    2.000000

--------------------------------------------------
LOEWDIN REDUCED ORBITAL CHARGES AND SPIN DENSITIES
--------------------------------------------------
CHARGE
  0 Ges       :     7.935304  s :     7.935304
      pz      :     4.993700  p :    14.023705
      px      :     4.993698
      py      :     4.036307
      dz2     :     2.007344  d :    10.030143
      dxz     :     2.008637
      dyz     :     2.004702
      dx2y2   :     2.004758
      dxy     :     2.004702
      f0      :     0.001484  f :     0.009512
      f+1     :     0.001635
      f-1     :     0.001264
      f+2     :     0.001364
      f-2     :     0.001338
      f+3     :     0.001213
      f-3     :     0.001215
      g0      :     0.000140  g :     0.001157
      g+1     :     0.000156
      g-1     :     0.000121
      g+2     :     0.000133
      g-2     :     0.000133
      g+3     :     0.000124
      g-3     :     0.000124
      g+4     :     0.000113
      g-4     :     0.000113
      h0      :     0.000018  h :     0.000179
      h+1     :     0.000021
      h-1     :     0.000015
      h+2     :     0.000017
      h-2     :     0.000017
      h+3     :     0.000016
      h-3     :     0.000016
      h+4     :     0.000015
      h-4     :     0.000015
      h+5     :     0.000014
      h-5     :     0.000014

SPIN
  0 Ges       :     0.026360  s :     0.026360
      pz      :     0.973655  p :     1.944647
      px      :     0.973653
      py      :    -0.002661
      dz2     :     0.007388  d :     0.027118
      dxz     :     0.009339
      dyz     :     0.003453
      dx2y2   :     0.003485
      dxy     :     0.003453
      f0      :     0.000299  f :     0.001691
      f+1     :     0.000368
      f-1     :     0.000198
      f+2     :     0.000244
      f-2     :     0.000233
      f+3     :     0.000175
      f-3     :     0.000175
      g0      :     0.000024  g :     0.000158
      g+1     :     0.000033
      g-1     :     0.000013
      g+2     :     0.000020
      g-2     :     0.000020
      g+3     :     0.000015
      g-3     :     0.000015
      g+4     :     0.000009
      g-4     :     0.000009
      h0      :     0.000003  h :     0.000026
      h+1     :     0.000004
      h-1     :     0.000002
      h+2     :     0.000003
      h-2     :     0.000003
      h+3     :     0.000002
      h-3     :     0.000002
      h+4     :     0.000002
      h-4     :     0.000002
      h+5     :     0.000002
      h-5     :     0.000002


                      *****************************
                      * MAYER POPULATION ANALYSIS *
                      *****************************

  NA   - Mulliken gross atomic population
  ZA   - Total nuclear charge
  QA   - Mulliken gross atomic charge
  VA   - Mayer's total valence
  BVA  - Mayer's bonded valence
  FA   - Mayer's free valence

  ATOM       NA         ZA         QA         VA         BVA        FA
  0 Ge    32.0000    32.0000    -0.0000     2.4947     0.0000     2.4947





------------------------------------------------------------------------------- 
                                     TIMINGS                                   
------------------------------------------------------------------------------- 


Total execution time                   ...       91.828 sec

Fock Matrix Formation                  ...        6.486 sec (  7.1%)
Initial Guess                          ...        0.034 sec (  0.0%)
DIIS Solver                            ...        0.625 sec (  0.7%)
State Vector Update                    ...        0.033 sec (  0.0%)
Sigma-vector construction              ...       49.283 sec ( 53.7%)
  <0|H|D>                              ...        0.002 sec (  0.0% of sigma)
  <D|H|D>(0-ext Fock)                  ...        0.011 sec (  0.0% of sigma)
  <D|H|D>(0-ext)                       ...        0.031 sec (  0.1% of sigma)
  <D|H|D>(2-ext Fock)                  ...        0.005 sec (  0.0% of sigma)
  <D|H|D>(2-ext)                       ...        0.173 sec (  0.4% of sigma)
  <D|H|D>(4-ext)                       ...       11.255 sec ( 22.8% of sigma)
  <S|H|0>                              ...        0.475 sec (  1.0% of sigma)
  <S|H|S>                              ...        0.001 sec (  0.0% of sigma)
  <S|H|D>(1-ext)                       ...        0.003 sec (  0.0% of sigma)
  <D|H|S>(1-ext)                       ...        0.062 sec (  0.1% of sigma)
  Fock-dressing                        ...       34.668 sec ( 70.3% of sigma)
  (ik|jl)-dressing                     ...        0.036 sec (  0.1% of sigma)
  (ij|ab),(ia|jb)-dressing             ...        2.066 sec (  4.2% of sigma)
  Pair energies                        ...        0.003 sec (  0.0% of sigma)
Total Time for computing (T)           ...        4.145 sec (  4.5% of ALL)
  I/O of integral and amplitudes       ...        1.064 sec ( 25.7% of (T))
  External N**7 contributions          ...        1.301 sec ( 31.4% of (T))
  Internal N**7 contributions          ...        0.459 sec ( 11.1% of (T))
  N**6 triples energy contributions    ...        1.228 sec ( 29.6% of (T))


-------------------------   --------------------
FINAL SINGLE POINT ENERGY     -2075.644145781916
-------------------------   --------------------


                            ***************************************
                            *     ORCA property calculations      *
                            ***************************************

                                    ---------------------
                                    Active property flags
                                    ---------------------
   (+) Dipole Moment


------------------------------------------------------------------------------
                       ORCA ELECTRIC PROPERTIES CALCULATION
------------------------------------------------------------------------------

Dipole Moment Calculation                       ... on
Quadrupole Moment Calculation                   ... off
Polarizability Calculation                      ... off
GBWName                                         ... 32_Ge.gbw
Electron density file                           ... 32_Ge.scfp
The origin for moment calculation is the CENTER OF MASS  = ( 0.000000,  0.000000  0.000000)

-------------
DIPOLE MOMENT
-------------
                                X             Y             Z
Electronic contribution:     -0.00000       0.00000      -0.00000
Nuclear contribution   :      0.00000       0.00000       0.00000
                        -----------------------------------------
Total Dipole Moment    :     -0.00000       0.00000      -0.00000
                        -----------------------------------------
Magnitude (a.u.)       :      0.00000
Magnitude (Debye)      :      0.00000



--------------------
Rotational spectrum 
--------------------
 
Rotational constants in cm-1:     0.000000     0.000000     0.000000 
Rotational constants in MHz :     0.000000     0.000000     0.000000 

 Dipole components along the rotational axes: 
x,y,z [a.u.] :    -0.000000     0.000000    -0.000000 
x,y,z [Debye]:    -0.000000     0.000000    -0.000000 

 

                           *** MDCI DENSITY ***

------------------------------------------------------------------------------
                       ORCA ELECTRIC PROPERTIES CALCULATION
------------------------------------------------------------------------------

Dipole Moment Calculation                       ... on
Quadrupole Moment Calculation                   ... off
Polarizability Calculation                      ... off
GBWName                                         ... 32_Ge.gbw
Electron density file                           ... 32_Ge.mdcip
The origin for moment calculation is the CENTER OF MASS  = ( 0.000000,  0.000000  0.000000)

-------------
DIPOLE MOMENT
-------------
                                X             Y             Z
Electronic contribution:      0.00000       0.00000      -0.00000
Nuclear contribution   :      0.00000       0.00000       0.00000
                        -----------------------------------------
Total Dipole Moment    :      0.00000       0.00000      -0.00000
                        -----------------------------------------
Magnitude (a.u.)       :      0.00000
Magnitude (Debye)      :      0.00000



--------------------
Rotational spectrum 
--------------------
 
Rotational constants in cm-1:     0.000000     0.000000     0.000000 
Rotational constants in MHz :     0.000000     0.000000     0.000000 

 Dipole components along the rotational axes: 
x,y,z [a.u.] :     0.000000     0.000000    -0.000000 
x,y,z [Debye]:     0.000000     0.000000    -0.000000 

 

Timings for individual modules:

Sum of individual times         ...      118.566 sec (=   1.976 min)
GTO integral calculation        ...        2.265 sec (=   0.038 min)   1.9 %
SCF iterations                  ...       23.579 sec (=   0.393 min)  19.9 %
MDCI module                     ...       92.722 sec (=   1.545 min)  78.2 %
                             ****ORCA TERMINATED NORMALLY****
TOTAL RUN TIME: 0 days 0 hours 1 minutes 59 seconds 478 msec
