
                                 *****************
                                 * O   R   C   A *
                                 *****************

           --- An Ab Initio, DFT and Semiempirical electronic structure package ---

                  #######################################################
                  #                        -***-                        #
                  #          Department of theory and spectroscopy      #
                  #               Directorship: Frank Neese             #
                  #        Max Planck Institute fuer Kohlenforschung    #
                  #                Kaiser Wilhelm Platz 1               #
                  #                 D-45470 Muelheim/Ruhr               #
                  #                      Germany                        #
                  #                                                     #
                  #                  All rights reserved                #
                  #                        -***-                        #
                  #######################################################


                         Program Version 4.2.0 -  RELEASE  -


 With contributions from (in alphabetic order):
   Daniel Aravena         : Magnetic Suceptibility
   Michael Atanasov       : Ab Initio Ligand Field Theory (pilot matlab implementation)
   Alexander A. Auer      : GIAO ZORA, VPT2
   Ute Becker             : Parallelization
   Giovanni Bistoni       : ED, misc. LED, open-shell LED, HFLED
   Martin Brehm           : Molecular dynamics
   Dmytro Bykov           : SCF Hessian
   Vijay G. Chilkuri      : MRCI spin determinant printing, contributions to CSF-ICE
   Dipayan Datta          : RHF DLPNO-CCSD density
   Achintya Kumar Dutta   : EOM-CC, STEOM-CC
   Dmitry Ganyushin       : Spin-Orbit,Spin-Spin,Magnetic field MRCI
   Miquel Garcia          : C-PCM Hessian, Gaussian charge scheme
   Yang Guo               : DLPNO-NEVPT2, CIM, IAO-localization
   Andreas Hansen         : Spin unrestricted coupled pair/coupled cluster methods
   Benjamin Helmich-Paris : CASSCF linear response (MC-RPA)
   Lee Huntington         : MR-EOM, pCC
   Robert Izsak           : Overlap fitted RIJCOSX, COSX-SCS-MP3, EOM
   Christian Kollmar      : KDIIS, OOCD, Brueckner-CCSD(T), CCSD density
   Simone Kossmann        : Meta GGA functionals, TD-DFT gradient, OOMP2, MP2 Hessian
   Martin Krupicka        : AUTO-CI
   Lucas Lang             : DCDCAS
   Dagmar Lenk            : GEPOL surface, SMD
   Dimitrios Liakos       : Extrapolation schemes; Compound Job, initial MDCI parallelization
   Dimitrios Manganas     : Further ROCIS development; embedding schemes
   Dimitrios Pantazis     : SARC Basis sets
   Taras Petrenko         : DFT Hessian,TD-DFT gradient, ASA, ECA, R-Raman, ABS, FL, XAS/XES, NRVS
   Peter Pinski           : DLPNO-MP2, DLPNO-MP2 Gradient
   Christoph Reimann      : Effective Core Potentials
   Marius Retegan         : Local ZFS, SOC
   Christoph Riplinger    : Optimizer, TS searches, QM/MM, DLPNO-CCSD(T), (RO)-DLPNO pert. Triples
   Tobias Risthaus        : Range-separated hybrids, TD-DFT gradient, RPA, STAB
   Michael Roemelt        : Original ROCIS implementation
   Masaaki Saitow         : Open-shell DLPNO-CCSD energy and density
   Barbara Sandhoefer     : DKH picture change effects
   Avijit Sen             : IP-ROCIS
   Kantharuban Sivalingam : CASSCF convergence, NEVPT2, FIC-MRCI
   Bernardo de Souza      : ESD, SOC TD-DFT
   Georgi Stoychev        : AutoAux, RI-MP2 NMR
   Willem Van den Heuvel  : Paramagnetic NMR
   Boris Wezisla          : Elementary symmetry handling
   Frank Wennmohs         : Technical directorship


 We gratefully acknowledge several colleagues who have allowed us to
 interface, adapt or use parts of their codes:
   Stefan Grimme, W. Hujo, H. Kruse,             : VdW corrections, initial TS optimization,
                  C. Bannwarth                     DFT functionals, gCP, sTDA/sTD-DF
   Ed Valeev, F. Pavosevic, A. Kumar             : LibInt (2-el integral package), F12 methods
   Garnet Chan, S. Sharma, J. Yang, R. Olivares  : DMRG
   Ulf Ekstrom                                   : XCFun DFT Library
   Mihaly Kallay                                 : mrcc  (arbitrary order and MRCC methods)
   Andreas Klamt, Michael Diedenhofen            : otool_cosmo (COSMO solvation model)
   Jiri Pittner, Ondrej Demel                    : Mk-CCSD
   Frank Weinhold                                : gennbo (NPA and NBO analysis)
   Christopher J. Cramer and Donald G. Truhlar   : smd solvation model
   Lars Goerigk                                  : TD-DFT with DH, B97 family of functionals
   V. Asgeirsson, H. Jonsson                     : NEB implementation
   FAccTs GmbH                                   : IRC, NEB, NEB-TS, Multilevel, MM, QM/MM, CI optimization
   S Lehtola, MJT Oliveira, MAL Marques          : LibXC Library


 Your calculation uses the libint2 library for the computation of 2-el integrals
 For citations please refer to: http://libint.valeyev.net

 Your ORCA version has been built with support for libXC version: 4.2.3
 For citations please refer to: https://tddft.org/programs/libxc/

 This ORCA versions uses:
   CBLAS   interface :  Fast vector & matrix operations
   LAPACKE interface :  Fast linear algebra routines
   SCALAPACK package :  Parallel linear algebra routines


----- Orbital basis set information -----
Your calculation utilizes the basis: aug-cc-pV5Z 
          H : Obtained from the ccRepo (grant-hill.group.shef.ac.uk/ccrepo) Feb. 2017
              T. H. Dunning, Jr., J. Chem. Phys. 90, 1007 (1989)
              Diffuse s exponent - S. Mielke, unpublished
         He : Obtained from the ccRepo (grant-hill.group.shef.ac.uk/ccrepo) Feb. 2017
              D. E. Woon, T. H. Dunning, Jr., J. Chem. Phys. 100, 2975 (1994)
  Li-Be, Na : Obtained from the ccRepo (grant-hill.group.shef.ac.uk/ccrepo) Feb. 2017
              B. P. Prascher, D. E. Woon, K. A. Peterson, T. H. Dunning, Jr., A. K. Wilson, Theor. Chem. Acc. 128, 69 (2011)
        B-F : Obtained from the ccRepo (grant-hill.group.shef.ac.uk/ccrepo) Feb. 2017
              R. A. Kendall, T. H. Dunning, Jr., R. J. Harrison, J. Chem. Phys. 96, 6796 (1992)
              T. H. Dunning, Jr., J. Chem. Phys. 90, 1007 (1989)
         Ne : Obtained from the ccRepo (grant-hill.group.shef.ac.uk/ccrepo) Feb. 2017
              T. H. Dunning, Jr., J. Chem. Phys. 90, 1007 (1989)
         Mg : Obtained from the Peterson Research Group Website (tyr0.chem.wsu.edu/~kipeters) Feb. 2017
              B. P. Prascher, D. E. Woon, K. A. Peterson, T. H. Dunning, Jr., A. K. Wilson, Theor. Chem. Acc. 128, 69 (2011)
      Al-Ar : Obtained from the ccRepo (grant-hill.group.shef.ac.uk/ccrepo) Feb. 2017
              D. E. Woon, T. H. Dunning, Jr., J. Chem. Phys. 98, 1358 (1993)
      Sc-Zn : Obtained from the ccRepo (grant-hill.group.shef.ac.uk/ccrepo) Feb. 2017
              N. B. Balabanov, K. A. Peterson, J. Chem. Phys. 123, 064107 (2005)
              N. B. Balabanov, K. A. Peterson, J. Chem. Phys. 125, 074110 (2006)
      Ga-Kr : Obtained from the ccRepo (grant-hill.group.shef.ac.uk/ccrepo) Feb. 2017
              A. K. Wilson, D. E. Woon, K. A. Peterson, T. H. Dunning, Jr., J. Chem. Phys. 110, 7667 (1999)

================================================================================
                                        WARNINGS
                       Please study these warnings very carefully!
================================================================================


WARNING: your system is open-shell and RHF/RKS was chosen
  ===> : WILL SWITCH to UHF/UKS


WARNING: MDCI localization with Augmented Hessian Foster-Boys
  ===> : Switching off randomization!

WARNING: Post HF methods need fully converged wavefunctions
  ===> : Setting SCFConvForced true
         You can overwrite this default with %scf ConvForced false 


INFO   : the flag for use of LIBINT has been found!

================================================================================
                                       INPUT FILE
================================================================================
NAME = 34_Se.in
|  1> #
|  2> # 34_Se CCSD(T)/aug-cc-pV5Z
|  3> #
|  4> ! CCSD(T) aug-cc-pV5Z tightscf
|  5> 
|  6> *xyz 0 3
|  7>  Se 0.0 0.0 0.0
|  8> *
|  9> 
| 10> %maxcore 5000 
| 11> 
| 12> %pal
| 13> nprocs 24
| 14> end
| 15> 
| 16> 
| 17>                          ****END OF INPUT****
================================================================================

                       ****************************
                       * Single Point Calculation *
                       ****************************

---------------------------------
CARTESIAN COORDINATES (ANGSTROEM)
---------------------------------
  Se     0.000000    0.000000    0.000000

----------------------------
CARTESIAN COORDINATES (A.U.)
----------------------------
  NO LB      ZA    FRAG     MASS         X           Y           Z
   0 Se   34.0000    0    78.960    0.000000    0.000000    0.000000

--------------------------------
INTERNAL COORDINATES (ANGSTROEM)
--------------------------------
 Se     0   0   0     0.000000000000     0.00000000     0.00000000

---------------------------
INTERNAL COORDINATES (A.U.)
---------------------------
 Se     0   0   0     0.000000000000     0.00000000     0.00000000

---------------------
BASIS SET INFORMATION
---------------------
There are 1 groups of distinct atoms

 Group   1 Type Se  : 93s44p14d4f3g2h contracted to 9s8p6d4f3g2h pattern {2222222211111/13131311111/911111/1111/111/11}

Atom   0Se   basis set group =>   1


           ************************************************************
           *        Program running with 24 parallel MPI-processes    *
           *              working on a common directory               *
           ************************************************************
------------------------------------------------------------------------------
                           ORCA GTO INTEGRAL CALCULATION
------------------------------------------------------------------------------

                         BASIS SET STATISTICS AND STARTUP INFO

 # of primitive gaussian shells          ...  160
 # of primitive gaussian functions       ...  372
 # of contracted shells                  ...   32
 # of contracted basis functions         ...  140
 Highest angular momentum                ...    5
 Maximum contraction depth               ...   22
 Integral package used                   ... LIBINT
 Integral threshhold            Thresh   ...  2.500e-11
 Primitive cut-off              TCut     ...  2.500e-12


------------------------------ INTEGRAL EVALUATION ----------------------------


 * One electron integrals 
 Pre-screening matrix                    ... done
 Shell pair data                         ... done (   0.000 sec)



           ************************************************************
           *        Program running with 24 parallel MPI-processes    *
           *              working on a common directory               *
           ************************************************************
-------------------------------------------------------------------------------
                                 ORCA SCF
-------------------------------------------------------------------------------

------------
SCF SETTINGS
------------
Hamiltonian:
 Ab initio Hamiltonian  Method          .... Hartree-Fock(GTOs)


General Settings:
 Integral files         IntName         .... 34_Se
 Hartree-Fock type      HFTyp           .... UHF
 Total Charge           Charge          ....    0
 Multiplicity           Mult            ....    3
 Number of Electrons    NEL             ....   34
 Basis Dimension        Dim             ....  140
 Nuclear Repulsion      ENuc            ....      0.0000000000 Eh

Convergence Acceleration:
 DIIS                   CNVDIIS         .... on
   Start iteration      DIISMaxIt       ....    12
   Startup error        DIISStart       ....  0.200000
   # of expansion vecs  DIISMaxEq       ....     5
   Bias factor          DIISBfac        ....   1.050
   Max. coefficient     DIISMaxC        ....  10.000
 Newton-Raphson         CNVNR           .... off
 SOSCF                  CNVSOSCF        .... off
 Level Shifting         CNVShift        .... on
   Level shift para.    LevelShift      ....    0.2500
   Turn off err/grad.   ShiftErr        ....    0.0010
 Zerner damping         CNVZerner       .... off
 Static damping         CNVDamp         .... on
   Fraction old density DampFac         ....    0.7000
   Max. Damping (<1)    DampMax         ....    0.9800
   Min. Damping (>=0)   DampMin         ....    0.0000
   Turn off err/grad.   DampErr         ....    0.1000
 Fernandez-Rico         CNVRico         .... off

SCF Procedure:
 Maximum # iterations   MaxIter         ....   125
 SCF integral mode      SCFMode         .... Direct
   Integral package                     .... LIBINT
 Reset frequency        DirectResetFreq ....    20
 Integral Threshold     Thresh          ....  2.500e-11 Eh
 Primitive CutOff       TCut            ....  2.500e-12 Eh

Convergence Tolerance:
 Convergence Check Mode ConvCheckMode   .... Total+1el-Energy
 Convergence forced     ConvForced      .... 1
 Energy Change          TolE            ....  1.000e-08 Eh
 1-El. energy change                    ....  1.000e-05 Eh
 DIIS Error             TolErr          ....  5.000e-07


Diagonalization of the overlap matrix:
Smallest eigenvalue                        ... 1.198e-04
Time for diagonalization                   ...    0.004 sec
Threshold for overlap eigenvalues          ... 1.000e-08
Number of eigenvalues below threshold      ... 0
Time for construction of square roots      ...    0.002 sec
Total time needed                          ...    0.006 sec

-------------------
DFT GRID GENERATION
-------------------

General Integration Accuracy     IntAcc      ...  4.340
Radial Grid Type                 RadialGrid  ... Gauss-Chebyshev
Angular Grid (max. acc.)         AngularGrid ... Lebedev-110
Angular grid pruning method      GridPruning ... 3 (G Style)
Weight generation scheme         WeightScheme... Becke
Basis function cutoff            BFCut       ...    1.0000e-11
Integration weight cutoff        WCut        ...    1.0000e-14
Grids for H and He will be reduced by one unit

# of grid points (after initial pruning)     ...   2950 (   0.0 sec)
# of grid points (after weights+screening)   ...   2950 (   0.0 sec)
Grid point division into batches done        ...    0.0 sec
Reduced shell lists constructed in    0.0 sec

Total number of grid points                  ...     2950
Total number of batches                      ...       47
Average number of points per batch           ...       62
Average number of grid points per atom       ...     2950
Average number of shells per batch           ...    15.33 (47.92%)
Average number of basis functions per batch  ...    78.00 (55.71%)
Average number of large shells per batch     ...    12.00 (78.26%)
Average number of large basis fcns per batch ...    61.33 (78.63%)
Maximum spatial batch extension              ...  14.66, 21.55, 21.55 au
Average spatial batch extension              ...   0.62,  0.92,  0.92 au

Time for grid setup =    0.024 sec

------------------------------
INITIAL GUESS: MODEL POTENTIAL
------------------------------
Loading Hartree-Fock densities                     ... done
Calculating cut-offs                               ... done
Setting up the integral package                    ... done
Initializing the effective Hamiltonian             ... done
Starting the Coulomb interaction                   ... done (   0.0 sec)
Reading the grid                                   ... done
Mapping shells                                     ... done
Starting the XC term evaluation                    ... done (   0.0 sec)
Transforming the Hamiltonian                       ... done (   0.0 sec)
Diagonalizing the Hamiltonian                      ... done (   0.0 sec)
Back transforming the eigenvectors                 ... done (   0.0 sec)
Now organizing SCF variables                       ... done
                      ------------------
                      INITIAL GUESS DONE (   0.2 sec)
                      ------------------
--------------
SCF ITERATIONS
--------------
ITER       Energy         Delta-E        Max-DP      RMS-DP      [F,P]     Damp
               ***  Starting incremental Fock matrix formation  ***
  0  -2399.8347911365   0.000000000000 0.06987304  0.00122051  0.1746426 0.7000
  1  -2399.8464547796  -0.011663643102 0.07393727  0.00111666  0.1083525 0.7000
                               ***Turning on DIIS***
  2  -2399.8545568081  -0.008102028482 0.21949289  0.00318064  0.0673930 0.0000
  3  -2399.9259804937  -0.071423685560 0.08436133  0.00111938  0.0206068 0.0000
  4  -2399.7621865115   0.163793982141 0.01186581  0.00016877  0.0102518 0.0000
  5  -2399.8804665544  -0.118280042911 0.00147921  0.00003288  0.0016008 0.0000
  6  -2399.8784599416   0.002006612855 0.00090430  0.00002125  0.0007602 0.0000
  7  -2399.8762017947   0.002258146922 0.00024397  0.00000496  0.0001736 0.0000
  8  -2399.8756980934   0.000503701266 0.00010151  0.00000153  0.0000452 0.0000
  9  -2399.8757102154  -0.000012121965 0.00003416  0.00000050  0.0000086 0.0000
 10  -2399.8757109640  -0.000000748636 0.00000762  0.00000013  0.0000011 0.0000
                            ***DIIS convergence achieved***

               *****************************************************
               *                     SUCCESS                       *
               *           SCF CONVERGED AFTER  11 CYCLES          *
               *****************************************************


----------------
TOTAL SCF ENERGY
----------------

Total Energy       :        -2399.87571521 Eh          -65303.93820 eV

Components:
Nuclear Repulsion  :            0.00000000 Eh               0.00000 eV
Electronic Energy  :        -2399.87571521 Eh          -65303.93820 eV
One Electron Energy:        -3343.43826222 Eh          -90979.58043 eV
Two Electron Energy:          943.56254701 Eh           25675.64223 eV

Virial components:
Potential Energy   :        -4799.74972371 Eh         -130607.82996 eV
Kinetic Energy     :         2399.87400850 Eh           65303.89176 eV
Virial Ratio       :            2.00000071


---------------
SCF CONVERGENCE
---------------

  Last Energy change         ...   -4.2436e-06  Tolerance :   1.0000e-08
  Last MAX-Density change    ...    3.7705e-06  Tolerance :   1.0000e-07
  Last RMS-Density change    ...    6.6207e-08  Tolerance :   5.0000e-09
  Last DIIS Error            ...    3.3924e-07  Tolerance :   5.0000e-07

             **** THE GBW FILE WAS UPDATED (34_Se.gbw) ****
             **** DENSITY FILE WAS UPDATED (34_Se.scfp) ****
             **** ENERGY FILE WAS UPDATED (34_Se.en.tmp) ****
----------------------
UHF SPIN CONTAMINATION
----------------------

Expectation value of <S**2>     :     2.011706
Ideal value S*(S+1) for S=1.0   :     2.000000
Deviation                       :     0.011706

             **** THE GBW FILE WAS UPDATED (34_Se.gbw) ****
             **** DENSITY FILE WAS UPDATED (34_Se.scfp) ****
----------------
ORBITAL ENERGIES
----------------
                 SPIN UP ORBITALS
  NO   OCC          E(Eh)            E(eV) 
   0   1.0000    -460.870639    -12540.9276 
   1   1.0000     -60.670225     -1650.9208 
   2   1.0000     -54.274501     -1476.8843 
   3   1.0000     -54.274501     -1476.8843 
   4   1.0000     -54.268200     -1476.7128 
   5   1.0000      -8.938208      -243.2210 
   6   1.0000      -6.676793      -181.6848 
   7   1.0000      -6.676793      -181.6848 
   8   1.0000      -6.657048      -181.1475 
   9   1.0000      -2.663045       -72.4651 
  10   1.0000      -2.663045       -72.4651 
  11   1.0000      -2.649103       -72.0858 
  12   1.0000      -2.649103       -72.0858 
  13   1.0000      -2.644546       -71.9617 
  14   1.0000      -0.936566       -25.4852 
  15   1.0000      -0.448090       -12.1931 
  16   1.0000      -0.448090       -12.1931 
  17   1.0000      -0.384513       -10.4631 
  18   0.0000       0.056917         1.5488 
  19   0.0000       0.058641         1.5957 
  20   0.0000       0.058641         1.5957 
  21   0.0000       0.063462         1.7269 
  22   0.0000       0.145076         3.9477 
  23   0.0000       0.145076         3.9477 
  24   0.0000       0.153335         4.1725 
  25   0.0000       0.153335         4.1725 
  26   0.0000       0.156486         4.2582 
  27   0.0000       0.264945         7.2095 
  28   0.0000       0.264945         7.2095 
  29   0.0000       0.281374         7.6566 
  30   0.0000       0.325072         8.8457 
  31   0.0000       0.368491        10.0271 
  32   0.0000       0.368491        10.0271 
  33   0.0000       0.375677        10.2227 
  34   0.0000       0.375677        10.2227 
  35   0.0000       0.380186        10.3454 
  36   0.0000       0.380186        10.3454 
  37   0.0000       0.380313        10.3489 
  38   0.0000       0.380313        10.3489 
  39   0.0000       0.381954        10.3935 
  40   0.0000       0.403328        10.9751 
  41   0.0000       0.403328        10.9751 
  42   0.0000       0.412781        11.2323 
  43   0.0000       0.872370        23.7384 
  44   0.0000       0.872370        23.7384 
  45   0.0000       0.882032        24.0013 
  46   0.0000       0.882032        24.0013 
  47   0.0000       0.889176        24.1957 
  48   0.0000       0.889176        24.1957 
  49   0.0000       0.893599        24.3161 
  50   0.0000       0.893599        24.3161 
  51   0.0000       0.895100        24.3569 
  52   0.0000       0.903340        24.5811 
  53   0.0000       0.903340        24.5811 
  54   0.0000       0.928078        25.2543 
  55   0.0000       0.928078        25.2543 
  56   0.0000       0.935729        25.4625 
  57   0.0000       0.946382        25.7524 
  58   0.0000       0.946382        25.7524 
  59   0.0000       0.958767        26.0894 
  60   0.0000       0.958767        26.0894 
  61   0.0000       0.964474        26.2447 
  62   0.0000       1.008825        27.4515 
  63   0.0000       1.008825        27.4515 
  64   0.0000       1.038196        28.2507 
  65   0.0000       1.038196        28.2507 
  66   0.0000       1.049108        28.5477 
  67   0.0000       1.175545        31.9882 
  68   0.0000       1.990260        54.1577 
  69   0.0000       1.990260        54.1577 
  70   0.0000       2.016330        54.8671 
  71   0.0000       2.016330        54.8671 
  72   0.0000       2.032589        55.3096 
  73   0.0000       2.032589        55.3096 
  74   0.0000       2.038148        55.4608 
  75   0.0000       2.172692        59.1220 
  76   0.0000       2.172692        59.1220 
  77   0.0000       2.192528        59.6617 
  78   0.0000       2.192528        59.6617 
  79   0.0000       2.207135        60.0592 
  80   0.0000       2.207135        60.0592 
  81   0.0000       2.216098        60.3031 
  82   0.0000       2.216098        60.3031 
  83   0.0000       2.219123        60.3854 
  84   0.0000       2.243000        61.0351 
  85   0.0000       2.243000        61.0351 
  86   0.0000       2.257286        61.4239 
  87   0.0000       2.257286        61.4239 
  88   0.0000       2.268684        61.7340 
  89   0.0000       2.268684        61.7340 
  90   0.0000       2.276995        61.9602 
  91   0.0000       2.276995        61.9602 
  92   0.0000       2.282057        62.0979 
  93   0.0000       2.282057        62.0979 
  94   0.0000       2.283757        62.1442 
  95   0.0000       2.716472        73.9190 
  96   0.0000       2.716472        73.9190 
  97   0.0000       2.747529        74.7641 
  98   0.0000       2.747529        74.7641 
  99   0.0000       2.758766        75.0698 
 100   0.0000       2.816812        76.6493 
 101   0.0000       2.816812        76.6493 
 102   0.0000       2.858533        77.7846 
 103   0.0000       3.726674       101.4080 
 104   0.0000       3.915059       106.5342 
 105   0.0000       3.915059       106.5342 
 106   0.0000       3.939763       107.2064 
 107   0.0000       3.939763       107.2064 
 108   0.0000       3.955200       107.6265 
 109   0.0000       3.955200       107.6265 
 110   0.0000       3.960476       107.7700 
 111   0.0000       4.828793       131.3981 
 112   0.0000       4.828793       131.3981 
 113   0.0000       4.851538       132.0171 
 114   0.0000       4.851538       132.0171 
 115   0.0000       4.868167       132.4696 
 116   0.0000       4.868167       132.4696 
 117   0.0000       4.878306       132.7455 
 118   0.0000       4.878306       132.7455 
 119   0.0000       4.881714       132.8382 
 120   0.0000       5.118144       139.2718 
 121   0.0000       5.118144       139.2718 
 122   0.0000       5.137876       139.8087 
 123   0.0000       5.137876       139.8087 
 124   0.0000       5.153529       140.2347 
 125   0.0000       5.153529       140.2347 
 126   0.0000       5.164880       140.5435 
 127   0.0000       5.164880       140.5435 
 128   0.0000       5.171761       140.7308 
 129   0.0000       5.171761       140.7308 
 130   0.0000       5.174067       140.7935 
 131   0.0000       7.037027       191.4872 
 132   0.0000       7.037027       191.4872 
 133   0.0000       7.060625       192.1294 
 134   0.0000       7.060625       192.1294 
 135   0.0000       7.068878       192.3540 
 136   0.0000      11.416499       310.6587 
 137   0.0000      11.416499       310.6587 
 138   0.0000      11.443360       311.3897 
 139   0.0000      19.727109       536.8019 

                 SPIN DOWN ORBITALS
  NO   OCC          E(Eh)            E(eV) 
   0   1.0000    -460.863555    -12540.7349 
   1   1.0000     -60.666733     -1650.8257 
   2   1.0000     -54.266059     -1476.6545 
   3   1.0000     -54.263833     -1476.5940 
   4   1.0000     -54.263833     -1476.5940 
   5   1.0000      -8.925158      -242.8659 
   6   1.0000      -6.654302      -181.0728 
   7   1.0000      -6.650952      -180.9816 
   8   1.0000      -6.650952      -180.9816 
   9   1.0000      -2.649578       -72.0987 
  10   1.0000      -2.649578       -72.0987 
  11   1.0000      -2.642274       -71.8999 
  12   1.0000      -2.642274       -71.8999 
  13   1.0000      -2.639978       -71.8374 
  14   1.0000      -0.741924       -20.1888 
  15   1.0000      -0.349174        -9.5015 
  16   0.0000      -0.006274        -0.1707 
  17   0.0000      -0.006274        -0.1707 
  18   0.0000       0.062632         1.7043 
  19   0.0000       0.064252         1.7484 
  20   0.0000       0.072803         1.9811 
  21   0.0000       0.072803         1.9811 
  22   0.0000       0.159052         4.3280 
  23   0.0000       0.159052         4.3280 
  24   0.0000       0.160165         4.3583 
  25   0.0000       0.160165         4.3583 
  26   0.0000       0.160715         4.3733 
  27   0.0000       0.286239         7.7889 
  28   0.0000       0.302707         8.2371 
  29   0.0000       0.302707         8.2371 
  30   0.0000       0.345270         9.3953 
  31   0.0000       0.375752        10.2247 
  32   0.0000       0.375752        10.2247 
  33   0.0000       0.380290        10.3482 
  34   0.0000       0.380290        10.3482 
  35   0.0000       0.383223        10.4280 
  36   0.0000       0.383223        10.4280 
  37   0.0000       0.384150        10.4533 
  38   0.0000       0.439591        11.9619 
  39   0.0000       0.442881        12.0514 
  40   0.0000       0.442881        12.0514 
  41   0.0000       0.454897        12.3784 
  42   0.0000       0.454897        12.3784 
  43   0.0000       0.883286        24.0354 
  44   0.0000       0.883286        24.0354 
  45   0.0000       0.890023        24.2188 
  46   0.0000       0.890023        24.2188 
  47   0.0000       0.894812        24.3491 
  48   0.0000       0.894812        24.3491 
  49   0.0000       0.897644        24.4261 
  50   0.0000       0.897644        24.4261 
  51   0.0000       0.898579        24.4516 
  52   0.0000       0.947283        25.7769 
  53   0.0000       0.956346        26.0235 
  54   0.0000       0.956346        26.0235 
  55   0.0000       0.968717        26.3601 
  56   0.0000       0.968717        26.3601 
  57   0.0000       0.973697        26.4956 
  58   0.0000       0.973697        26.4956 
  59   0.0000       0.978487        26.6260 
  60   0.0000       0.978487        26.6260 
  61   0.0000       0.979277        26.6475 
  62   0.0000       1.079721        29.3807 
  63   0.0000       1.081854        29.4387 
  64   0.0000       1.081854        29.4387 
  65   0.0000       1.089261        29.6403 
  66   0.0000       1.089261        29.6403 
  67   0.0000       1.206643        32.8344 
  68   0.0000       2.048932        55.7543 
  69   0.0000       2.048932        55.7543 
  70   0.0000       2.056523        55.9608 
  71   0.0000       2.056523        55.9608 
  72   0.0000       2.060916        56.0804 
  73   0.0000       2.060916        56.0804 
  74   0.0000       2.062351        56.1194 
  75   0.0000       2.211560        60.1796 
  76   0.0000       2.211560        60.1796 
  77   0.0000       2.221681        60.4550 
  78   0.0000       2.221681        60.4550 
  79   0.0000       2.228878        60.6508 
  80   0.0000       2.228878        60.6508 
  81   0.0000       2.233173        60.7677 
  82   0.0000       2.233173        60.7677 
  83   0.0000       2.234600        60.8066 
  84   0.0000       2.264393        61.6173 
  85   0.0000       2.264393        61.6173 
  86   0.0000       2.274220        61.8847 
  87   0.0000       2.274220        61.8847 
  88   0.0000       2.281933        62.0945 
  89   0.0000       2.281933        62.0945 
  90   0.0000       2.287478        62.2454 
  91   0.0000       2.287478        62.2454 
  92   0.0000       2.290818        62.3363 
  93   0.0000       2.290818        62.3363 
  94   0.0000       2.291934        62.3667 
  95   0.0000       2.765020        75.2400 
  96   0.0000       2.765020        75.2400 
  97   0.0000       2.774534        75.4989 
  98   0.0000       2.774534        75.4989 
  99   0.0000       2.777718        75.5856 
 100   0.0000       2.862779        77.9002 
 101   0.0000       2.862779        77.9002 
 102   0.0000       2.869486        78.0827 
 103   0.0000       3.751995       102.0970 
 104   0.0000       3.948513       107.4445 
 105   0.0000       3.948513       107.4445 
 106   0.0000       3.962790       107.8330 
 107   0.0000       3.962790       107.8330 
 108   0.0000       3.971535       108.0710 
 109   0.0000       3.971535       108.0710 
 110   0.0000       3.974479       108.1511 
 111   0.0000       4.868868       132.4886 
 112   0.0000       4.868868       132.4886 
 113   0.0000       4.881813       132.8409 
 114   0.0000       4.881813       132.8409 
 115   0.0000       4.891163       133.0953 
 116   0.0000       4.891163       133.0953 
 117   0.0000       4.896813       133.2491 
 118   0.0000       4.896813       133.2491 
 119   0.0000       4.898703       133.3005 
 120   0.0000       5.152946       140.2188 
 121   0.0000       5.152946       140.2188 
 122   0.0000       5.165665       140.5649 
 123   0.0000       5.165665       140.5649 
 124   0.0000       5.175674       140.8373 
 125   0.0000       5.175674       140.8373 
 126   0.0000       5.182887       141.0335 
 127   0.0000       5.182887       141.0335 
 128   0.0000       5.187240       141.1520 
 129   0.0000       5.187240       141.1520 
 130   0.0000       5.188695       141.1916 
 131   0.0000       7.055380       191.9866 
 132   0.0000       7.055380       191.9866 
 133   0.0000       7.070889       192.4087 
 134   0.0000       7.070889       192.4087 
 135   0.0000       7.076175       192.5525 
 136   0.0000      11.440670       311.3165 
 137   0.0000      11.440670       311.3165 
 138   0.0000      11.447730       311.5086 
 139   0.0000      19.739905       537.1501 

                    ********************************
                    * MULLIKEN POPULATION ANALYSIS *
                    ********************************

--------------------------------------------
MULLIKEN ATOMIC CHARGES AND SPIN POPULATIONS
--------------------------------------------
   0 Se:   -0.000000    2.000000
Sum of atomic charges         :   -0.0000000
Sum of atomic spin populations:    2.0000000

-----------------------------------------------------
MULLIKEN REDUCED ORBITAL CHARGES AND SPIN POPULATIONS
-----------------------------------------------------
CHARGE
  0 Ses       :     7.995321  s :     7.995321
      pz      :     4.999519  p :    15.997869
      px      :     5.031322
      py      :     5.967028
      dz2     :     2.001168  d :    10.004668
      dxz     :     1.999999
      dyz     :     1.999998
      dx2y2   :     2.003073
      dxy     :     2.000431
      f0      :     0.000208  f :     0.002131
      f+1     :     0.000046
      f-1     :     0.000372
      f+2     :     0.000304
      f-2     :     0.000043
      f+3     :     0.000551
      f-3     :     0.000607
      g0      :     0.000001  g :     0.000011
      g+1     :     0.000000
      g-1     :     0.000001
      g+2     :     0.000001
      g-2     :     0.000000
      g+3     :     0.000001
      g-3     :     0.000001
      g+4     :     0.000002
      g-4     :     0.000002
      h0      :     0.000000  h :     0.000000
      h+1     :     0.000000
      h-1     :     0.000000
      h+2     :     0.000000
      h-2     :     0.000000
      h+3     :     0.000000
      h-3     :     0.000000
      h+4     :     0.000000
      h-4     :     0.000000
      h+5     :     0.000000
      h-5     :     0.000000

SPIN
  0 Ses       :     0.001765  s :     0.001765
      pz      :     0.999372  p :     1.998010
      px      :     0.967544
      py      :     0.031094
      dz2     :    -0.000442  d :    -0.001773
      dxz     :    -0.000001
      dyz     :    -0.000002
      dx2y2   :    -0.001162
      dxy     :    -0.000165
      f0      :     0.000208  f :     0.001990
      f+1     :     0.000044
      f-1     :     0.000321
      f+2     :     0.000304
      f-2     :     0.000043
      f+3     :     0.000528
      f-3     :     0.000543
      g0      :     0.000001  g :     0.000009
      g+1     :     0.000000
      g-1     :     0.000001
      g+2     :     0.000001
      g-2     :     0.000000
      g+3     :     0.000001
      g-3     :     0.000001
      g+4     :     0.000002
      g-4     :     0.000002
      h0      :     0.000000  h :     0.000000
      h+1     :     0.000000
      h-1     :     0.000000
      h+2     :     0.000000
      h-2     :     0.000000
      h+3     :     0.000000
      h-3     :     0.000000
      h+4     :     0.000000
      h-4     :     0.000000
      h+5     :     0.000000
      h-5     :     0.000000


                     *******************************
                     * LOEWDIN POPULATION ANALYSIS *
                     *******************************

-------------------------------------------
LOEWDIN ATOMIC CHARGES AND SPIN POPULATIONS
-------------------------------------------
   0 Se:    0.000000    2.000000

----------------------------------------------------
LOEWDIN REDUCED ORBITAL CHARGES AND SPIN POPULATIONS
----------------------------------------------------
CHARGE
  0 Ses       :     7.995321  s :     7.995321
      pz      :     4.999519  p :    15.997869
      px      :     5.031322
      py      :     5.967028
      dz2     :     2.001168  d :    10.004668
      dxz     :     1.999999
      dyz     :     1.999998
      dx2y2   :     2.003073
      dxy     :     2.000431
      f0      :     0.000208  f :     0.002131
      f+1     :     0.000046
      f-1     :     0.000372
      f+2     :     0.000304
      f-2     :     0.000043
      f+3     :     0.000551
      f-3     :     0.000607
      g0      :     0.000001  g :     0.000011
      g+1     :     0.000000
      g-1     :     0.000001
      g+2     :     0.000001
      g-2     :     0.000000
      g+3     :     0.000001
      g-3     :     0.000001
      g+4     :     0.000002
      g-4     :     0.000002
      h0      :     0.000000  h :     0.000000
      h+1     :     0.000000
      h-1     :     0.000000
      h+2     :     0.000000
      h-2     :     0.000000
      h+3     :     0.000000
      h-3     :     0.000000
      h+4     :     0.000000
      h-4     :     0.000000
      h+5     :     0.000000
      h-5     :     0.000000

SPIN
  0 Ses       :     0.001765  s :     0.001765
      pz      :     0.999372  p :     1.998010
      px      :     0.967544
      py      :     0.031094
      dz2     :    -0.000442  d :    -0.001773
      dxz     :    -0.000001
      dyz     :    -0.000002
      dx2y2   :    -0.001162
      dxy     :    -0.000165
      f0      :     0.000208  f :     0.001990
      f+1     :     0.000044
      f-1     :     0.000321
      f+2     :     0.000304
      f-2     :     0.000043
      f+3     :     0.000528
      f-3     :     0.000543
      g0      :     0.000001  g :     0.000009
      g+1     :     0.000000
      g-1     :     0.000001
      g+2     :     0.000001
      g-2     :     0.000000
      g+3     :     0.000001
      g-3     :     0.000001
      g+4     :     0.000002
      g-4     :     0.000002
      h0      :     0.000000  h :     0.000000
      h+1     :     0.000000
      h-1     :     0.000000
      h+2     :     0.000000
      h-2     :     0.000000
      h+3     :     0.000000
      h-3     :     0.000000
      h+4     :     0.000000
      h-4     :     0.000000
      h+5     :     0.000000
      h-5     :     0.000000


                      *****************************
                      * MAYER POPULATION ANALYSIS *
                      *****************************

  NA   - Mulliken gross atomic population
  ZA   - Total nuclear charge
  QA   - Mulliken gross atomic charge
  VA   - Mayer's total valence
  BVA  - Mayer's bonded valence
  FA   - Mayer's free valence

  ATOM       NA         ZA         QA         VA         BVA        FA
  0 Se    34.0000    34.0000     0.0000     2.0234     0.0000     2.0234

  Mayer bond orders larger than 0.100000


-------
TIMINGS
-------

Total SCF time: 0 days 0 hours 0 min 22 sec 

Total time                  ....      22.415 sec
Sum of individual times     ....      21.933 sec  ( 97.8%)

Fock matrix formation       ....      21.660 sec  ( 96.6%)
Diagonalization             ....       0.056 sec  (  0.3%)
Density matrix formation    ....       0.008 sec  (  0.0%)
Population analysis         ....       0.006 sec  (  0.0%)
Initial guess               ....       0.153 sec  (  0.7%)
Orbital Transformation      ....       0.000 sec  (  0.0%)
Orbital Orthonormalization  ....       0.000 sec  (  0.0%)
DIIS solution               ....       0.027 sec  (  0.1%)


           ************************************************************
           *        Program running with 24 parallel MPI-processes    *
           *              working on a common directory               *
           ************************************************************


------------------------------------------------------------------------------- 
                              ORCA-MATRIX DRIVEN CI                            
------------------------------------------------------------------------------- 

--------------------------------
AUTOMATIC CHOICE OF INCORE LEVEL
--------------------------------

Memory available                           ...   2500.00 MB
Memory needed for S+T                      ...     15.33 MB
Memory needed for J+K                      ...     30.74 MB
Memory needed for DIIS                     ...    214.62 MB
Memory needed for 3-ext                    ...    124.68 MB
Memory needed for 4-ext                    ...    852.01 MB
Memory needed for triples                  ...     69.27 MB
 -> Final InCoreLevel    ... 5
 -> check shows that triples correction can be computed


Wavefunction type
-----------------
Correlation treatment                      ...      CCSD     
Single excitations                         ... ON
Orbital optimization                       ... OFF
Calculation of Z vector                    ... OFF
Calculation of Brueckner orbitals          ... OFF
Perturbative triple excitations            ... ON
Calculation of F12 correction              ... OFF
Frozen core treatment                      ... chemical core (18 el)
Reference Wavefunction                     ... UHF
  Alpha-MOs occ    :     9 ...   17 (  9 MO's/  9 electrons)
  Beta-MOs occ     :     9 ...   15 (  7 MO's/  7 electrons)
  Alpha-MOs virt   :    18 ...  139 (122 MO's              )
  Beta-MOs virt    :    16 ...  139 (124 MO's              )
Number of AO's                             ...    140
Number of electrons                        ...     34
Number of correlated electrons             ...     16

Algorithmic settings
--------------------
Integral transformation                    ... AO direct full transformation
K(C) Formation                             ... FULL-MO TRAFO
Maximum number of iterations               ...        50
Convergence tolerance (max. residuum)      ... 1.000e-05
Level shift for amplitude update           ... 2.000e-01
Maximum number of DIIS vectors             ...         7
DIIS turned on at iteration                ...         0
Damping before turning on DIIS             ...     0.500
Damping after turning on DIIS              ...     0.000
Pair specific amplitude update             ... OFF
Natural orbital iterations                 ... OFF
Perturbative natural orbital generation    ... OFF
Printlevel                                 ... 2

Memory handling:
----------------
Maximum memory for working arrays          ...   2500 MB
Data storage in matrix containers          ... UNCOMPRESSED
Data type for integral storage             ... DOUBLE
In-Core Storage of quantities:
   Amplitudes+Sigma Vector      ... YES
   J+K operators                ... YES
   DIIS vectors                 ... YES
   3-external integrals         ... YES
   4-external integrals         ... YES


Initializing the integral package          ... done
Warning: reference  - re-canonicalizations have been set to INT 1 VIRT 1

--------------------------
UNRESTRICTED FOCK OPERATOR
--------------------------

<ss|ss>:         1035 b            0 skpd (  0.0%)    0.069 s ( 0.067 ms/b)
<ss|sp>:         3240 b            0 skpd (  0.0%)    0.338 s ( 0.104 ms/b)
<ss|sd>:         2430 b            4 skpd (  0.2%)    0.165 s ( 0.068 ms/b)
<ss|sf>:         1620 b           15 skpd (  0.9%)    0.018 s ( 0.011 ms/b)
<ss|sg>:         1215 b           26 skpd (  2.1%)    0.023 s ( 0.019 ms/b)
<ss|sh>:          810 b           18 skpd (  2.2%)    0.023 s ( 0.030 ms/b)
<ss|pp>:         1620 b            0 skpd (  0.0%)    0.173 s ( 0.107 ms/b)
<ss|pd>:         2160 b            1 skpd (  0.0%)    0.138 s ( 0.064 ms/b)
<ss|pf>:         1440 b            4 skpd (  0.3%)    0.016 s ( 0.011 ms/b)
<ss|pg>:         1080 b            7 skpd (  0.6%)    0.020 s ( 0.018 ms/b)
<ss|ph>:          720 b            4 skpd (  0.6%)    0.025 s ( 0.035 ms/b)
<ss|dd>:          945 b            0 skpd (  0.0%)    0.105 s ( 0.111 ms/b)
<ss|df>:         1080 b            0 skpd (  0.0%)    0.015 s ( 0.014 ms/b)
<ss|dg>:          810 b            0 skpd (  0.0%)    0.021 s ( 0.026 ms/b)
<ss|dh>:          540 b            0 skpd (  0.0%)    0.027 s ( 0.049 ms/b)
<ss|ff>:          450 b            0 skpd (  0.0%)    0.002 s ( 0.005 ms/b)
<ss|fg>:          540 b            0 skpd (  0.0%)    0.003 s ( 0.006 ms/b)
<ss|fh>:          360 b            0 skpd (  0.0%)    0.004 s ( 0.012 ms/b)
<ss|gg>:          270 b            0 skpd (  0.0%)    0.005 s ( 0.017 ms/b)
<ss|gh>:          270 b            0 skpd (  0.0%)    0.006 s ( 0.023 ms/b)
<ss|hh>:          135 b            0 skpd (  0.0%)    0.008 s ( 0.059 ms/b)
<sp|sp>:         2628 b            2 skpd (  0.1%)    0.214 s ( 0.081 ms/b)
<sp|sd>:         3888 b           43 skpd (  1.1%)    0.173 s ( 0.045 ms/b)
<sp|sf>:         2592 b           76 skpd (  2.9%)    0.020 s ( 0.008 ms/b)
<sp|sg>:         1944 b          190 skpd (  9.8%)    0.026 s ( 0.015 ms/b)
<sp|sh>:         1296 b          138 skpd ( 10.6%)    0.031 s ( 0.026 ms/b)
<sp|pp>:         2592 b            1 skpd (  0.0%)    0.156 s ( 0.060 ms/b)
<sp|pd>:         3456 b            8 skpd (  0.2%)    0.144 s ( 0.042 ms/b)
<sp|pf>:         2304 b           14 skpd (  0.6%)    0.021 s ( 0.009 ms/b)
<sp|pg>:         1728 b           22 skpd (  1.3%)    0.028 s ( 0.016 ms/b)
<sp|ph>:         1152 b           18 skpd (  1.6%)    0.039 s ( 0.035 ms/b)
<sp|dd>:         1512 b            0 skpd (  0.0%)    0.141 s ( 0.093 ms/b)
<sp|df>:         1728 b            2 skpd (  0.1%)    0.022 s ( 0.013 ms/b)
<sp|dg>:         1296 b           17 skpd (  1.3%)    0.031 s ( 0.025 ms/b)
<sp|dh>:          864 b            4 skpd (  0.5%)    0.043 s ( 0.050 ms/b)
<sp|ff>:          720 b            0 skpd (  0.0%)    0.004 s ( 0.006 ms/b)
<sp|fg>:          864 b            0 skpd (  0.0%)    0.006 s ( 0.007 ms/b)
<sp|fh>:          576 b            0 skpd (  0.0%)    0.008 s ( 0.014 ms/b)
<sp|gg>:          432 b            8 skpd (  1.9%)    0.008 s ( 0.019 ms/b)
<sp|gh>:          432 b            6 skpd (  1.4%)    0.011 s ( 0.026 ms/b)
<sp|hh>:          216 b            3 skpd (  1.4%)    0.014 s ( 0.068 ms/b)
<sd|sd>:         1485 b           26 skpd (  1.8%)    0.066 s ( 0.045 ms/b)
<sd|sf>:         1944 b          101 skpd (  5.2%)    0.011 s ( 0.006 ms/b)
<sd|sg>:         1458 b          100 skpd (  6.9%)    0.015 s ( 0.011 ms/b)
<sd|sh>:          972 b           69 skpd (  7.1%)    0.026 s ( 0.029 ms/b)
<sd|pp>:         1944 b           10 skpd (  0.5%)    0.074 s ( 0.038 ms/b)
<sd|pd>:         2592 b           56 skpd (  2.2%)    0.086 s ( 0.034 ms/b)
<sd|pf>:         1728 b           45 skpd (  2.6%)    0.014 s ( 0.008 ms/b)
<sd|pg>:         1296 b           90 skpd (  6.9%)    0.022 s ( 0.018 ms/b)
<sd|ph>:          864 b           61 skpd (  7.1%)    0.033 s ( 0.041 ms/b)
<sd|dd>:         1134 b            5 skpd (  0.4%)    0.094 s ( 0.083 ms/b)
<sd|df>:         1296 b           22 skpd (  1.7%)    0.018 s ( 0.014 ms/b)
<sd|dg>:          972 b           17 skpd (  1.7%)    0.029 s ( 0.030 ms/b)
<sd|dh>:          648 b           16 skpd (  2.5%)    0.041 s ( 0.065 ms/b)
<sd|ff>:          540 b            4 skpd (  0.7%)    0.004 s ( 0.008 ms/b)
<sd|fg>:          648 b           26 skpd (  4.0%)    0.006 s ( 0.009 ms/b)
<sd|fh>:          432 b           20 skpd (  4.6%)    0.008 s ( 0.019 ms/b)
<sd|gg>:          324 b           11 skpd (  3.4%)    0.008 s ( 0.027 ms/b)
<sd|gh>:          324 b           12 skpd (  3.7%)    0.011 s ( 0.036 ms/b)
<sd|hh>:          162 b            6 skpd (  3.7%)    0.015 s ( 0.093 ms/b)
<sf|sf>:          666 b           96 skpd ( 14.4%)    0.004 s ( 0.007 ms/b)
<sf|sg>:          972 b          188 skpd ( 19.3%)    0.007 s ( 0.009 ms/b)
<sf|sh>:          648 b          132 skpd ( 20.4%)    0.012 s ( 0.023 ms/b)
<sf|pp>:         1296 b           20 skpd (  1.5%)    0.037 s ( 0.029 ms/b)
<sf|pd>:         1728 b           73 skpd (  4.2%)    0.048 s ( 0.029 ms/b)
<sf|pf>:         1152 b           67 skpd (  5.8%)    0.008 s ( 0.007 ms/b)
<sf|pg>:          864 b           91 skpd ( 10.5%)    0.014 s ( 0.019 ms/b)
<sf|ph>:          576 b           72 skpd ( 12.5%)    0.022 s ( 0.044 ms/b)
<sf|dd>:          756 b           21 skpd (  2.8%)    0.060 s ( 0.081 ms/b)
<sf|df>:          864 b           56 skpd (  6.5%)    0.011 s ( 0.014 ms/b)
<sf|dg>:          648 b           60 skpd (  9.3%)    0.020 s ( 0.033 ms/b)
<sf|dh>:          432 b           46 skpd ( 10.6%)    0.024 s ( 0.063 ms/b)
<sf|ff>:          360 b           14 skpd (  3.9%)    0.003 s ( 0.008 ms/b)
<sf|fg>:          432 b           24 skpd (  5.6%)    0.004 s ( 0.010 ms/b)
<sf|fh>:          288 b           20 skpd (  6.9%)    0.006 s ( 0.022 ms/b)
<sf|gg>:          216 b           30 skpd ( 13.9%)    0.005 s ( 0.029 ms/b)
<sf|gh>:          216 b           31 skpd ( 14.4%)    0.006 s ( 0.034 ms/b)
<sf|hh>:          108 b           15 skpd ( 13.9%)    0.008 s ( 0.090 ms/b)
<sg|sg>:          378 b           81 skpd ( 21.4%)    0.009 s ( 0.029 ms/b)
<sg|sh>:          486 b          108 skpd ( 22.2%)    0.018 s ( 0.048 ms/b)
<sg|pp>:          972 b           29 skpd (  3.0%)    0.053 s ( 0.056 ms/b)
<sg|pd>:         1296 b          151 skpd ( 11.7%)    0.065 s ( 0.057 ms/b)
<sg|pf>:          864 b           93 skpd ( 10.8%)    0.011 s ( 0.014 ms/b)
<sg|pg>:          648 b          165 skpd ( 25.5%)    0.014 s ( 0.030 ms/b)
<sg|ph>:          432 b          101 skpd ( 23.4%)    0.023 s ( 0.070 ms/b)
<sg|dd>:          567 b           26 skpd (  4.6%)    0.088 s ( 0.163 ms/b)
<sg|df>:          648 b           70 skpd ( 10.8%)    0.017 s ( 0.029 ms/b)
<sg|dg>:          486 b           55 skpd ( 11.3%)    0.027 s ( 0.063 ms/b)
<sg|dh>:          324 b           38 skpd ( 11.7%)    0.040 s ( 0.140 ms/b)
<sg|ff>:          270 b           23 skpd (  8.5%)    0.004 s ( 0.016 ms/b)
<sg|fg>:          324 b           58 skpd ( 17.9%)    0.005 s ( 0.018 ms/b)
<sg|fh>:          216 b           40 skpd ( 18.5%)    0.006 s ( 0.032 ms/b)
<sg|gg>:          162 b           24 skpd ( 14.8%)    0.008 s ( 0.056 ms/b)
<sg|gh>:          162 b           29 skpd ( 17.9%)    0.009 s ( 0.071 ms/b)
<sg|hh>:           81 b           12 skpd ( 14.8%)    0.012 s ( 0.178 ms/b)
<sh|sh>:          171 b           37 skpd ( 21.6%)    0.019 s ( 0.142 ms/b)
<sh|pp>:          648 b           21 skpd (  3.2%)    0.069 s ( 0.109 ms/b)
<sh|pd>:          864 b          109 skpd ( 12.6%)    0.085 s ( 0.113 ms/b)
<sh|pf>:          576 b           69 skpd ( 12.0%)    0.014 s ( 0.028 ms/b)
<sh|pg>:          432 b           99 skpd ( 22.9%)    0.023 s ( 0.069 ms/b)
<sh|ph>:          288 b           86 skpd ( 29.9%)    0.025 s ( 0.122 ms/b)
<sh|dd>:          378 b           19 skpd (  5.0%)    0.122 s ( 0.339 ms/b)
<sh|df>:          432 b           53 skpd ( 12.3%)    0.019 s ( 0.051 ms/b)
<sh|dg>:          324 b           39 skpd ( 12.0%)    0.031 s ( 0.109 ms/b)
<sh|dh>:          216 b           27 skpd ( 12.5%)    0.045 s ( 0.237 ms/b)
<sh|ff>:          180 b           17 skpd (  9.4%)    0.005 s ( 0.028 ms/b)
<sh|fg>:          216 b           45 skpd ( 20.8%)    0.005 s ( 0.031 ms/b)
<sh|fh>:          144 b           30 skpd ( 20.8%)    0.007 s ( 0.060 ms/b)
<sh|gg>:          108 b           19 skpd ( 17.6%)    0.009 s ( 0.102 ms/b)
<sh|gh>:          108 b           21 skpd ( 19.4%)    0.010 s ( 0.119 ms/b)
<sh|hh>:           54 b           19 skpd ( 35.2%)    0.008 s ( 0.240 ms/b)
<pp|pp>:          666 b            0 skpd (  0.0%)    0.079 s ( 0.119 ms/b)
<pp|pd>:         1728 b            0 skpd (  0.0%)    0.094 s ( 0.055 ms/b)
<pp|pf>:         1152 b            0 skpd (  0.0%)    0.017 s ( 0.014 ms/b)
<pp|pg>:          864 b            0 skpd (  0.0%)    0.023 s ( 0.027 ms/b)
<pp|ph>:          576 b            0 skpd (  0.0%)    0.041 s ( 0.070 ms/b)
<pp|dd>:          756 b            0 skpd (  0.0%)    0.095 s ( 0.126 ms/b)
<pp|df>:          864 b            0 skpd (  0.0%)    0.019 s ( 0.022 ms/b)
<pp|dg>:          648 b            0 skpd (  0.0%)    0.029 s ( 0.045 ms/b)
<pp|dh>:          432 b            0 skpd (  0.0%)    0.043 s ( 0.100 ms/b)
<pp|ff>:          360 b            0 skpd (  0.0%)    0.004 s ( 0.011 ms/b)
<pp|fg>:          432 b            0 skpd (  0.0%)    0.006 s ( 0.014 ms/b)
<pp|fh>:          288 b            0 skpd (  0.0%)    0.008 s ( 0.028 ms/b)
<pp|gg>:          216 b            0 skpd (  0.0%)    0.009 s ( 0.042 ms/b)
<pp|gh>:          216 b            0 skpd (  0.0%)    0.012 s ( 0.054 ms/b)
<pp|hh>:          108 b            0 skpd (  0.0%)    0.017 s ( 0.156 ms/b)
<pd|pd>:         1176 b            0 skpd (  0.0%)    0.083 s ( 0.070 ms/b)
<pd|pf>:         1536 b            5 skpd (  0.3%)    0.017 s ( 0.011 ms/b)
<pd|pg>:         1152 b            5 skpd (  0.4%)    0.029 s ( 0.026 ms/b)
<pd|ph>:          768 b            6 skpd (  0.8%)    0.047 s ( 0.061 ms/b)
<pd|dd>:         1008 b            0 skpd (  0.0%)    0.107 s ( 0.106 ms/b)
<pd|df>:         1152 b            0 skpd (  0.0%)    0.023 s ( 0.020 ms/b)
<pd|dg>:          864 b            1 skpd (  0.1%)    0.037 s ( 0.043 ms/b)
<pd|dh>:          576 b            1 skpd (  0.2%)    0.055 s ( 0.096 ms/b)
<pd|ff>:          480 b            0 skpd (  0.0%)    0.006 s ( 0.012 ms/b)
<pd|fg>:          576 b            1 skpd (  0.2%)    0.009 s ( 0.015 ms/b)
<pd|fh>:          384 b            1 skpd (  0.3%)    0.012 s ( 0.032 ms/b)
<pd|gg>:          288 b            3 skpd (  1.0%)    0.013 s ( 0.044 ms/b)
<pd|gh>:          288 b            6 skpd (  2.1%)    0.017 s ( 0.059 ms/b)
<pd|hh>:          144 b            4 skpd (  2.8%)    0.023 s ( 0.161 ms/b)
<pf|pf>:          528 b            1 skpd (  0.2%)    0.008 s ( 0.015 ms/b)
<pf|pg>:          768 b            5 skpd (  0.7%)    0.017 s ( 0.022 ms/b)
<pf|ph>:          512 b            3 skpd (  0.6%)    0.029 s ( 0.057 ms/b)
<pf|dd>:          672 b            0 skpd (  0.0%)    0.059 s ( 0.088 ms/b)
<pf|df>:          768 b            6 skpd (  0.8%)    0.014 s ( 0.019 ms/b)
<pf|dg>:          576 b            9 skpd (  1.6%)    0.022 s ( 0.040 ms/b)
<pf|dh>:          384 b           15 skpd (  3.9%)    0.030 s ( 0.080 ms/b)
<pf|ff>:          320 b            0 skpd (  0.0%)    0.005 s ( 0.014 ms/b)
<pf|fg>:          384 b            1 skpd (  0.3%)    0.006 s ( 0.016 ms/b)
<pf|fh>:          256 b            1 skpd (  0.4%)    0.009 s ( 0.034 ms/b)
<pf|gg>:          192 b            3 skpd (  1.6%)    0.009 s ( 0.046 ms/b)
<pf|gh>:          192 b            6 skpd (  3.1%)    0.011 s ( 0.061 ms/b)
<pf|hh>:           96 b            0 skpd (  0.0%)    0.016 s ( 0.169 ms/b)
<pg|pg>:          300 b            3 skpd (  1.0%)    0.023 s ( 0.076 ms/b)
<pg|ph>:          384 b            5 skpd (  1.3%)    0.041 s ( 0.108 ms/b)
<pg|dd>:          504 b            3 skpd (  0.6%)    0.092 s ( 0.183 ms/b)
<pg|df>:          576 b           12 skpd (  2.1%)    0.021 s ( 0.037 ms/b)
<pg|dg>:          432 b           23 skpd (  5.3%)    0.032 s ( 0.079 ms/b)
<pg|dh>:          288 b           14 skpd (  4.9%)    0.048 s ( 0.174 ms/b)
<pg|ff>:          240 b            1 skpd (  0.4%)    0.005 s ( 0.021 ms/b)
<pg|fg>:          288 b            9 skpd (  3.1%)    0.008 s ( 0.029 ms/b)
<pg|fh>:          192 b            8 skpd (  4.2%)    0.011 s ( 0.057 ms/b)
<pg|gg>:          144 b            9 skpd (  6.2%)    0.011 s ( 0.082 ms/b)
<pg|gh>:          144 b           12 skpd (  8.3%)    0.013 s ( 0.101 ms/b)
<pg|hh>:           72 b            7 skpd (  9.7%)    0.017 s ( 0.268 ms/b)
<ph|ph>:          136 b            2 skpd (  1.5%)    0.041 s ( 0.306 ms/b)
<ph|dd>:          336 b            1 skpd (  0.3%)    0.117 s ( 0.350 ms/b)
<ph|df>:          384 b           21 skpd (  5.5%)    0.020 s ( 0.056 ms/b)
<ph|dg>:          288 b           16 skpd (  5.6%)    0.038 s ( 0.139 ms/b)
<ph|dh>:          192 b           28 skpd ( 14.6%)    0.039 s ( 0.238 ms/b)
<ph|ff>:          160 b            0 skpd (  0.0%)    0.006 s ( 0.035 ms/b)
<ph|fg>:          192 b            6 skpd (  3.1%)    0.009 s ( 0.046 ms/b)
<ph|fh>:          128 b            5 skpd (  3.9%)    0.012 s ( 0.095 ms/b)
<ph|gg>:           96 b            8 skpd (  8.3%)    0.012 s ( 0.135 ms/b)
<ph|gh>:           96 b           12 skpd ( 12.5%)    0.013 s ( 0.152 ms/b)
<ph|hh>:           48 b            6 skpd ( 12.5%)    0.018 s ( 0.423 ms/b)
<dd|dd>:          231 b            0 skpd (  0.0%)    0.049 s ( 0.210 ms/b)
<dd|df>:          504 b            0 skpd (  0.0%)    0.011 s ( 0.023 ms/b)
<dd|dg>:          378 b            0 skpd (  0.0%)    0.018 s ( 0.049 ms/b)
<dd|dh>:          252 b            0 skpd (  0.0%)    0.028 s ( 0.112 ms/b)
<dd|ff>:          210 b            0 skpd (  0.0%)    0.003 s ( 0.016 ms/b)
<dd|fg>:          252 b            0 skpd (  0.0%)    0.005 s ( 0.020 ms/b)
<dd|fh>:          168 b            0 skpd (  0.0%)    0.007 s ( 0.041 ms/b)
<dd|gg>:          126 b            0 skpd (  0.0%)    0.007 s ( 0.057 ms/b)
<dd|gh>:          126 b            0 skpd (  0.0%)    0.010 s ( 0.078 ms/b)
<dd|hh>:           63 b            0 skpd (  0.0%)    0.013 s ( 0.211 ms/b)
<df|df>:          300 b            0 skpd (  0.0%)    0.007 s ( 0.022 ms/b)
<df|dg>:          432 b            0 skpd (  0.0%)    0.015 s ( 0.035 ms/b)
<df|dh>:          288 b            0 skpd (  0.0%)    0.023 s ( 0.078 ms/b)
<df|ff>:          240 b            0 skpd (  0.0%)    0.004 s ( 0.018 ms/b)
<df|fg>:          288 b            0 skpd (  0.0%)    0.006 s ( 0.020 ms/b)
<df|fh>:          192 b            0 skpd (  0.0%)    0.008 s ( 0.040 ms/b)
<df|gg>:          144 b            0 skpd (  0.0%)    0.008 s ( 0.057 ms/b)
<df|gh>:          144 b            0 skpd (  0.0%)    0.011 s ( 0.077 ms/b)
<df|hh>:           72 b            0 skpd (  0.0%)    0.015 s ( 0.210 ms/b)
<dg|dg>:          171 b            0 skpd (  0.0%)    0.013 s ( 0.074 ms/b)
<dg|dh>:          216 b            0 skpd (  0.0%)    0.028 s ( 0.132 ms/b)
<dg|ff>:          180 b            0 skpd (  0.0%)    0.004 s ( 0.023 ms/b)
<dg|fg>:          216 b            0 skpd (  0.0%)    0.007 s ( 0.030 ms/b)
<dg|fh>:          144 b            0 skpd (  0.0%)    0.008 s ( 0.058 ms/b)
<dg|gg>:          108 b            0 skpd (  0.0%)    0.010 s ( 0.095 ms/b)
<dg|gh>:          108 b            0 skpd (  0.0%)    0.013 s ( 0.124 ms/b)
<dg|hh>:           54 b            0 skpd (  0.0%)    0.017 s ( 0.324 ms/b)
<dh|dh>:           78 b            0 skpd (  0.0%)    0.019 s ( 0.240 ms/b)
<dh|ff>:          120 b            0 skpd (  0.0%)    0.004 s ( 0.035 ms/b)
<dh|fg>:          144 b            0 skpd (  0.0%)    0.006 s ( 0.043 ms/b)
<dh|fh>:           96 b            0 skpd (  0.0%)    0.009 s ( 0.095 ms/b)
<dh|gg>:           72 b            0 skpd (  0.0%)    0.009 s ( 0.126 ms/b)
<dh|gh>:           72 b            0 skpd (  0.0%)    0.013 s ( 0.185 ms/b)
<dh|hh>:           36 b            4 skpd ( 11.1%)    0.015 s ( 0.474 ms/b)
<ff|ff>:           55 b            0 skpd (  0.0%)    0.002 s ( 0.034 ms/b)
<ff|fg>:          120 b            0 skpd (  0.0%)    0.003 s ( 0.026 ms/b)
<ff|fh>:           80 b            0 skpd (  0.0%)    0.004 s ( 0.053 ms/b)
<ff|gg>:           60 b            0 skpd (  0.0%)    0.004 s ( 0.074 ms/b)
<ff|gh>:           60 b            0 skpd (  0.0%)    0.006 s ( 0.105 ms/b)
<ff|hh>:           30 b            0 skpd (  0.0%)    0.009 s ( 0.289 ms/b)
<fg|fg>:           78 b            0 skpd (  0.0%)    0.005 s ( 0.070 ms/b)
<fg|fh>:           96 b            0 skpd (  0.0%)    0.008 s ( 0.081 ms/b)
<fg|gg>:           72 b            0 skpd (  0.0%)    0.009 s ( 0.126 ms/b)
<fg|gh>:           72 b            0 skpd (  0.0%)    0.012 s ( 0.171 ms/b)
<fg|hh>:           36 b            0 skpd (  0.0%)    0.016 s ( 0.458 ms/b)
<fh|fh>:           36 b            0 skpd (  0.0%)    0.007 s ( 0.200 ms/b)
<fh|gg>:           48 b            0 skpd (  0.0%)    0.008 s ( 0.158 ms/b)
<fh|gh>:           48 b            0 skpd (  0.0%)    0.012 s ( 0.252 ms/b)
<fh|hh>:           24 b            0 skpd (  0.0%)    0.017 s ( 0.692 ms/b)
<gg|gg>:           21 b            0 skpd (  0.0%)    0.007 s ( 0.320 ms/b)
<gg|gh>:           36 b            0 skpd (  0.0%)    0.012 s ( 0.320 ms/b)
<gg|hh>:           18 b            0 skpd (  0.0%)    0.015 s ( 0.807 ms/b)
<gh|gh>:           21 b            0 skpd (  0.0%)    0.015 s ( 0.727 ms/b)
<gh|hh>:           18 b            0 skpd (  0.0%)    0.022 s ( 1.244 ms/b)
<hh|hh>:            6 b            0 skpd (  0.0%)    0.019 s ( 3.115 ms/b)
Recanonicalizing the internal orbitals
Recanonicalizing the virtual orbitals
Time needed for Fock operator              ...            6.639 sec
Reference energy                           ...  -2399.875715478
Warning: for UHF the TrafoType has to be JK
Warning: for UHF the K(C)-option cannot be MO but must be AOX

-------------------------------
PARTIAL EXCHANGE TRANSFORMATION
-------------------------------

Transformation type                        ... two-operators
Generation of integrals (i,mue|j,nue)      ... ON
Generation of integrals (mue,kappa|nue,tau)... ON
Generation of integrals (i,mue|a,nue)      ... ON
Dimension of the basis                     ...  140
Number of internal alpha-MOs               ...    9 (   9-  17)
Number of internal beta-MOs                ...    7 (   9-  15)
Number of external alpha-MOs               ...  122 (  18- 139)
Number of external beta-MOs                ...  124 (  16- 139)
Pair cutoff                                ... 0.000e+00 Eh
Number of AO pairs in the trafo            ... 9870
Total Number of distinct AO pairs          ... 9870
Memory devoted for trafo                   ... 2500.0 MB 
Max. Number of MO pairs treated together   ... 16718      
Number Format for Storage                  ... Double (8 Byte)
Integral package used                      ... LIBINT

Starting integral evaluation:
    ... done with AO integral generation
Closing buffer AOK[aa] ( 0.00 GB; CompressionRatio= 0.98)
Closing buffer AOK[bb] ( 0.00 GB; CompressionRatio= 0.97)
Closing buffer AOK[ab] ( 0.00 GB; CompressionRatio= 0.98)
Closing buffer AOK[ba] ( 0.00 GB; CompressionRatio= 0.98)
Collecting buffer AOK 
Closing buffer IAAO1[aa] ( 0.00 GB; CompressionRatio= 1.00)
Closing buffer IAAO1[bb] ( 0.00 GB; CompressionRatio= 1.00)
Closing buffer IAAO1[ab] ( 0.00 GB; CompressionRatio= 1.00)
Closing buffer IAAO1[ba] ( 0.00 GB; CompressionRatio= 1.00)
Closing buffer IAAO2[aa] ( 0.00 GB; CompressionRatio= 1.00)
Closing buffer IAAO2[bb] ( 0.00 GB; CompressionRatio= 1.00)
Closing buffer IAAO2[ab] ( 0.00 GB; CompressionRatio= 1.00)
Closing buffer IAAO2[ba] ( 0.00 GB; CompressionRatio= 1.00)
Collecting buffer IAAO 
Closing buffer PRQS    ( 0.01 GB; CompressionRatio= 1.00)
Collecting buffer PRQS 
Number of alpha/alpha MO pairs in trafo    ...   45
Number of beta /beta  MO pairs in trafo    ...   28
Number of alpha/ beta MO pairs in trafo    ...   63
------------------------
SORTING OF (i,mue|j,nue)
------------------------

SORTING OF ALPHA/ALPHA PAIRS
IBATCH = 1 of  1
Closing buffer KAO[aa] ( 0.00 GB; CompressionRatio= 1.00)
Collecting buffer KAO 
SORTING OF BETA /BETA  PAIRS
IBATCH = 1 of  1
Closing buffer KAO[bb] ( 0.00 GB; CompressionRatio= 1.00)
Collecting buffer KAO 
SORTING OF ALPHA/BETA  PAIRS
IBATCH = 1 of  1
Closing buffer KAO[ab] ( 0.00 GB; CompressionRatio= 0.999923475244)
Collecting buffer KAO[ab] 
------------------------
SORTING OF (i,mue|a,nue)
------------------------

Number of alpha/alpha (i,a) pairs in trafo  ... 1098
Number of beta /beta  (i,a) pairs in trafo  ...  868
Number of alpha/ beta (i,a) pairs in trafo  ... 1116
Number of beta /alpha (i,a) pairs in trafo  ...  854
Setting up the alpha/alpha list             ... done
Setting up the beta /beta  list             ... done
Setting up the alpha/beta  list             ... done
Setting up the beta /alpha list             ... done
    ... Now sorting (i,mue|a,nue)integrals
    ... Integrals (i,b|a,c) will be made on the fly
SORTING OF ALPHA/ALPHA PAIRS
IBATCH = 1 of  1
Closing buffer IPAQ[aa]  0.01 GB; CompressionRatio= 1.00)
SORTING OF BETA /BETA  PAIRS
IBATCH = 1 of  1
Closing buffer IPAQ[bb]( 0.00 GB; CompressionRatio= 1.00)
SORTING OF ALPHA/BETA  PAIRS (NMatSort_ab=47)
IBATCH = 1 of  1
Closing buffer IPAQ[ab]( 0.01 GB; CompressionRatio= 1.00)
SORTING OF BETA/ALPHA  PAIRS
IBATCH = 1 of  1
Closing buffer IPAQ[ba]( 0.00 GB; CompressionRatio= 1.00)
N(AO-Batches) Done                         ...      9216 
N(AO-Batches) Skipped                      ...         0 
N(IJ)-pairs Skipped                        ...         0 
TOTAL TIME for half transformation         ...    19.036 sec
AO-integral generation                     ...     1.144 sec
Half transformation                        ...     0.022 sec
K-integral sorting                         ...     1.795 sec
<ss|**>: 
------------------------------
PARTIAL COULOMB TRANSFORMATION
------------------------------

Transformation type                        ... two-operators
Dimension of the basis                     ...  140
Number of internal alpha-MOs               ...    9 (9-17)
Number of internal beta-MOs                ...    7 (9-15)
Pair cutoff                                ... 0.000e+00 Eh
Number of AO pairs included in the trafo   ... 9870
Total Number of distinct AO pairs          ... 9870
Memory devoted for trafo                   ... 2500.0 MB 
Max. Number of MO pairs treated together   ... 33199      
Max. Number of MOs treated per batch       ...  237      
Number Format for Storage                  ... Double (8 Byte)
AO-integral source                         ... DIRECT
Integral package used                      ... LIBINT

Starting integral evaluation:
<sp|**>:        23760 b        0 skpd     1.215 s (  0.051 ms/b)
<sd|**>:        38016 b        0 skpd     1.423 s (  0.037 ms/b)
<sf|**>:        28512 b        0 skpd     0.944 s (  0.033 ms/b)
       19008 b        0 skpd     0.162 s (  0.009 ms/b)
<sg|**>:        14256 b        0 skpd     0.296 s (  0.021 ms/b)
<sh|**>:         9504 b        0 skpd     0.496 s (  0.052 ms/b)
<pp|**>:        19008 b        0 skpd     0.941 s (  0.049 ms/b)
<pd|**>:        25344 b        0 skpd     1.141 s (  0.045 ms/b)
<pf|**>:        16896 b        0 skpd     0.212 s (  0.013 ms/b)
<pg|**>:        12672 b        0 skpd     0.354 s (  0.028 ms/b)
<ph|**>:         8448 b        0 skpd     0.566 s (  0.067 ms/b)
<dd|**>:        11088 b        0 skpd     1.359 s (  0.123 ms/b)
<df|**>:        12672 b        0 skpd     0.274 s (  0.022 ms/b)
<dg|**>:         9504 b        0 skpd     0.440 s (  0.046 ms/b)
<dh|**>:         6336 b        0 skpd     0.661 s (  0.104 ms/b)
<ff|**>:         5280 b        0 skpd     0.070 s (  0.013 ms/b)
<fg|**>:         6336 b        0 skpd     0.108 s (  0.017 ms/b)
<fh|**>:         4224 b        0 skpd     0.150 s (  0.035 ms/b)
<gg|**>:         3168 b        0 skpd     0.168 s (  0.053 ms/b)
<gh|**>:         3168 b        0 skpd     0.229 s (  0.072 ms/b)
<hh|**>:         1584 b        0 skpd     0.315 s (  0.199 ms/b)
Closing buffer AOJ[aa] ( 0.00 GB; CompressionRatio= 0.97)
Closing buffer AOJ[bb] ( 0.00 GB; CompressionRatio= 0.00)
Collecting buffer AOJ 
    ... done with AO integral generation
Number of Alpha-MO pairs included          ...   45
Number of Beta-MO pairs included           ...   28
    ... Now sorting integrals
SORTING ALPHA/ALPHA PAIRS
IBATCH = 1 of  1
Closing buffer JAO[aa] ( 0.00 GB; CompressionRatio= 1.00)
SORTING BETA/BETA PAIRS
IBATCH = 1 of  1
Closing buffer JAO[bb] ( 0.00 GB; CompressionRatio= 1.00)
Collecting buffer JAO 
TOTAL TIME for half transformation         ...    11.587 sec
AO-integral generation                     ...    11.527 sec
Half transformation                        ...     0.025 sec
J-integral sorting                         ...     0.026 sec

-------------------------- SECOND HALF TRANSFORMATION -------------------------
Formation of (ij|kl),(ij|ka), (ij|ab)      ... ok (     0.064 sec)
Formation of (ik|jl),(ik|ja), (ia|jb)      ... ok (     0.100 sec)


-----------------------
SPIN UNRESTRICTED GUESS
-----------------------

Entering MDCI_UHF_Guess, Tailored=0
Spin-components of the MP2 energy:
EMP2(aa)=     -0.063407891
EMP2(bb)=     -0.037875361
EMP2(ab)=     -0.219360840

Initial guess performed in     0.041 sec
E(0)                                       ...  -2399.875715478
E(MP2)                                     ...     -0.320644092
Initial E(tot)                             ...  -2400.196359569
<T|T>                                      ...      0.066303520
Number of pairs included                   ... 120

------------------------------------------------
                  UHF COUPLED CLUSTER ITERATIONS
------------------------------------------------

Number of amplitudes to be optimized       ...      1383407

Iter       E(tot)           E(Corr)          Delta-E          Residual     Time      <S|S>**1/2
  0  -2400.196359569     -0.320644092     -0.000000000      0.024420529    4.95      0.000001715
                           *** Turning on DIIS ***
  1  -2400.187683343     -0.311967865      0.008676226      0.006615821    6.31      0.023407340
  2  -2400.194254721     -0.318539243     -0.006571378      0.003625226    6.34      0.027086652
  3  -2400.195997443     -0.320281965     -0.001742722      0.001108680    6.38      0.030895869
  4  -2400.196303194     -0.320587716     -0.000305751      0.000248475    6.42      0.031910193
  5  -2400.196333094     -0.320617617     -0.000029901      0.000071673    6.40      0.032169091
  6  -2400.196337228     -0.320621750     -0.000004134      0.000032135    6.43      0.032197983
  7  -2400.196337694     -0.320622216     -0.000000466      0.000012339    6.49      0.032193854
  8  -2400.196337694     -0.320622216     -0.000000000      0.000004382    6.39      0.032190366
               --- The Coupled-Cluster iterations have converged ---

----------------------
COUPLED CLUSTER ENERGY
----------------------

E(0)                                       ...  -2399.875715478
E(CORR)                                    ...     -0.320622216
E(TOT)                                     ...  -2400.196337694
Singles norm <S|S>**1/2                    ...      0.032190366 ( 0.015319436, 0.016870930)  
T1 diagnostic                              ...      0.008047592                              

------------------
LARGEST AMPLITUDES
------------------
  17a-> 42a  15b-> 38b       0.033895
  16a-> 35a  14b-> 17b       0.030814
  15a-> 36a  14b-> 17b       0.030814
  16a-> 36a  14b-> 16b       0.030814
  15a-> 35a  14b-> 16b       0.030814
  17a-> 40a  14b-> 17b       0.029770
  17a-> 41a  14b-> 16b       0.029770
  17a-> 41a  15b-> 40b       0.026177
  17a-> 40a  15b-> 39b       0.026177
  16a-> 35a  15a-> 36a       0.023586
  16a-> 36a  15a-> 35a       0.023586
  14b-> 38b  -1b-> -1b       0.022026
  17a-> 41a  15a-> 42a       0.021906
  17a-> 42a  15a-> 41a       0.021906
  17a-> 42a  16a-> 40a       0.021906
  17a-> 40a  16a-> 42a       0.021906

----------------------
UHF TRIPLES CORRECTION (Algorithm 1)
----------------------

Multiplier for the singles contribution    ...      1.000000000

SPIN-CASE Alpha-Alpha-Alpha:
10% done
20% done
30% done
40% done
50% done
60% done
70% done
80% done
90% done


SPIN-CASE Beta-Beta-Beta:
10% done
20% done
30% done
40% done
50% done
60% done
70% done
80% done
90% done


SPIN-CASE Alpha-Alpha-Beta:
10% done
20% done
30% done
40% done
50% done
60% done
70% done
80% done
90% done


SPIN-CASE Beta-Beta-Alpha:
10% done
20% done
30% done
40% done
50% done
60% done
70% done
80% done
90% done


Triples Correction (T)                     ...     -0.008671498
    alpha-alpha-alpha ... -0.000526038 (  6.1%)
    alpha-alpha-beta  ... -0.005347739 ( 61.7%)
    alpha-beta -beta  ... -0.002649466 ( 30.6%)
    beta -beta -beta  ... -0.000148255 (  1.7%)
Scaling of triples based on CCSD energies (Peterson et al. Molecular Physics 113, 1551 (2015))
E(T*) = f*E(T) where f = E(F12-CCSD)/E(CCSD) 
f = CCSD (with F12)/ CCSD (without F12)    ...      1.000000000
Scaled triples correction (T)              ...     -0.008671498

Final correlation energy                   ...     -0.329293714
E(CCSD)                                    ...  -2400.196337694
E(CCSD(T))                                 ...  -2400.205009192



        !!!!!!!!!!!!!!!!!!!!!!!!!!!!!!!!!!!!!!!!!!!!!!!!!!!!!!!!!!!!!!!!!!!!!!!!!! 
        !  Warning: Densities are linearized densities                           !
        !!!!!!!!!!!!!!!!!!!!!!!!!!!!!!!!!!!!!!!!!!!!!!!!!!!!!!!!!!!!!!!!!!!!!!!!!! 

NORM  =      1.080945911 sqrt=     1.039685487
W(HF) =      0.925115669
------------------------------------------------------------------------------
                           ORCA POPULATION ANALYSIS
------------------------------------------------------------------------------
Input electron density              ... 34_Se.mdcip
Input spin density                  ... 34_Se.mdcir
BaseName (.gbw .S,...)              ... 34_Se

                    ********************************
                    * MULLIKEN POPULATION ANALYSIS *
                    ********************************

------------------------------------------
MULLIKEN ATOMIC CHARGES AND SPIN DENSITIES
------------------------------------------
   0 Se:    0.000000    2.000000
Sum of atomic charges       :    0.0000000
Sum of atomic spin densities:    2.0000000

---------------------------------------------------
MULLIKEN REDUCED ORBITAL CHARGES AND SPIN DENSITIES
---------------------------------------------------
CHARGE
  0 Ses       :     7.965525  s :     7.965525
      pz      :     4.996213  p :    15.949922
      px      :     5.026806
      py      :     5.926903
      dz2     :     2.011462  d :    10.064008
      dxz     :     2.010222
      dyz     :     2.013999
      dx2y2   :     2.014189
      dxy     :     2.014136
      f0      :     0.002118  f :     0.017683
      f+1     :     0.001631
      f-1     :     0.002786
      f+2     :     0.002534
      f-2     :     0.002503
      f+3     :     0.003060
      f-3     :     0.003049
      g0      :     0.000227  g :     0.002463
      g+1     :     0.000168
      g-1     :     0.000299
      g+2     :     0.000255
      g-2     :     0.000253
      g+3     :     0.000289
      g-3     :     0.000289
      g+4     :     0.000340
      g-4     :     0.000340
      h0      :     0.000031  h :     0.000400
      h+1     :     0.000023
      h-1     :     0.000039
      h+2     :     0.000033
      h-2     :     0.000033
      h+3     :     0.000036
      h-3     :     0.000036
      h+4     :     0.000040
      h-4     :     0.000040
      h+5     :     0.000045
      h-5     :     0.000045

SPIN
  0 Ses       :     0.018785  s :     0.018785
      pz      :     0.971846  p :     1.944488
      px      :     0.940942
      py      :     0.031701
      dz2     :     0.007874  d :     0.030948
      dxz     :     0.009338
      dyz     :     0.004634
      dx2y2   :     0.004608
      dxy     :     0.004493
      f0      :     0.000658  f :     0.005726
      f+1     :     0.000466
      f-1     :     0.000920
      f+2     :     0.000821
      f-2     :     0.000807
      f+3     :     0.001029
      f-3     :     0.001025
      g0      :     0.000017  g :     0.000036
      g+1     :     0.000032
      g-1     :    -0.000003
      g+2     :     0.000009
      g-2     :     0.000007
      g+3     :    -0.000001
      g-3     :    -0.000001
      g+4     :    -0.000012
      g-4     :    -0.000012
      h0      :     0.000003  h :     0.000017
      h+1     :     0.000004
      h-1     :     0.000001
      h+2     :     0.000002
      h-2     :     0.000002
      h+3     :     0.000002
      h-3     :     0.000002
      h+4     :     0.000001
      h-4     :     0.000001
      h+5     :     0.000000
      h-5     :     0.000000


                     *******************************
                     * LOEWDIN POPULATION ANALYSIS *
                     *******************************

-----------------------------------------
LOEWDIN ATOMIC CHARGES AND SPIN DENSITIES
-----------------------------------------
   0 Se:    0.000000    2.000000

--------------------------------------------------
LOEWDIN REDUCED ORBITAL CHARGES AND SPIN DENSITIES
--------------------------------------------------
CHARGE
  0 Ses       :     7.965525  s :     7.965525
      pz      :     4.996213  p :    15.949922
      px      :     5.026806
      py      :     5.926903
      dz2     :     2.011462  d :    10.064008
      dxz     :     2.010222
      dyz     :     2.013999
      dx2y2   :     2.014189
      dxy     :     2.014136
      f0      :     0.002118  f :     0.017683
      f+1     :     0.001631
      f-1     :     0.002786
      f+2     :     0.002534
      f-2     :     0.002503
      f+3     :     0.003060
      f-3     :     0.003049
      g0      :     0.000227  g :     0.002463
      g+1     :     0.000168
      g-1     :     0.000299
      g+2     :     0.000255
      g-2     :     0.000253
      g+3     :     0.000289
      g-3     :     0.000289
      g+4     :     0.000340
      g-4     :     0.000340
      h0      :     0.000031  h :     0.000400
      h+1     :     0.000023
      h-1     :     0.000039
      h+2     :     0.000033
      h-2     :     0.000033
      h+3     :     0.000036
      h-3     :     0.000036
      h+4     :     0.000040
      h-4     :     0.000040
      h+5     :     0.000045
      h-5     :     0.000045

SPIN
  0 Ses       :     0.018785  s :     0.018785
      pz      :     0.971846  p :     1.944488
      px      :     0.940942
      py      :     0.031701
      dz2     :     0.007874  d :     0.030948
      dxz     :     0.009338
      dyz     :     0.004634
      dx2y2   :     0.004608
      dxy     :     0.004493
      f0      :     0.000658  f :     0.005726
      f+1     :     0.000466
      f-1     :     0.000920
      f+2     :     0.000821
      f-2     :     0.000807
      f+3     :     0.001029
      f-3     :     0.001025
      g0      :     0.000017  g :     0.000036
      g+1     :     0.000032
      g-1     :    -0.000003
      g+2     :     0.000009
      g-2     :     0.000007
      g+3     :    -0.000001
      g-3     :    -0.000001
      g+4     :    -0.000012
      g-4     :    -0.000012
      h0      :     0.000003  h :     0.000017
      h+1     :     0.000004
      h-1     :     0.000001
      h+2     :     0.000002
      h-2     :     0.000002
      h+3     :     0.000002
      h-3     :     0.000002
      h+4     :     0.000001
      h-4     :     0.000001
      h+5     :     0.000000
      h-5     :     0.000000


                      *****************************
                      * MAYER POPULATION ANALYSIS *
                      *****************************

  NA   - Mulliken gross atomic population
  ZA   - Total nuclear charge
  QA   - Mulliken gross atomic charge
  VA   - Mayer's total valence
  BVA  - Mayer's bonded valence
  FA   - Mayer's free valence

  ATOM       NA         ZA         QA         VA         BVA        FA
  0 Se    34.0000    34.0000     0.0000     2.5121     0.0000     2.5121





------------------------------------------------------------------------------- 
                                     TIMINGS                                   
------------------------------------------------------------------------------- 


Total execution time                   ...       98.821 sec

Fock Matrix Formation                  ...        6.639 sec (  6.7%)
Initial Guess                          ...        0.041 sec (  0.0%)
DIIS Solver                            ...        0.874 sec (  0.9%)
State Vector Update                    ...        0.046 sec (  0.0%)
Sigma-vector construction              ...       55.186 sec ( 55.8%)
  <0|H|D>                              ...        0.002 sec (  0.0% of sigma)
  <D|H|D>(0-ext Fock)                  ...        0.017 sec (  0.0% of sigma)
  <D|H|D>(0-ext)                       ...        0.055 sec (  0.1% of sigma)
  <D|H|D>(2-ext Fock)                  ...        0.007 sec (  0.0% of sigma)
  <D|H|D>(2-ext)                       ...        0.270 sec (  0.5% of sigma)
  <D|H|D>(4-ext)                       ...       11.776 sec ( 21.3% of sigma)
  <S|H|0>                              ...        0.778 sec (  1.4% of sigma)
  <S|H|S>                              ...        0.001 sec (  0.0% of sigma)
  <S|H|D>(1-ext)                       ...        0.004 sec (  0.0% of sigma)
  <D|H|S>(1-ext)                       ...        0.090 sec (  0.2% of sigma)
  Fock-dressing                        ...       38.624 sec ( 70.0% of sigma)
  (ik|jl)-dressing                     ...        0.066 sec (  0.1% of sigma)
  (ij|ab),(ia|jb)-dressing             ...        2.851 sec (  5.2% of sigma)
  Pair energies                        ...        0.003 sec (  0.0% of sigma)
Total Time for computing (T)           ...        4.395 sec (  4.4% of ALL)
  I/O of integral and amplitudes       ...        0.855 sec ( 19.4% of (T))
  External N**7 contributions          ...        1.408 sec ( 32.0% of (T))
  Internal N**7 contributions          ...        0.504 sec ( 11.5% of (T))
  N**6 triples energy contributions    ...        1.536 sec ( 34.9% of (T))


-------------------------   --------------------
FINAL SINGLE POINT ENERGY     -2400.205009192046
-------------------------   --------------------


                            ***************************************
                            *     ORCA property calculations      *
                            ***************************************

                                    ---------------------
                                    Active property flags
                                    ---------------------
   (+) Dipole Moment


------------------------------------------------------------------------------
                       ORCA ELECTRIC PROPERTIES CALCULATION
------------------------------------------------------------------------------

Dipole Moment Calculation                       ... on
Quadrupole Moment Calculation                   ... off
Polarizability Calculation                      ... off
GBWName                                         ... 34_Se.gbw
Electron density file                           ... 34_Se.scfp
The origin for moment calculation is the CENTER OF MASS  = ( 0.000000,  0.000000  0.000000)

-------------
DIPOLE MOMENT
-------------
                                X             Y             Z
Electronic contribution:     -0.00000      -0.00000      -0.00000
Nuclear contribution   :      0.00000       0.00000       0.00000
                        -----------------------------------------
Total Dipole Moment    :     -0.00000      -0.00000      -0.00000
                        -----------------------------------------
Magnitude (a.u.)       :      0.00000
Magnitude (Debye)      :      0.00000



--------------------
Rotational spectrum 
--------------------
 
Rotational constants in cm-1:     0.000000     0.000000     0.000000 
Rotational constants in MHz :     0.000000     0.000000     0.000000 

 Dipole components along the rotational axes: 
x,y,z [a.u.] :    -0.000000    -0.000000    -0.000000 
x,y,z [Debye]:    -0.000000    -0.000000    -0.000000 

 

                           *** MDCI DENSITY ***

------------------------------------------------------------------------------
                       ORCA ELECTRIC PROPERTIES CALCULATION
------------------------------------------------------------------------------

Dipole Moment Calculation                       ... on
Quadrupole Moment Calculation                   ... off
Polarizability Calculation                      ... off
GBWName                                         ... 34_Se.gbw
Electron density file                           ... 34_Se.mdcip
The origin for moment calculation is the CENTER OF MASS  = ( 0.000000,  0.000000  0.000000)

-------------
DIPOLE MOMENT
-------------
                                X             Y             Z
Electronic contribution:      0.00000      -0.00000      -0.00000
Nuclear contribution   :      0.00000       0.00000       0.00000
                        -----------------------------------------
Total Dipole Moment    :      0.00000      -0.00000      -0.00000
                        -----------------------------------------
Magnitude (a.u.)       :      0.00000
Magnitude (Debye)      :      0.00000



--------------------
Rotational spectrum 
--------------------
 
Rotational constants in cm-1:     0.000000     0.000000     0.000000 
Rotational constants in MHz :     0.000000     0.000000     0.000000 

 Dipole components along the rotational axes: 
x,y,z [a.u.] :     0.000000    -0.000000    -0.000000 
x,y,z [Debye]:     0.000000    -0.000000    -0.000000 

 

Timings for individual modules:

Sum of individual times         ...      125.187 sec (=   2.086 min)
GTO integral calculation        ...        2.326 sec (=   0.039 min)   1.9 %
SCF iterations                  ...       22.948 sec (=   0.382 min)  18.3 %
MDCI module                     ...       99.913 sec (=   1.665 min)  79.8 %
                             ****ORCA TERMINATED NORMALLY****
TOTAL RUN TIME: 0 days 0 hours 2 minutes 6 seconds 178 msec
