
                                 *****************
                                 * O   R   C   A *
                                 *****************

           --- An Ab Initio, DFT and Semiempirical electronic structure package ---

                  #######################################################
                  #                        -***-                        #
                  #          Department of theory and spectroscopy      #
                  #               Directorship: Frank Neese             #
                  #        Max Planck Institute fuer Kohlenforschung    #
                  #                Kaiser Wilhelm Platz 1               #
                  #                 D-45470 Muelheim/Ruhr               #
                  #                      Germany                        #
                  #                                                     #
                  #                  All rights reserved                #
                  #                        -***-                        #
                  #######################################################


                         Program Version 4.2.0 -  RELEASE  -


 With contributions from (in alphabetic order):
   Daniel Aravena         : Magnetic Suceptibility
   Michael Atanasov       : Ab Initio Ligand Field Theory (pilot matlab implementation)
   Alexander A. Auer      : GIAO ZORA, VPT2
   Ute Becker             : Parallelization
   Giovanni Bistoni       : ED, misc. LED, open-shell LED, HFLED
   Martin Brehm           : Molecular dynamics
   Dmytro Bykov           : SCF Hessian
   Vijay G. Chilkuri      : MRCI spin determinant printing, contributions to CSF-ICE
   Dipayan Datta          : RHF DLPNO-CCSD density
   Achintya Kumar Dutta   : EOM-CC, STEOM-CC
   Dmitry Ganyushin       : Spin-Orbit,Spin-Spin,Magnetic field MRCI
   Miquel Garcia          : C-PCM Hessian, Gaussian charge scheme
   Yang Guo               : DLPNO-NEVPT2, CIM, IAO-localization
   Andreas Hansen         : Spin unrestricted coupled pair/coupled cluster methods
   Benjamin Helmich-Paris : CASSCF linear response (MC-RPA)
   Lee Huntington         : MR-EOM, pCC
   Robert Izsak           : Overlap fitted RIJCOSX, COSX-SCS-MP3, EOM
   Christian Kollmar      : KDIIS, OOCD, Brueckner-CCSD(T), CCSD density
   Simone Kossmann        : Meta GGA functionals, TD-DFT gradient, OOMP2, MP2 Hessian
   Martin Krupicka        : AUTO-CI
   Lucas Lang             : DCDCAS
   Dagmar Lenk            : GEPOL surface, SMD
   Dimitrios Liakos       : Extrapolation schemes; Compound Job, initial MDCI parallelization
   Dimitrios Manganas     : Further ROCIS development; embedding schemes
   Dimitrios Pantazis     : SARC Basis sets
   Taras Petrenko         : DFT Hessian,TD-DFT gradient, ASA, ECA, R-Raman, ABS, FL, XAS/XES, NRVS
   Peter Pinski           : DLPNO-MP2, DLPNO-MP2 Gradient
   Christoph Reimann      : Effective Core Potentials
   Marius Retegan         : Local ZFS, SOC
   Christoph Riplinger    : Optimizer, TS searches, QM/MM, DLPNO-CCSD(T), (RO)-DLPNO pert. Triples
   Tobias Risthaus        : Range-separated hybrids, TD-DFT gradient, RPA, STAB
   Michael Roemelt        : Original ROCIS implementation
   Masaaki Saitow         : Open-shell DLPNO-CCSD energy and density
   Barbara Sandhoefer     : DKH picture change effects
   Avijit Sen             : IP-ROCIS
   Kantharuban Sivalingam : CASSCF convergence, NEVPT2, FIC-MRCI
   Bernardo de Souza      : ESD, SOC TD-DFT
   Georgi Stoychev        : AutoAux, RI-MP2 NMR
   Willem Van den Heuvel  : Paramagnetic NMR
   Boris Wezisla          : Elementary symmetry handling
   Frank Wennmohs         : Technical directorship


 We gratefully acknowledge several colleagues who have allowed us to
 interface, adapt or use parts of their codes:
   Stefan Grimme, W. Hujo, H. Kruse,             : VdW corrections, initial TS optimization,
                  C. Bannwarth                     DFT functionals, gCP, sTDA/sTD-DF
   Ed Valeev, F. Pavosevic, A. Kumar             : LibInt (2-el integral package), F12 methods
   Garnet Chan, S. Sharma, J. Yang, R. Olivares  : DMRG
   Ulf Ekstrom                                   : XCFun DFT Library
   Mihaly Kallay                                 : mrcc  (arbitrary order and MRCC methods)
   Andreas Klamt, Michael Diedenhofen            : otool_cosmo (COSMO solvation model)
   Jiri Pittner, Ondrej Demel                    : Mk-CCSD
   Frank Weinhold                                : gennbo (NPA and NBO analysis)
   Christopher J. Cramer and Donald G. Truhlar   : smd solvation model
   Lars Goerigk                                  : TD-DFT with DH, B97 family of functionals
   V. Asgeirsson, H. Jonsson                     : NEB implementation
   FAccTs GmbH                                   : IRC, NEB, NEB-TS, Multilevel, MM, QM/MM, CI optimization
   S Lehtola, MJT Oliveira, MAL Marques          : LibXC Library


 Your calculation uses the libint2 library for the computation of 2-el integrals
 For citations please refer to: http://libint.valeyev.net

 Your ORCA version has been built with support for libXC version: 4.2.3
 For citations please refer to: https://tddft.org/programs/libxc/

 This ORCA versions uses:
   CBLAS   interface :  Fast vector & matrix operations
   LAPACKE interface :  Fast linear algebra routines
   SCALAPACK package :  Parallel linear algebra routines


----- Orbital basis set information -----
Your calculation utilizes the basis: def2-SVP
   F. Weigend and R. Ahlrichs, Phys. Chem. Chem. Phys. 7, 3297 (2005).

================================================================================
                                        WARNINGS
                       Please study these warnings very carefully!
================================================================================


WARNING: your system is open-shell and RHF/RKS was chosen
  ===> : WILL SWITCH to UHF/UKS


WARNING: MDCI localization with Augmented Hessian Foster-Boys
  ===> : Switching off randomization!

WARNING: Post HF methods need fully converged wavefunctions
  ===> : Setting SCFConvForced true
         You can overwrite this default with %scf ConvForced false 


INFO   : the flag for use of LIBINT has been found!

================================================================================
                                       INPUT FILE
================================================================================
NAME = 06_C.in
|  1> #
|  2> # 06_C CCSD(T)/Def2-SVP
|  3> #
|  4> ! CCSD(T) Def2-SVP tightscf
|  5> 
|  6> *xyz 0 3
|  7>  C 0.0 0.0 0.0
|  8> *
|  9> 
| 10> %maxcore 5000 
| 11> 
| 12> %pal
| 13> nprocs 6 
| 14> end
| 15> 
| 16> 
| 17>                          ****END OF INPUT****
================================================================================

                       ****************************
                       * Single Point Calculation *
                       ****************************

---------------------------------
CARTESIAN COORDINATES (ANGSTROEM)
---------------------------------
  C      0.000000    0.000000    0.000000

----------------------------
CARTESIAN COORDINATES (A.U.)
----------------------------
  NO LB      ZA    FRAG     MASS         X           Y           Z
   0 C     6.0000    0    12.011    0.000000    0.000000    0.000000

--------------------------------
INTERNAL COORDINATES (ANGSTROEM)
--------------------------------
 C      0   0   0     0.000000000000     0.00000000     0.00000000

---------------------------
INTERNAL COORDINATES (A.U.)
---------------------------
 C      0   0   0     0.000000000000     0.00000000     0.00000000

---------------------
BASIS SET INFORMATION
---------------------
There are 1 groups of distinct atoms

 Group   1 Type C   : 7s4p1d contracted to 3s2p1d pattern {511/31/1}

Atom   0C    basis set group =>   1

Checking for AutoStart:
The File: 06_C.gbw exists
Trying to determine its content:
     ... Fine, the file contains calculation information
     ... Fine, the calculation information was read
     ... Fine, the file contains a basis set
     ... Fine, the basis set was read
     ... Fine, the file contains a geometry
     ... Fine, the geometry was read
     ... Fine, the file contains a set of orbitals
     ... Fine, the orbitals can be read
     => possible old guess file was deleted
     => GBW file was renamed to GES file
     => GES file is set as startup file
     => Guess is set to MORead
     ... now leaving AutoStart



           ************************************************************
           *        Program running with 6 parallel MPI-processes     *
           *              working on a common directory               *
           ************************************************************
------------------------------------------------------------------------------
                           ORCA GTO INTEGRAL CALCULATION
------------------------------------------------------------------------------

                         BASIS SET STATISTICS AND STARTUP INFO

 # of primitive gaussian shells          ...   12
 # of primitive gaussian functions       ...   24
 # of contracted shells                  ...    6
 # of contracted basis functions         ...   14
 Highest angular momentum                ...    2
 Maximum contraction depth               ...    5
 Integral package used                   ... LIBINT
 Integral threshhold            Thresh   ...  2.500e-11
 Primitive cut-off              TCut     ...  2.500e-12


------------------------------ INTEGRAL EVALUATION ----------------------------


 * One electron integrals 
 Pre-screening matrix                    ... done
 Shell pair data                         ... done (   0.000 sec)



           ************************************************************
           *        Program running with 6 parallel MPI-processes     *
           *              working on a common directory               *
           ************************************************************
-------------------------------------------------------------------------------
                                 ORCA SCF
-------------------------------------------------------------------------------

------------
SCF SETTINGS
------------
Hamiltonian:
 Ab initio Hamiltonian  Method          .... Hartree-Fock(GTOs)


General Settings:
 Integral files         IntName         .... 06_C
 Hartree-Fock type      HFTyp           .... UHF
 Total Charge           Charge          ....    0
 Multiplicity           Mult            ....    3
 Number of Electrons    NEL             ....    6
 Basis Dimension        Dim             ....   14
 Nuclear Repulsion      ENuc            ....      0.0000000000 Eh

Convergence Acceleration:
 DIIS                   CNVDIIS         .... on
   Start iteration      DIISMaxIt       ....    12
   Startup error        DIISStart       ....  0.200000
   # of expansion vecs  DIISMaxEq       ....     5
   Bias factor          DIISBfac        ....   1.050
   Max. coefficient     DIISMaxC        ....  10.000
 Newton-Raphson         CNVNR           .... off
 SOSCF                  CNVSOSCF        .... off
 Level Shifting         CNVShift        .... on
   Level shift para.    LevelShift      ....    0.2500
   Turn off err/grad.   ShiftErr        ....    0.0010
 Zerner damping         CNVZerner       .... off
 Static damping         CNVDamp         .... on
   Fraction old density DampFac         ....    0.7000
   Max. Damping (<1)    DampMax         ....    0.9800
   Min. Damping (>=0)   DampMin         ....    0.0000
   Turn off err/grad.   DampErr         ....    0.1000
 Fernandez-Rico         CNVRico         .... off

SCF Procedure:
 Maximum # iterations   MaxIter         ....   125
 SCF integral mode      SCFMode         .... Direct
   Integral package                     .... LIBINT
 Reset frequency        DirectResetFreq ....    20
 Integral Threshold     Thresh          ....  2.500e-11 Eh
 Primitive CutOff       TCut            ....  2.500e-12 Eh

Convergence Tolerance:
 Convergence Check Mode ConvCheckMode   .... Total+1el-Energy
 Convergence forced     ConvForced      .... 1
 Energy Change          TolE            ....  1.000e-08 Eh
 1-El. energy change                    ....  1.000e-05 Eh
 DIIS Error             TolErr          ....  5.000e-07


Diagonalization of the overlap matrix:
Smallest eigenvalue                        ... 1.813e-01
Time for diagonalization                   ...    0.000 sec
Threshold for overlap eigenvalues          ... 1.000e-08
Number of eigenvalues below threshold      ... 0
Time for construction of square roots      ...    0.005 sec
Total time needed                          ...    0.006 sec

---------------------
INITIAL GUESS: MOREAD
---------------------
Guess MOs are being read from file: 06_C.ges
Input Geometry matches current geometry (good)
Input basis set matches current basis set (good)
MOs were renormalized
MOs were reorthogonalized (Cholesky)
                      ------------------
                      INITIAL GUESS DONE (   0.0 sec)
                      ------------------
--------------
SCF ITERATIONS
--------------
ITER       Energy         Delta-E        Max-DP      RMS-DP      [F,P]     Damp
               ***  Starting incremental Fock matrix formation  ***
  0    -37.6452298613   0.000000000000 0.00000006  0.00000001  0.0000001 0.7000
                 **** Energy Check signals convergence ****

               *****************************************************
               *                     SUCCESS                       *
               *           SCF CONVERGED AFTER   1 CYCLES          *
               *****************************************************


----------------
TOTAL SCF ENERGY
----------------

Total Energy       :          -37.64522986 Eh           -1024.37878 eV

Components:
Nuclear Repulsion  :            0.00000000 Eh               0.00000 eV
Electronic Energy  :          -37.64522986 Eh           -1024.37878 eV
One Electron Energy:          -50.38651035 Eh           -1371.08665 eV
Two Electron Energy:           12.74128049 Eh             346.70787 eV

Virial components:
Potential Energy   :          -75.29363032 Eh           -2048.84384 eV
Kinetic Energy     :           37.64840046 Eh            1024.46506 eV
Virial Ratio       :            1.99991578


---------------
SCF CONVERGENCE
---------------

  Last Energy change         ...    1.9625e-11  Tolerance :   1.0000e-08
  Last MAX-Density change    ...    6.2212e-08  Tolerance :   1.0000e-07
  Last RMS-Density change    ...    6.1343e-09  Tolerance :   5.0000e-09
  Last DIIS Error            ...    4.4148e-08  Tolerance :   5.0000e-07

             **** THE GBW FILE WAS UPDATED (06_C.gbw) ****
             **** DENSITY FILE WAS UPDATED (06_C.scfp) ****
             **** ENERGY FILE WAS UPDATED (06_C.en.tmp) ****
----------------------
UHF SPIN CONTAMINATION
----------------------

Expectation value of <S**2>     :     2.006584
Ideal value S*(S+1) for S=1.0   :     2.000000
Deviation                       :     0.006584

             **** THE GBW FILE WAS UPDATED (06_C.gbw) ****
             **** DENSITY FILE WAS UPDATED (06_C.scfp) ****
----------------
ORBITAL ENERGIES
----------------
                 SPIN UP ORBITALS
  NO   OCC          E(Eh)            E(eV) 
   0   1.0000     -11.344064      -308.6877 
   1   1.0000      -0.814293       -22.1580 
   2   1.0000      -0.440429       -11.9847 
   3   1.0000      -0.440429       -11.9847 
   4   0.0000       0.038809         1.0561 
   5   0.0000       0.491091        13.3633 
   6   0.0000       0.634650        17.2697 
   7   0.0000       0.634650        17.2697 
   8   0.0000       0.717838        19.5334 
   9   0.0000       1.888957        51.4011 
  10   0.0000       1.888957        51.4011 
  11   0.0000       1.920834        52.2685 
  12   0.0000       1.920834        52.2685 
  13   0.0000       1.933085        52.6019 

                 SPIN DOWN ORBITALS
  NO   OCC          E(Eh)            E(eV) 
   0   1.0000     -11.295213      -307.3584 
   1   1.0000      -0.569521       -15.4974 
   2   0.0000       0.081079         2.2063 
   3   0.0000       0.137499         3.7415 
   4   0.0000       0.137499         3.7415 
   5   0.0000       0.556479        15.1426 
   6   0.0000       0.750025        20.4092 
   7   0.0000       0.802505        21.8373 
   8   0.0000       0.802505        21.8373 
   9   0.0000       2.010770        54.7158 
  10   0.0000       2.027116        55.1606 
  11   0.0000       2.027116        55.1606 
  12   0.0000       2.080863        56.6232 
  13   0.0000       2.080863        56.6232 

                    ********************************
                    * MULLIKEN POPULATION ANALYSIS *
                    ********************************

--------------------------------------------
MULLIKEN ATOMIC CHARGES AND SPIN POPULATIONS
--------------------------------------------
   0 C :    0.000000    2.000000
Sum of atomic charges         :    0.0000000
Sum of atomic spin populations:    2.0000000

-----------------------------------------------------
MULLIKEN REDUCED ORBITAL CHARGES AND SPIN POPULATIONS
-----------------------------------------------------
CHARGE
  0 C s       :     3.998689  s :     3.998689
      pz      :     1.000000  p :     2.000000
      px      :     0.000000
      py      :     1.000000
      dz2     :     0.000328  d :     0.001311
      dxz     :     0.000000
      dyz     :     0.000000
      dx2y2   :     0.000983
      dxy     :     0.000000

SPIN
  0 C s       :    -0.000122  s :    -0.000122
      pz      :     1.000000  p :     2.000000
      px      :     0.000000
      py      :     1.000000
      dz2     :     0.000030  d :     0.000122
      dxz     :     0.000000
      dyz     :     0.000000
      dx2y2   :     0.000091
      dxy     :     0.000000


                     *******************************
                     * LOEWDIN POPULATION ANALYSIS *
                     *******************************

-------------------------------------------
LOEWDIN ATOMIC CHARGES AND SPIN POPULATIONS
-------------------------------------------
   0 C :   -0.000000    2.000000

----------------------------------------------------
LOEWDIN REDUCED ORBITAL CHARGES AND SPIN POPULATIONS
----------------------------------------------------
CHARGE
  0 C s       :     3.998689  s :     3.998689
      pz      :     1.000000  p :     2.000000
      px      :     0.000000
      py      :     1.000000
      dz2     :     0.000328  d :     0.001311
      dxz     :     0.000000
      dyz     :     0.000000
      dx2y2   :     0.000983
      dxy     :     0.000000

SPIN
  0 C s       :    -0.000122  s :    -0.000122
      pz      :     1.000000  p :     2.000000
      px      :     0.000000
      py      :     1.000000
      dz2     :     0.000030  d :     0.000122
      dxz     :     0.000000
      dyz     :     0.000000
      dx2y2   :     0.000091
      dxy     :     0.000000


                      *****************************
                      * MAYER POPULATION ANALYSIS *
                      *****************************

  NA   - Mulliken gross atomic population
  ZA   - Total nuclear charge
  QA   - Mulliken gross atomic charge
  VA   - Mayer's total valence
  BVA  - Mayer's bonded valence
  FA   - Mayer's free valence

  ATOM       NA         ZA         QA         VA         BVA        FA
  0 C      6.0000     6.0000     0.0000     2.0132     0.0000     2.0132

  Mayer bond orders larger than 0.100000


-------
TIMINGS
-------

Total SCF time: 0 days 0 hours 0 min 0 sec 

Total time                  ....       0.598 sec
Sum of individual times     ....       0.297 sec  ( 49.7%)

Fock matrix formation       ....       0.267 sec  ( 44.6%)
Diagonalization             ....       0.002 sec  (  0.4%)
Density matrix formation    ....       0.000 sec  (  0.0%)
Population analysis         ....       0.024 sec  (  4.0%)
Initial guess               ....       0.004 sec  (  0.7%)
Orbital Transformation      ....       0.000 sec  (  0.0%)
Orbital Orthonormalization  ....       0.000 sec  (  0.1%)
DIIS solution               ....       0.000 sec  (  0.0%)


           ************************************************************
           *        Program running with 6 parallel MPI-processes     *
           *              working on a common directory               *
           ************************************************************


------------------------------------------------------------------------------- 
                              ORCA-MATRIX DRIVEN CI                            
------------------------------------------------------------------------------- 

--------------------------------
AUTOMATIC CHOICE OF INCORE LEVEL
--------------------------------

Memory available                           ...   2500.00 MB
Memory needed for S+T                      ...      0.01 MB
Memory needed for J+K                      ...      0.03 MB
Memory needed for DIIS                     ...      0.19 MB
Memory needed for 3-ext                    ...      0.02 MB
Memory needed for 4-ext                    ...      0.04 MB
Memory needed for triples                  ...      0.04 MB
 -> Final InCoreLevel    ... 5
 -> check shows that triples correction can be computed


Wavefunction type
-----------------
Correlation treatment                      ...      CCSD     
Single excitations                         ... ON
Orbital optimization                       ... OFF
Calculation of Z vector                    ... OFF
Calculation of Brueckner orbitals          ... OFF
Perturbative triple excitations            ... ON
Calculation of F12 correction              ... OFF
Frozen core treatment                      ... chemical core (2 el)
Reference Wavefunction                     ... UHF
  Alpha-MOs occ    :     1 ...    3 (  3 MO's/  3 electrons)
  Beta-MOs occ     :     1 ...    1 (  1 MO's/  1 electrons)
  Alpha-MOs virt   :     4 ...   13 ( 10 MO's              )
  Beta-MOs virt    :     2 ...   13 ( 12 MO's              )
Number of AO's                             ...     14
Number of electrons                        ...      6
Number of correlated electrons             ...      4

Algorithmic settings
--------------------
Integral transformation                    ... AO direct full transformation
K(C) Formation                             ... FULL-MO TRAFO
Maximum number of iterations               ...        50
Convergence tolerance (max. residuum)      ... 1.000e-05
Level shift for amplitude update           ... 2.000e-01
Maximum number of DIIS vectors             ...         7
DIIS turned on at iteration                ...         0
Damping before turning on DIIS             ...     0.500
Damping after turning on DIIS              ...     0.000
Pair specific amplitude update             ... OFF
Natural orbital iterations                 ... OFF
Perturbative natural orbital generation    ... OFF
Printlevel                                 ... 2

Memory handling:
----------------
Maximum memory for working arrays          ...   2500 MB
Data storage in matrix containers          ... UNCOMPRESSED
Data type for integral storage             ... DOUBLE
In-Core Storage of quantities:
   Amplitudes+Sigma Vector      ... YES
   J+K operators                ... YES
   DIIS vectors                 ... YES
   3-external integrals         ... YES
   4-external integrals         ... YES


Initializing the integral package          ... done
Warning: reference  - re-canonicalizations have been set to INT 1 VIRT 1

--------------------------
UNRESTRICTED FOCK OPERATOR
--------------------------

<ss|ss>:           21 b            0 skpd (  0.0%)    0.000 s ( 0.002 ms/b)
<ss|sp>:           36 b            0 skpd (  0.0%)    0.000 s ( 0.001 ms/b)
<ss|sd>:           18 b            0 skpd (  0.0%)    0.000 s ( 0.001 ms/b)
<ss|pp>:           18 b            0 skpd (  0.0%)    0.000 s ( 0.002 ms/b)
<ss|pd>:           12 b            0 skpd (  0.0%)    0.000 s ( 0.002 ms/b)
<ss|dd>:            6 b            0 skpd (  0.0%)    0.000 s ( 0.003 ms/b)
<sp|sp>:           21 b            0 skpd (  0.0%)    0.000 s ( 0.001 ms/b)
<sp|sd>:           18 b            0 skpd (  0.0%)    0.000 s ( 0.002 ms/b)
<sp|pp>:           18 b            0 skpd (  0.0%)    0.000 s ( 0.003 ms/b)
<sp|pd>:           12 b            0 skpd (  0.0%)    0.000 s ( 0.004 ms/b)
<sp|dd>:            6 b            0 skpd (  0.0%)    0.000 s ( 0.008 ms/b)
<sd|sd>:            6 b            0 skpd (  0.0%)    0.000 s ( 0.002 ms/b)
<sd|pp>:            9 b            0 skpd (  0.0%)    0.000 s ( 0.004 ms/b)
<sd|pd>:            6 b            0 skpd (  0.0%)    0.000 s ( 0.006 ms/b)
<sd|dd>:            3 b            0 skpd (  0.0%)    0.000 s ( 0.013 ms/b)
<pp|pp>:            6 b            0 skpd (  0.0%)    0.000 s ( 0.010 ms/b)
<pp|pd>:            6 b            0 skpd (  0.0%)    0.000 s ( 0.009 ms/b)
<pp|dd>:            3 b            0 skpd (  0.0%)    0.000 s ( 0.017 ms/b)
<pd|pd>:            3 b            0 skpd (  0.0%)    0.000 s ( 0.020 ms/b)
<pd|dd>:            2 b            0 skpd (  0.0%)    0.000 s ( 0.034 ms/b)
<dd|dd>:            1 b            0 skpd (  0.0%)    0.000 s ( 0.072 ms/b)
Recanonicalizing the internal orbitals
Recanonicalizing the virtual orbitals
Time needed for Fock operator              ...            0.019 sec
Reference energy                           ...    -37.645229861
Warning: for UHF the TrafoType has to be JK
Warning: for UHF the K(C)-option cannot be MO but must be AOX

-------------------------------
PARTIAL EXCHANGE TRANSFORMATION
-------------------------------

Transformation type                        ... two-operators
Generation of integrals (i,mue|j,nue)      ... ON
Generation of integrals (mue,kappa|nue,tau)... ON
Generation of integrals (i,mue|a,nue)      ... ON
Dimension of the basis                     ...   14
Number of internal alpha-MOs               ...    3 (   1-   3)
Number of internal beta-MOs                ...    1 (   1-   1)
Number of external alpha-MOs               ...   10 (   4-  13)
Number of external beta-MOs                ...   12 (   2-  13)
Pair cutoff                                ... 0.000e+00 Eh
Number of AO pairs in the trafo            ...  105
Total Number of distinct AO pairs          ...  105
Memory devoted for trafo                   ... 2500.0 MB 
Max. Number of MO pairs treated together   ... 1671836      
Number Format for Storage                  ... Double (8 Byte)
Integral package used                      ... LIBINT

Starting integral evaluation:
    ... done with AO integral generation
Closing buffer AOK[aa] ( 0.00 GB; CompressionRatio= 0.86)
Closing buffer AOK[bb] ( 0.00 GB; CompressionRatio= 0.40)
Closing buffer AOK[ab] ( 0.00 GB; CompressionRatio= 0.67)
Closing buffer AOK[ba] ( 0.00 GB; CompressionRatio= 0.67)
Collecting buffer AOK 
Closing buffer IAAO1[aa] ( 0.00 GB; CompressionRatio= 0.95)
Closing buffer IAAO1[bb] ( 0.00 GB; CompressionRatio= 0.89)
Closing buffer IAAO1[ab] ( 0.00 GB; CompressionRatio= 0.96)
Closing buffer IAAO1[ba] ( 0.00 GB; CompressionRatio= 0.87)
Closing buffer IAAO2[aa] ( 0.00 GB; CompressionRatio= 0.95)
Closing buffer IAAO2[bb] ( 0.00 GB; CompressionRatio= 0.89)
Closing buffer IAAO2[ab] ( 0.00 GB; CompressionRatio= 0.96)
Closing buffer IAAO2[ba] ( 0.00 GB; CompressionRatio= 0.87)
Collecting buffer IAAO 
Closing buffer PRQS    ( 0.00 GB; CompressionRatio= 0.99)
Collecting buffer PRQS 
Number of alpha/alpha MO pairs in trafo    ...    6
Number of beta /beta  MO pairs in trafo    ...    1
Number of alpha/ beta MO pairs in trafo    ...    3
------------------------
SORTING OF (i,mue|j,nue)
------------------------

SORTING OF ALPHA/ALPHA PAIRS
IBATCH = 1 of  1
Closing buffer KAO[aa] ( 0.00 GB; CompressionRatio= 0.99)
Collecting buffer KAO 
SORTING OF BETA /BETA  PAIRS
IBATCH = 1 of  1
Closing buffer KAO[bb] ( 0.00 GB; CompressionRatio= 0.99)
Collecting buffer KAO 
SORTING OF ALPHA/BETA  PAIRS
IBATCH = 1 of  1
Closing buffer KAO[ab] ( 0.00 GB; CompressionRatio= 0.992405063291)
Collecting buffer KAO[ab] 
------------------------
SORTING OF (i,mue|a,nue)
------------------------

Number of alpha/alpha (i,a) pairs in trafo  ...   30
Number of beta /beta  (i,a) pairs in trafo  ...   12
Number of alpha/ beta (i,a) pairs in trafo  ...   36
Number of beta /alpha (i,a) pairs in trafo  ...   10
Setting up the alpha/alpha list             ... done
Setting up the beta /beta  list             ... done
Setting up the alpha/beta  list             ... done
Setting up the beta /alpha list             ... done
    ... Now sorting (i,mue|a,nue)integrals
    ... Integrals (i,b|a,c) will be made on the fly
SORTING OF ALPHA/ALPHA PAIRS
IBATCH = 1 of  1
Closing buffer IPAQ[aa]  0.00 GB; CompressionRatio= 1.00)
SORTING OF BETA /BETA  PAIRS
IBATCH = 1 of  1
Closing buffer IPAQ[bb]( 0.00 GB; CompressionRatio= 1.00)
SORTING OF ALPHA/BETA  PAIRS (NMatSort_ab=6)
IBATCH = 1 of  1
Closing buffer IPAQ[ab]( 0.00 GB; CompressionRatio= 1.00)
SORTING OF BETA/ALPHA  PAIRS
IBATCH = 1 of  1
Closing buffer IPAQ[ba]( 0.00 GB; CompressionRatio= 1.00)
N(AO-Batches) Done                         ...        36 
N(AO-Batches) Skipped                      ...         0 
N(IJ)-pairs Skipped                        ...         0 
TOTAL TIME for half transformation         ...     0.428 sec
AO-integral generation                     ...     0.000 sec
Half transformation                        ...     0.030 sec
K-integral sorting                         ...     0.098 sec
<ss|**>: 
------------------------------
PARTIAL COULOMB TRANSFORMATION
------------------------------

Transformation type                        ... two-operators
Dimension of the basis                     ...   14
Number of internal alpha-MOs               ...    3 (1-3)
Number of internal beta-MOs                ...    1 (1-1)
Pair cutoff                                ... 0.000e+00 Eh
Number of AO pairs included in the trafo   ...  105
Total Number of distinct AO pairs          ...  105
Memory devoted for trafo                   ... 2500.0 MB 
Max. Number of MO pairs treated together   ... 3120761      
Max. Number of MOs treated per batch       ... 222911      
Number Format for Storage                  ... Double (8 Byte)
AO-integral source                         ... DIRECT
Integral package used                      ... LIBINT

Starting integral evaluation:
         126 b        0 skpd     0.001 s (  0.006 ms/b)
<sp|**>:          126 b        0 skpd     0.003 s (  0.026 ms/b)
<sd|**>:           63 b        0 skpd     0.004 s (  0.064 ms/b)
<pp|**>:           63 b        0 skpd     0.007 s (  0.118 ms/b)
<pd|**>:           42 b        0 skpd     0.010 s (  0.246 ms/b)
<dd|**>:           21 b        0 skpd     0.009 s (  0.412 ms/b)
Closing buffer AOJ[aa] ( 0.00 GB; CompressionRatio= 0.80)
Closing buffer AOJ[bb] ( 0.00 GB; CompressionRatio= 0.00)
Collecting buffer AOJ 
    ... done with AO integral generation
Number of Alpha-MO pairs included          ...    6
Number of Beta-MO pairs included           ...    1
    ... Now sorting integrals
SORTING ALPHA/ALPHA PAIRS
IBATCH = 1 of  1
Closing buffer JAO[aa] ( 0.00 GB; CompressionRatio= 0.99)
SORTING BETA/BETA PAIRS
IBATCH = 1 of  1
Closing buffer JAO[bb] ( 0.00 GB; CompressionRatio= 0.99)
Collecting buffer JAO 
TOTAL TIME for half transformation         ...     0.159 sec
AO-integral generation                     ...     0.022 sec
Half transformation                        ...     0.012 sec
J-integral sorting                         ...     0.015 sec

-------------------------- SECOND HALF TRANSFORMATION -------------------------
Formation of (ij|kl),(ij|ka), (ij|ab)      ... ok (     0.021 sec)
Formation of (ik|jl),(ik|ja), (ia|jb)      ... ok (     0.032 sec)


-----------------------
SPIN UNRESTRICTED GUESS
-----------------------

Entering MDCI_UHF_Guess, Tailored=0
Spin-components of the MP2 energy:
EMP2(aa)=     -0.009004137
EMP2(bb)=      0.000000000
EMP2(ab)=     -0.041084326

Initial guess performed in     0.000 sec
E(0)                                       ...    -37.645229861
E(MP2)                                     ...     -0.050088463
Initial E(tot)                             ...    -37.695318324
<T|T>                                      ...      0.019362194
Number of pairs included                   ... 6

------------------------------------------------
                  UHF COUPLED CLUSTER ITERATIONS
------------------------------------------------

Number of amplitudes to be optimized       ...          531

Iter       E(tot)           E(Corr)          Delta-E          Residual     Time      <S|S>**1/2
  0    -37.695318324     -0.050088463     -0.000000000      0.044670420    0.01      0.000000066
                           *** Turning on DIIS ***
  1    -37.706892751     -0.061662890     -0.011574427      0.025476917    0.00      0.005116101
  2    -37.713042885     -0.067813024     -0.006150134      0.009370075    0.00      0.009649268
  3    -37.714252087     -0.069022225     -0.001209201      0.001187560    0.00      0.011683106
  4    -37.714410979     -0.069181118     -0.000158893      0.000093255    0.00      0.011789927
  5    -37.714387012     -0.069157151      0.000023967      0.000034218    0.00      0.011763519
  6    -37.714399446     -0.069169585     -0.000012434      0.000008543    0.00      0.011767621
               --- The Coupled-Cluster iterations have converged ---

----------------------
COUPLED CLUSTER ENERGY
----------------------

E(0)                                       ...    -37.645229861
E(CORR)                                    ...     -0.069169585
E(TOT)                                     ...    -37.714399446
Singles norm <S|S>**1/2                    ...      0.011767621 ( 0.007509839, 0.004257782)  
T1 diagnostic                              ...      0.005883810                              

------------------
LARGEST AMPLITUDES
------------------
   1a->  4a   1b->  2b       0.128008
   3a->  6a   2a->  7a       0.044587
   3a->  7a   2a->  6a       0.044587
   1a->  4a   1b->  6b       0.043887
   1a->  8a   1b->  2b       0.040666
   2a->  7a   1b->  5b       0.040327
   3a->  6a   1b->  5b       0.040327
   2a-> 10a   1b->  4b       0.033284
   3a->  9a   1b->  4b       0.033284
   2a->  9a   1b->  3b       0.033284
   3a-> 10a   1b->  3b       0.033284
   1a->  5a   1b->  5b       0.031959
   2a-> 11a   1b->  2b       0.030171
   3a-> 12a   1b->  2b       0.030171
   3a->  6a   1a->  5a       0.024773
   3a->  5a   1a->  6a       0.024773

----------------------
UHF TRIPLES CORRECTION (Algorithm 1)
----------------------

Multiplier for the singles contribution    ...      1.000000000

SPIN-CASE Alpha-Alpha-Alpha:
10% done
20% done
30% done
40% done
50% done
60% done
70% done
80% done
90% done


SPIN-CASE Beta-Beta-Beta:

SPIN-CASE Alpha-Alpha-Beta:
10% done
20% done
30% done
40% done
50% done
60% done
70% done
80% done
90% done


SPIN-CASE Beta-Beta-Alpha:

Triples Correction (T)                     ...     -0.001010192
    alpha-alpha-alpha ... -0.000017738 (  1.8%)
    alpha-alpha-beta  ... -0.000992454 ( 98.2%)
    alpha-beta -beta  ...  0.000000000 ( -0.0%)
    beta -beta -beta  ...  0.000000000 ( -0.0%)
Scaling of triples based on CCSD energies (Peterson et al. Molecular Physics 113, 1551 (2015))
E(T*) = f*E(T) where f = E(F12-CCSD)/E(CCSD) 
f = CCSD (with F12)/ CCSD (without F12)    ...      1.000000000
Scaled triples correction (T)              ...     -0.001010192

Final correlation energy                   ...     -0.070179777
E(CCSD)                                    ...    -37.714399446
E(CCSD(T))                                 ...    -37.715409638



        !!!!!!!!!!!!!!!!!!!!!!!!!!!!!!!!!!!!!!!!!!!!!!!!!!!!!!!!!!!!!!!!!!!!!!!!!! 
        !  Warning: Densities are linearized densities                           !
        !!!!!!!!!!!!!!!!!!!!!!!!!!!!!!!!!!!!!!!!!!!!!!!!!!!!!!!!!!!!!!!!!!!!!!!!!! 

NORM  =      1.044163004 sqrt=     1.021842945
W(HF) =      0.957704876
------------------------------------------------------------------------------
                           ORCA POPULATION ANALYSIS
------------------------------------------------------------------------------
Input electron density              ... 06_C.mdcip
Input spin density                  ... 06_C.mdcir
BaseName (.gbw .S,...)              ... 06_C

                    ********************************
                    * MULLIKEN POPULATION ANALYSIS *
                    ********************************

------------------------------------------
MULLIKEN ATOMIC CHARGES AND SPIN DENSITIES
------------------------------------------
   0 C :    0.000000    2.000000
Sum of atomic charges       :    0.0000000
Sum of atomic spin densities:    2.0000000

---------------------------------------------------
MULLIKEN REDUCED ORBITAL CHARGES AND SPIN DENSITIES
---------------------------------------------------
CHARGE
  0 C s       :     3.943150  s :     3.943150
      pz      :     0.998306  p :     2.041703
      px      :     0.045090
      py      :     0.998306
      dz2     :     0.003409  d :     0.015148
      dxz     :     0.002654
      dyz     :     0.003797
      dx2y2   :     0.002634
      dxy     :     0.002654

SPIN
  0 C s       :     0.013797  s :     0.013797
      pz      :     0.988974  p :     1.976674
      px      :    -0.001275
      py      :     0.988974
      dz2     :     0.002616  d :     0.009529
      dxz     :     0.001191
      dyz     :     0.003318
      dx2y2   :     0.001214
      dxy     :     0.001191


                     *******************************
                     * LOEWDIN POPULATION ANALYSIS *
                     *******************************

-----------------------------------------
LOEWDIN ATOMIC CHARGES AND SPIN DENSITIES
-----------------------------------------
   0 C :   -0.000000    2.000000

--------------------------------------------------
LOEWDIN REDUCED ORBITAL CHARGES AND SPIN DENSITIES
--------------------------------------------------
CHARGE
  0 C s       :     3.943150  s :     3.943150
      pz      :     0.998306  p :     2.041703
      px      :     0.045090
      py      :     0.998306
      dz2     :     0.003409  d :     0.015148
      dxz     :     0.002654
      dyz     :     0.003797
      dx2y2   :     0.002634
      dxy     :     0.002654

SPIN
  0 C s       :     0.013797  s :     0.013797
      pz      :     0.988974  p :     1.976674
      px      :    -0.001275
      py      :     0.988974
      dz2     :     0.002616  d :     0.009529
      dxz     :     0.001191
      dyz     :     0.003318
      dx2y2   :     0.001214
      dxy     :     0.001191


                      *****************************
                      * MAYER POPULATION ANALYSIS *
                      *****************************

  NA   - Mulliken gross atomic population
  ZA   - Total nuclear charge
  QA   - Mulliken gross atomic charge
  VA   - Mayer's total valence
  BVA  - Mayer's bonded valence
  FA   - Mayer's free valence

  ATOM       NA         ZA         QA         VA         BVA        FA
  0 C      6.0000     6.0000     0.0000     2.2884     0.0000     2.2884





------------------------------------------------------------------------------- 
                                     TIMINGS                                   
------------------------------------------------------------------------------- 


Total execution time                   ...        0.952 sec

Fock Matrix Formation                  ...        0.019 sec (  2.0%)
Initial Guess                          ...        0.000 sec (  0.0%)
DIIS Solver                            ...        0.002 sec (  0.2%)
State Vector Update                    ...        0.000 sec (  0.0%)
Sigma-vector construction              ...        0.030 sec (  3.2%)
  <D|H|D>(4-ext)                       ...        0.015 sec ( 49.0% of sigma)
  Fock-dressing                        ...        0.005 sec ( 15.6% of sigma)
  (ij|ab),(ia|jb)-dressing             ...        0.005 sec ( 17.4% of sigma)
Total Time for computing (T)           ...        0.000 sec (  0.0% of ALL)


-------------------------   --------------------
FINAL SINGLE POINT ENERGY       -37.715409637875
-------------------------   --------------------


                            ***************************************
                            *     ORCA property calculations      *
                            ***************************************

                                    ---------------------
                                    Active property flags
                                    ---------------------
   (+) Dipole Moment


------------------------------------------------------------------------------
                       ORCA ELECTRIC PROPERTIES CALCULATION
------------------------------------------------------------------------------

Dipole Moment Calculation                       ... on
Quadrupole Moment Calculation                   ... off
Polarizability Calculation                      ... off
GBWName                                         ... 06_C.gbw
Electron density file                           ... 06_C.scfp
The origin for moment calculation is the CENTER OF MASS  = ( 0.000000,  0.000000  0.000000)

-------------
DIPOLE MOMENT
-------------
                                X             Y             Z
Electronic contribution:     -0.00000      -0.00000       0.00000
Nuclear contribution   :      0.00000       0.00000       0.00000
                        -----------------------------------------
Total Dipole Moment    :     -0.00000      -0.00000       0.00000
                        -----------------------------------------
Magnitude (a.u.)       :      0.00000
Magnitude (Debye)      :      0.00000



--------------------
Rotational spectrum 
--------------------
 
Rotational constants in cm-1:     0.000000     0.000000     0.000000 
Rotational constants in MHz :     0.000000     0.000000     0.000000 

 Dipole components along the rotational axes: 
x,y,z [a.u.] :    -0.000000    -0.000000     0.000000 
x,y,z [Debye]:    -0.000000    -0.000000     0.000000 

 

                           *** MDCI DENSITY ***

------------------------------------------------------------------------------
                       ORCA ELECTRIC PROPERTIES CALCULATION
------------------------------------------------------------------------------

Dipole Moment Calculation                       ... on
Quadrupole Moment Calculation                   ... off
Polarizability Calculation                      ... off
GBWName                                         ... 06_C.gbw
Electron density file                           ... 06_C.mdcip
The origin for moment calculation is the CENTER OF MASS  = ( 0.000000,  0.000000  0.000000)

-------------
DIPOLE MOMENT
-------------
                                X             Y             Z
Electronic contribution:      0.00000       0.00000      -0.00000
Nuclear contribution   :      0.00000       0.00000       0.00000
                        -----------------------------------------
Total Dipole Moment    :      0.00000       0.00000      -0.00000
                        -----------------------------------------
Magnitude (a.u.)       :      0.00000
Magnitude (Debye)      :      0.00000



--------------------
Rotational spectrum 
--------------------
 
Rotational constants in cm-1:     0.000000     0.000000     0.000000 
Rotational constants in MHz :     0.000000     0.000000     0.000000 

 Dipole components along the rotational axes: 
x,y,z [a.u.] :     0.000000     0.000000    -0.000000 
x,y,z [Debye]:     0.000000     0.000000    -0.000000 

 

Timings for individual modules:

Sum of individual times         ...        3.257 sec (=   0.054 min)
GTO integral calculation        ...        0.802 sec (=   0.013 min)  24.6 %
SCF iterations                  ...        1.042 sec (=   0.017 min)  32.0 %
MDCI module                     ...        1.414 sec (=   0.024 min)  43.4 %
                             ****ORCA TERMINATED NORMALLY****
TOTAL RUN TIME: 0 days 0 hours 0 minutes 4 seconds 122 msec
