
                                 *****************
                                 * O   R   C   A *
                                 *****************

           --- An Ab Initio, DFT and Semiempirical electronic structure package ---

                  #######################################################
                  #                        -***-                        #
                  #          Department of theory and spectroscopy      #
                  #               Directorship: Frank Neese             #
                  #        Max Planck Institute fuer Kohlenforschung    #
                  #                Kaiser Wilhelm Platz 1               #
                  #                 D-45470 Muelheim/Ruhr               #
                  #                      Germany                        #
                  #                                                     #
                  #                  All rights reserved                #
                  #                        -***-                        #
                  #######################################################


                         Program Version 4.2.0 -  RELEASE  -


 With contributions from (in alphabetic order):
   Daniel Aravena         : Magnetic Suceptibility
   Michael Atanasov       : Ab Initio Ligand Field Theory (pilot matlab implementation)
   Alexander A. Auer      : GIAO ZORA, VPT2
   Ute Becker             : Parallelization
   Giovanni Bistoni       : ED, misc. LED, open-shell LED, HFLED
   Martin Brehm           : Molecular dynamics
   Dmytro Bykov           : SCF Hessian
   Vijay G. Chilkuri      : MRCI spin determinant printing, contributions to CSF-ICE
   Dipayan Datta          : RHF DLPNO-CCSD density
   Achintya Kumar Dutta   : EOM-CC, STEOM-CC
   Dmitry Ganyushin       : Spin-Orbit,Spin-Spin,Magnetic field MRCI
   Miquel Garcia          : C-PCM Hessian, Gaussian charge scheme
   Yang Guo               : DLPNO-NEVPT2, CIM, IAO-localization
   Andreas Hansen         : Spin unrestricted coupled pair/coupled cluster methods
   Benjamin Helmich-Paris : CASSCF linear response (MC-RPA)
   Lee Huntington         : MR-EOM, pCC
   Robert Izsak           : Overlap fitted RIJCOSX, COSX-SCS-MP3, EOM
   Christian Kollmar      : KDIIS, OOCD, Brueckner-CCSD(T), CCSD density
   Simone Kossmann        : Meta GGA functionals, TD-DFT gradient, OOMP2, MP2 Hessian
   Martin Krupicka        : AUTO-CI
   Lucas Lang             : DCDCAS
   Dagmar Lenk            : GEPOL surface, SMD
   Dimitrios Liakos       : Extrapolation schemes; Compound Job, initial MDCI parallelization
   Dimitrios Manganas     : Further ROCIS development; embedding schemes
   Dimitrios Pantazis     : SARC Basis sets
   Taras Petrenko         : DFT Hessian,TD-DFT gradient, ASA, ECA, R-Raman, ABS, FL, XAS/XES, NRVS
   Peter Pinski           : DLPNO-MP2, DLPNO-MP2 Gradient
   Christoph Reimann      : Effective Core Potentials
   Marius Retegan         : Local ZFS, SOC
   Christoph Riplinger    : Optimizer, TS searches, QM/MM, DLPNO-CCSD(T), (RO)-DLPNO pert. Triples
   Tobias Risthaus        : Range-separated hybrids, TD-DFT gradient, RPA, STAB
   Michael Roemelt        : Original ROCIS implementation
   Masaaki Saitow         : Open-shell DLPNO-CCSD energy and density
   Barbara Sandhoefer     : DKH picture change effects
   Avijit Sen             : IP-ROCIS
   Kantharuban Sivalingam : CASSCF convergence, NEVPT2, FIC-MRCI
   Bernardo de Souza      : ESD, SOC TD-DFT
   Georgi Stoychev        : AutoAux, RI-MP2 NMR
   Willem Van den Heuvel  : Paramagnetic NMR
   Boris Wezisla          : Elementary symmetry handling
   Frank Wennmohs         : Technical directorship


 We gratefully acknowledge several colleagues who have allowed us to
 interface, adapt or use parts of their codes:
   Stefan Grimme, W. Hujo, H. Kruse,             : VdW corrections, initial TS optimization,
                  C. Bannwarth                     DFT functionals, gCP, sTDA/sTD-DF
   Ed Valeev, F. Pavosevic, A. Kumar             : LibInt (2-el integral package), F12 methods
   Garnet Chan, S. Sharma, J. Yang, R. Olivares  : DMRG
   Ulf Ekstrom                                   : XCFun DFT Library
   Mihaly Kallay                                 : mrcc  (arbitrary order and MRCC methods)
   Andreas Klamt, Michael Diedenhofen            : otool_cosmo (COSMO solvation model)
   Jiri Pittner, Ondrej Demel                    : Mk-CCSD
   Frank Weinhold                                : gennbo (NPA and NBO analysis)
   Christopher J. Cramer and Donald G. Truhlar   : smd solvation model
   Lars Goerigk                                  : TD-DFT with DH, B97 family of functionals
   V. Asgeirsson, H. Jonsson                     : NEB implementation
   FAccTs GmbH                                   : IRC, NEB, NEB-TS, Multilevel, MM, QM/MM, CI optimization
   S Lehtola, MJT Oliveira, MAL Marques          : LibXC Library


 Your calculation uses the libint2 library for the computation of 2-el integrals
 For citations please refer to: http://libint.valeyev.net

 Your ORCA version has been built with support for libXC version: 4.2.3
 For citations please refer to: https://tddft.org/programs/libxc/

 This ORCA versions uses:
   CBLAS   interface :  Fast vector & matrix operations
   LAPACKE interface :  Fast linear algebra routines
   SCALAPACK package :  Parallel linear algebra routines


----- Orbital basis set information -----
Your calculation utilizes the basis: def2-SVP
   F. Weigend and R. Ahlrichs, Phys. Chem. Chem. Phys. 7, 3297 (2005).

================================================================================
                                        WARNINGS
                       Please study these warnings very carefully!
================================================================================


WARNING: your system is open-shell and RHF/RKS was chosen
  ===> : WILL SWITCH to UHF/UKS


WARNING: MDCI localization with Augmented Hessian Foster-Boys
  ===> : Switching off randomization!

WARNING: Post HF methods need fully converged wavefunctions
  ===> : Setting SCFConvForced true
         You can overwrite this default with %scf ConvForced false 


INFO   : the flag for use of LIBINT has been found!

================================================================================
                                       INPUT FILE
================================================================================
NAME = 08_O.in
|  1> #
|  2> # 08_O CCSD(T)/Def2-SVP
|  3> #
|  4> ! CCSD(T) Def2-SVP tightscf
|  5> 
|  6> *xyz 0 3
|  7>  O 0.0 0.0 0.0
|  8> *
|  9> 
| 10> %maxcore 5000 
| 11> 
| 12> %pal
| 13> nprocs 15
| 14> end
| 15> 
| 16> 
| 17>                          ****END OF INPUT****
================================================================================

                       ****************************
                       * Single Point Calculation *
                       ****************************

---------------------------------
CARTESIAN COORDINATES (ANGSTROEM)
---------------------------------
  O      0.000000    0.000000    0.000000

----------------------------
CARTESIAN COORDINATES (A.U.)
----------------------------
  NO LB      ZA    FRAG     MASS         X           Y           Z
   0 O     8.0000    0    15.999    0.000000    0.000000    0.000000

--------------------------------
INTERNAL COORDINATES (ANGSTROEM)
--------------------------------
 O      0   0   0     0.000000000000     0.00000000     0.00000000

---------------------------
INTERNAL COORDINATES (A.U.)
---------------------------
 O      0   0   0     0.000000000000     0.00000000     0.00000000

---------------------
BASIS SET INFORMATION
---------------------
There are 1 groups of distinct atoms

 Group   1 Type O   : 7s4p1d contracted to 3s2p1d pattern {511/31/1}

Atom   0O    basis set group =>   1

Checking for AutoStart:
The File: 08_O.gbw exists
Trying to determine its content:
     ... Fine, the file contains calculation information
     ... Fine, the calculation information was read
     ... Fine, the file contains a basis set
     ... Fine, the basis set was read
     ... Fine, the file contains a geometry
     ... Fine, the geometry was read
     ... Fine, the file contains a set of orbitals
     ... Fine, the orbitals can be read
     => possible old guess file was deleted
     => GBW file was renamed to GES file
     => GES file is set as startup file
     => Guess is set to MORead
     ... now leaving AutoStart



           ************************************************************
           *        Program running with 15 parallel MPI-processes    *
           *              working on a common directory               *
           ************************************************************
------------------------------------------------------------------------------
                           ORCA GTO INTEGRAL CALCULATION
------------------------------------------------------------------------------

                         BASIS SET STATISTICS AND STARTUP INFO

 # of primitive gaussian shells          ...   12
 # of primitive gaussian functions       ...   24
 # of contracted shells                  ...    6
 # of contracted basis functions         ...   14
 Highest angular momentum                ...    2
 Maximum contraction depth               ...    5
 Integral package used                   ... LIBINT
 Integral threshhold            Thresh   ...  2.500e-11
 Primitive cut-off              TCut     ...  2.500e-12


------------------------------ INTEGRAL EVALUATION ----------------------------


 * One electron integrals 
 Pre-screening matrix                    ... done
 Shell pair data                         ... done (   0.000 sec)



           ************************************************************
           *        Program running with 15 parallel MPI-processes    *
           *              working on a common directory               *
           ************************************************************
-------------------------------------------------------------------------------
                                 ORCA SCF
-------------------------------------------------------------------------------

------------
SCF SETTINGS
------------
Hamiltonian:
 Ab initio Hamiltonian  Method          .... Hartree-Fock(GTOs)


General Settings:
 Integral files         IntName         .... 08_O
 Hartree-Fock type      HFTyp           .... UHF
 Total Charge           Charge          ....    0
 Multiplicity           Mult            ....    3
 Number of Electrons    NEL             ....    8
 Basis Dimension        Dim             ....   14
 Nuclear Repulsion      ENuc            ....      0.0000000000 Eh

Convergence Acceleration:
 DIIS                   CNVDIIS         .... on
   Start iteration      DIISMaxIt       ....    12
   Startup error        DIISStart       ....  0.200000
   # of expansion vecs  DIISMaxEq       ....     5
   Bias factor          DIISBfac        ....   1.050
   Max. coefficient     DIISMaxC        ....  10.000
 Newton-Raphson         CNVNR           .... off
 SOSCF                  CNVSOSCF        .... off
 Level Shifting         CNVShift        .... on
   Level shift para.    LevelShift      ....    0.2500
   Turn off err/grad.   ShiftErr        ....    0.0010
 Zerner damping         CNVZerner       .... off
 Static damping         CNVDamp         .... on
   Fraction old density DampFac         ....    0.7000
   Max. Damping (<1)    DampMax         ....    0.9800
   Min. Damping (>=0)   DampMin         ....    0.0000
   Turn off err/grad.   DampErr         ....    0.1000
 Fernandez-Rico         CNVRico         .... off

SCF Procedure:
 Maximum # iterations   MaxIter         ....   125
 SCF integral mode      SCFMode         .... Direct
   Integral package                     .... LIBINT
 Reset frequency        DirectResetFreq ....    20
 Integral Threshold     Thresh          ....  2.500e-11 Eh
 Primitive CutOff       TCut            ....  2.500e-12 Eh

Convergence Tolerance:
 Convergence Check Mode ConvCheckMode   .... Total+1el-Energy
 Convergence forced     ConvForced      .... 1
 Energy Change          TolE            ....  1.000e-08 Eh
 1-El. energy change                    ....  1.000e-05 Eh
 DIIS Error             TolErr          ....  5.000e-07


Diagonalization of the overlap matrix:
Smallest eigenvalue                        ... 1.875e-01
Time for diagonalization                   ...    0.001 sec
Threshold for overlap eigenvalues          ... 1.000e-08
Number of eigenvalues below threshold      ... 0
Time for construction of square roots      ...    0.008 sec
Total time needed                          ...    0.009 sec

---------------------
INITIAL GUESS: MOREAD
---------------------
Guess MOs are being read from file: 08_O.ges
Input Geometry matches current geometry (good)
Input basis set matches current basis set (good)
MOs were renormalized
MOs were reorthogonalized (Cholesky)
                      ------------------
                      INITIAL GUESS DONE (   0.0 sec)
                      ------------------
--------------
SCF ITERATIONS
--------------
ITER       Energy         Delta-E        Max-DP      RMS-DP      [F,P]     Damp
               ***  Starting incremental Fock matrix formation  ***
  0    -74.7201009237   0.000000000000 0.00000020  0.00000002  0.0000000 0.7000
                 **** Energy Check signals convergence ****

               *****************************************************
               *                     SUCCESS                       *
               *           SCF CONVERGED AFTER   1 CYCLES          *
               *****************************************************


----------------
TOTAL SCF ENERGY
----------------

Total Energy       :          -74.72010092 Eh           -2033.23731 eV

Components:
Nuclear Repulsion  :            0.00000000 Eh               0.00000 eV
Electronic Energy  :          -74.72010092 Eh           -2033.23731 eV
One Electron Energy:         -103.16455394 Eh           -2807.25023 eV
Two Electron Energy:           28.44445301 Eh             774.01292 eV

Virial components:
Potential Energy   :         -149.44813503 Eh           -4066.69050 eV
Kinetic Energy     :           74.72803411 Eh            2033.45319 eV
Virial Ratio       :            1.99989384


---------------
SCF CONVERGENCE
---------------

  Last Energy change         ...    8.2423e-13  Tolerance :   1.0000e-08
  Last MAX-Density change    ...    1.9164e-07  Tolerance :   1.0000e-07
  Last RMS-Density change    ...    1.7201e-08  Tolerance :   5.0000e-09
  Last DIIS Error            ...    2.1182e-08  Tolerance :   5.0000e-07

             **** THE GBW FILE WAS UPDATED (08_O.gbw) ****
             **** DENSITY FILE WAS UPDATED (08_O.scfp) ****
             **** ENERGY FILE WAS UPDATED (08_O.en.tmp) ****
----------------------
UHF SPIN CONTAMINATION
----------------------

Expectation value of <S**2>     :     2.005296
Ideal value S*(S+1) for S=1.0   :     2.000000
Deviation                       :     0.005296

             **** THE GBW FILE WAS UPDATED (08_O.gbw) ****
             **** DENSITY FILE WAS UPDATED (08_O.scfp) ****
----------------
ORBITAL ENERGIES
----------------
                 SPIN UP ORBITALS
  NO   OCC          E(Eh)            E(eV) 
   0   1.0000     -20.696919      -563.1918 
   1   1.0000      -1.385019       -37.6883 
   2   1.0000      -0.703010       -19.1299 
   3   1.0000      -0.703010       -19.1299 
   4   1.0000      -0.606181       -16.4950 
   5   0.0000       0.961081        26.1523 
   6   0.0000       1.067300        29.0427 
   7   0.0000       1.067300        29.0427 
   8   0.0000       1.128041        30.6955 
   9   0.0000       2.792865        75.9977 
  10   0.0000       2.792865        75.9977 
  11   0.0000       2.859862        77.8208 
  12   0.0000       2.859862        77.8208 
  13   0.0000       2.883587        78.4664 

                 SPIN DOWN ORBITALS
  NO   OCC          E(Eh)            E(eV) 
   0   1.0000     -20.615252      -560.9695 
   1   1.0000      -1.048279       -28.5251 
   2   1.0000      -0.517979       -14.0949 
   3   0.0000       0.128772         3.5041 
   4   0.0000       0.128772         3.5041 
   5   0.0000       1.053444        28.6657 
   6   0.0000       1.172858        31.9151 
   7   0.0000       1.290035        35.1036 
   8   0.0000       1.290035        35.1036 
   9   0.0000       2.985698        81.2450 
  10   0.0000       2.997032        81.5534 
  11   0.0000       2.997032        81.5534 
  12   0.0000       3.036463        82.6264 
  13   0.0000       3.036463        82.6264 

                    ********************************
                    * MULLIKEN POPULATION ANALYSIS *
                    ********************************

--------------------------------------------
MULLIKEN ATOMIC CHARGES AND SPIN POPULATIONS
--------------------------------------------
   0 O :    0.000000    2.000000
Sum of atomic charges         :    0.0000000
Sum of atomic spin populations:    2.0000000

-----------------------------------------------------
MULLIKEN REDUCED ORBITAL CHARGES AND SPIN POPULATIONS
-----------------------------------------------------
CHARGE
  0 O s       :     3.999141  s :     3.999141
      pz      :     1.002101  p :     4.000000
      px      :     1.021149
      py      :     1.976750
      dz2     :     0.000212  d :     0.000859
      dxz     :     0.000000
      dyz     :     0.000005
      dx2y2   :     0.000588
      dxy     :     0.000053

SPIN
  0 O s       :     0.000167  s :     0.000167
      pz      :     0.997899  p :     2.000000
      px      :     0.978851
      py      :     0.023250
      dz2     :    -0.000041  d :    -0.000167
      dxz     :    -0.000000
      dyz     :    -0.000001
      dx2y2   :    -0.000115
      dxy     :    -0.000010


                     *******************************
                     * LOEWDIN POPULATION ANALYSIS *
                     *******************************

-------------------------------------------
LOEWDIN ATOMIC CHARGES AND SPIN POPULATIONS
-------------------------------------------
   0 O :    0.000000    2.000000

----------------------------------------------------
LOEWDIN REDUCED ORBITAL CHARGES AND SPIN POPULATIONS
----------------------------------------------------
CHARGE
  0 O s       :     3.999141  s :     3.999141
      pz      :     1.002101  p :     4.000000
      px      :     1.021149
      py      :     1.976750
      dz2     :     0.000212  d :     0.000859
      dxz     :     0.000000
      dyz     :     0.000005
      dx2y2   :     0.000588
      dxy     :     0.000053

SPIN
  0 O s       :     0.000167  s :     0.000167
      pz      :     0.997899  p :     2.000000
      px      :     0.978851
      py      :     0.023250
      dz2     :    -0.000041  d :    -0.000167
      dxz     :    -0.000000
      dyz     :    -0.000001
      dx2y2   :    -0.000115
      dxy     :    -0.000010


                      *****************************
                      * MAYER POPULATION ANALYSIS *
                      *****************************

  NA   - Mulliken gross atomic population
  ZA   - Total nuclear charge
  QA   - Mulliken gross atomic charge
  VA   - Mayer's total valence
  BVA  - Mayer's bonded valence
  FA   - Mayer's free valence

  ATOM       NA         ZA         QA         VA         BVA        FA
  0 O      8.0000     8.0000     0.0000     2.0106     0.0000     2.0106

  Mayer bond orders larger than 0.100000


-------
TIMINGS
-------

Total SCF time: 0 days 0 hours 1 min 40 sec 

Total time                  ....     100.635 sec
Sum of individual times     ....     100.344 sec  ( 99.7%)

Fock matrix formation       ....       0.281 sec  (  0.3%)
Diagonalization             ....       0.005 sec  (  0.0%)
Density matrix formation    ....       0.000 sec  (  0.0%)
Population analysis         ....     100.053 sec  ( 99.4%)
Initial guess               ....       0.004 sec  (  0.0%)
Orbital Transformation      ....       0.000 sec  (  0.0%)
Orbital Orthonormalization  ....       0.000 sec  (  0.0%)
DIIS solution               ....       0.000 sec  (  0.0%)


           ************************************************************
           *        Program running with 15 parallel MPI-processes    *
           *              working on a common directory               *
           ************************************************************


------------------------------------------------------------------------------- 
                              ORCA-MATRIX DRIVEN CI                            
------------------------------------------------------------------------------- 

--------------------------------
AUTOMATIC CHOICE OF INCORE LEVEL
--------------------------------

Memory available                           ...   2500.00 MB
Memory needed for S+T                      ...      0.02 MB
Memory needed for J+K                      ...      0.04 MB
Memory needed for DIIS                     ...      0.26 MB
Memory needed for 3-ext                    ...      0.02 MB
Memory needed for 4-ext                    ...      0.03 MB
Memory needed for triples                  ...      0.03 MB
 -> Final InCoreLevel    ... 5
 -> check shows that triples correction can be computed


Wavefunction type
-----------------
Correlation treatment                      ...      CCSD     
Single excitations                         ... ON
Orbital optimization                       ... OFF
Calculation of Z vector                    ... OFF
Calculation of Brueckner orbitals          ... OFF
Perturbative triple excitations            ... ON
Calculation of F12 correction              ... OFF
Frozen core treatment                      ... chemical core (2 el)
Reference Wavefunction                     ... UHF
  Alpha-MOs occ    :     1 ...    4 (  4 MO's/  4 electrons)
  Beta-MOs occ     :     1 ...    2 (  2 MO's/  2 electrons)
  Alpha-MOs virt   :     5 ...   13 (  9 MO's              )
  Beta-MOs virt    :     3 ...   13 ( 11 MO's              )
Number of AO's                             ...     14
Number of electrons                        ...      8
Number of correlated electrons             ...      6

Algorithmic settings
--------------------
Integral transformation                    ... AO direct full transformation
K(C) Formation                             ... FULL-MO TRAFO
Maximum number of iterations               ...        50
Convergence tolerance (max. residuum)      ... 1.000e-05
Level shift for amplitude update           ... 2.000e-01
Maximum number of DIIS vectors             ...         7
DIIS turned on at iteration                ...         0
Damping before turning on DIIS             ...     0.500
Damping after turning on DIIS              ...     0.000
Pair specific amplitude update             ... OFF
Natural orbital iterations                 ... OFF
Perturbative natural orbital generation    ... OFF
Printlevel                                 ... 2

Memory handling:
----------------
Maximum memory for working arrays          ...   2500 MB
Data storage in matrix containers          ... UNCOMPRESSED
Data type for integral storage             ... DOUBLE
In-Core Storage of quantities:
   Amplitudes+Sigma Vector      ... YES
   J+K operators                ... YES
   DIIS vectors                 ... YES
   3-external integrals         ... YES
   4-external integrals         ... YES


Initializing the integral package          ... done
Warning: reference  - re-canonicalizations have been set to INT 1 VIRT 1

--------------------------
UNRESTRICTED FOCK OPERATOR
--------------------------

<ss|ss>:           21 b            0 skpd (  0.0%)    0.000 s ( 0.002 ms/b)
<ss|sp>:           36 b            0 skpd (  0.0%)    0.000 s ( 0.001 ms/b)
<ss|sd>:           18 b            0 skpd (  0.0%)    0.000 s ( 0.001 ms/b)
<ss|pp>:           18 b            0 skpd (  0.0%)    0.000 s ( 0.002 ms/b)
<ss|pd>:           12 b            0 skpd (  0.0%)    0.000 s ( 0.002 ms/b)
<ss|dd>:            6 b            0 skpd (  0.0%)    0.000 s ( 0.003 ms/b)
<sp|sp>:           21 b            0 skpd (  0.0%)    0.000 s ( 0.001 ms/b)
<sp|sd>:           18 b            0 skpd (  0.0%)    0.000 s ( 0.001 ms/b)
<sp|pp>:           18 b            0 skpd (  0.0%)    0.000 s ( 0.003 ms/b)
<sp|pd>:           12 b            0 skpd (  0.0%)    0.000 s ( 0.004 ms/b)
<sp|dd>:            6 b            0 skpd (  0.0%)    0.000 s ( 0.006 ms/b)
<sd|sd>:            6 b            0 skpd (  0.0%)    0.000 s ( 0.002 ms/b)
<sd|pp>:            9 b            0 skpd (  0.0%)    0.000 s ( 0.003 ms/b)
<sd|pd>:            6 b            0 skpd (  0.0%)    0.000 s ( 0.006 ms/b)
<sd|dd>:            3 b            0 skpd (  0.0%)    0.000 s ( 0.012 ms/b)
<pp|pp>:            6 b            0 skpd (  0.0%)    0.000 s ( 0.009 ms/b)
<pp|pd>:            6 b            0 skpd (  0.0%)    0.000 s ( 0.009 ms/b)
<pp|dd>:            3 b            0 skpd (  0.0%)    0.000 s ( 0.015 ms/b)
<pd|pd>:            3 b            0 skpd (  0.0%)    0.000 s ( 0.019 ms/b)
<pd|dd>:            2 b            0 skpd (  0.0%)    0.000 s ( 0.032 ms/b)
<dd|dd>:            1 b            0 skpd (  0.0%)    0.000 s ( 0.061 ms/b)
Recanonicalizing the internal orbitals
Recanonicalizing the virtual orbitals
Time needed for Fock operator              ...            0.029 sec
Reference energy                           ...    -74.720100924
Warning: for UHF the TrafoType has to be JK
Warning: for UHF the K(C)-option cannot be MO but must be AOX

-------------------------------
PARTIAL EXCHANGE TRANSFORMATION
-------------------------------

Transformation type                        ... two-operators
Generation of integrals (i,mue|j,nue)      ... ON
Generation of integrals (mue,kappa|nue,tau)... ON
Generation of integrals (i,mue|a,nue)      ... ON
Dimension of the basis                     ...   14
Number of internal alpha-MOs               ...    4 (   1-   4)
Number of internal beta-MOs                ...    2 (   1-   2)
Number of external alpha-MOs               ...    9 (   5-  13)
Number of external beta-MOs                ...   11 (   3-  13)
Pair cutoff                                ... 0.000e+00 Eh
Number of AO pairs in the trafo            ...  105
Total Number of distinct AO pairs          ...  105
Memory devoted for trafo                   ... 2500.0 MB 
Max. Number of MO pairs treated together   ... 1671836      
Number Format for Storage                  ... Double (8 Byte)
Integral package used                      ... LIBINT

Starting integral evaluation:
    ... done with AO integral generation
Closing buffer AOK[aa] ( 0.00 GB; CompressionRatio= 0.00)
Closing buffer AOK[bb] ( 0.00 GB; CompressionRatio= 0.00)
Closing buffer AOK[ab] ( 0.00 GB; CompressionRatio= 0.00)
Closing buffer AOK[ba] ( 0.00 GB; CompressionRatio= 0.00)
Collecting buffer AOK 
Closing buffer IAAO1[aa] ( 0.00 GB; CompressionRatio= 0.00)
Closing buffer IAAO1[bb] ( 0.00 GB; CompressionRatio= 0.00)
Closing buffer IAAO1[ab] ( 0.00 GB; CompressionRatio= 0.00)
Closing buffer IAAO1[ba] ( 0.00 GB; CompressionRatio= 0.00)
Closing buffer IAAO2[aa] ( 0.00 GB; CompressionRatio= 0.00)
Closing buffer IAAO2[bb] ( 0.00 GB; CompressionRatio= 0.00)
Closing buffer IAAO2[ab] ( 0.00 GB; CompressionRatio= 0.00)
Closing buffer IAAO2[ba] ( 0.00 GB; CompressionRatio= 0.00)
Collecting buffer IAAO 
Closing buffer PRQS    ( 0.00 GB; CompressionRatio= 0.00)
Collecting buffer PRQS 
Number of alpha/alpha MO pairs in trafo    ...   10
Number of beta /beta  MO pairs in trafo    ...    3
Number of alpha/ beta MO pairs in trafo    ...    8
------------------------
SORTING OF (i,mue|j,nue)
------------------------

SORTING OF ALPHA/ALPHA PAIRS
IBATCH = 1 of  1
Closing buffer KAO[aa] ( 0.00 GB; CompressionRatio= 0.99)
Collecting buffer KAO 
SORTING OF BETA /BETA  PAIRS
IBATCH = 1 of  1
Closing buffer KAO[bb] ( 0.00 GB; CompressionRatio= 0.99)
Collecting buffer KAO 
SORTING OF ALPHA/BETA  PAIRS
IBATCH = 1 of  1
Closing buffer KAO[ab] ( 0.00 GB; CompressionRatio= 0.992405063291)
Collecting buffer KAO[ab] 
------------------------
SORTING OF (i,mue|a,nue)
------------------------

Number of alpha/alpha (i,a) pairs in trafo  ...   36
Number of beta /beta  (i,a) pairs in trafo  ...   22
Number of alpha/ beta (i,a) pairs in trafo  ...   44
Number of beta /alpha (i,a) pairs in trafo  ...   18
Setting up the alpha/alpha list             ... done
Setting up the beta /beta  list             ... done
Setting up the alpha/beta  list             ... done
Setting up the beta /alpha list             ... done
    ... Now sorting (i,mue|a,nue)integrals
    ... Integrals (i,b|a,c) will be made on the fly
SORTING OF ALPHA/ALPHA PAIRS
IBATCH = 1 of  1
Closing buffer IPAQ[aa]  0.00 GB; CompressionRatio= 1.00)
SORTING OF BETA /BETA  PAIRS
IBATCH = 1 of  1
Closing buffer IPAQ[bb]( 0.00 GB; CompressionRatio= 1.00)
SORTING OF ALPHA/BETA  PAIRS (NMatSort_ab=3)
IBATCH = 1 of  1
Closing buffer IPAQ[ab]( 0.00 GB; CompressionRatio= 1.00)
SORTING OF BETA/ALPHA  PAIRS
IBATCH = 1 of  1
Closing buffer IPAQ[ba]( 0.00 GB; CompressionRatio= 1.00)
N(AO-Batches) Done                         ...         0 
N(AO-Batches) Skipped                      ...         0 
N(IJ)-pairs Skipped                        ...         0 
TOTAL TIME for half transformation         ...     0.890 sec
AO-integral generation                     ...     0.000 sec
Half transformation                        ...     0.000 sec
K-integral sorting                         ...     0.443 sec
<ss|**>: 
------------------------------
PARTIAL COULOMB TRANSFORMATION
------------------------------

Transformation type                        ... two-operators
Dimension of the basis                     ...   14
Number of internal alpha-MOs               ...    4 (1-4)
Number of internal beta-MOs                ...    2 (1-2)
Pair cutoff                                ... 0.000e+00 Eh
Number of AO pairs included in the trafo   ...  105
Total Number of distinct AO pairs          ...  105
Memory devoted for trafo                   ... 2500.0 MB 
Max. Number of MO pairs treated together   ... 3120761      
Max. Number of MOs treated per batch       ... 222911      
Number Format for Storage                  ... Double (8 Byte)
AO-integral source                         ... DIRECT
Integral package used                      ... LIBINT

Starting integral evaluation:
<sp|**>:          126 b        0 skpd     0.001 s (  0.005 ms/b)
<sd|**>:          126 b        0 skpd     0.003 s (  0.027 ms/b)
<pp|**>:           63 b        0 skpd     0.004 s (  0.062 ms/b)
<pd|**>:           63 b        0 skpd     0.006 s (  0.103 ms/b)
<dd|**>:           42 b        0 skpd     0.010 s (  0.243 ms/b)
          21 b        0 skpd     0.009 s (  0.422 ms/b)
Closing buffer AOJ[aa] ( 0.00 GB; CompressionRatio= 0.87)
Closing buffer AOJ[bb] ( 0.00 GB; CompressionRatio= 0.00)
Collecting buffer AOJ 
    ... done with AO integral generation
Number of Alpha-MO pairs included          ...   10
Number of Beta-MO pairs included           ...    3
    ... Now sorting integrals
SORTING ALPHA/ALPHA PAIRS
IBATCH = 1 of  1
Closing buffer JAO[aa] ( 0.00 GB; CompressionRatio= 0.99)
SORTING BETA/BETA PAIRS
IBATCH = 1 of  1
Closing buffer JAO[bb] ( 0.00 GB; CompressionRatio= 0.99)
Collecting buffer JAO 
TOTAL TIME for half transformation         ...     0.099 sec
AO-integral generation                     ...     0.030 sec
Half transformation                        ...     0.003 sec
J-integral sorting                         ...     0.039 sec

-------------------------- SECOND HALF TRANSFORMATION -------------------------
Formation of (ij|kl),(ij|ka), (ij|ab)      ... ok (     0.053 sec)
Formation of (ik|jl),(ik|ja), (ia|jb)      ... ok (     0.089 sec)


-----------------------
SPIN UNRESTRICTED GUESS
-----------------------

Entering MDCI_UHF_Guess, Tailored=0
Spin-components of the MP2 energy:
EMP2(aa)=     -0.022684699
EMP2(bb)=     -0.003157548
EMP2(ab)=     -0.075459652

Initial guess performed in     0.001 sec
E(0)                                       ...    -74.720100924
E(MP2)                                     ...     -0.101301900
Initial E(tot)                             ...    -74.821402824
<T|T>                                      ...      0.022257912
Number of pairs included                   ... 15

------------------------------------------------
                  UHF COUPLED CLUSTER ITERATIONS
------------------------------------------------

Number of amplitudes to be optimized       ...         1121

Iter       E(tot)           E(Corr)          Delta-E          Residual     Time      <S|S>**1/2
  0    -74.821402824     -0.101301900     -0.000000000      0.021410865    0.02      0.000000270
                           *** Turning on DIIS ***
  1    -74.833118553     -0.113017630     -0.011715730      0.006230247    0.01      0.005408958
  2    -74.836349879     -0.116248956     -0.003231326      0.002597591    0.01      0.007904040
  3    -74.836580801     -0.116479877     -0.000230922      0.001135238    0.01      0.008589529
  4    -74.836638308     -0.116537385     -0.000057507      0.000201577    0.01      0.008781468
  5    -74.836637139     -0.116536216      0.000001169      0.000024717    0.01      0.008767237
  6    -74.836638744     -0.116537820     -0.000001605      0.000003849    0.01      0.008758098
               --- The Coupled-Cluster iterations have converged ---

----------------------
COUPLED CLUSTER ENERGY
----------------------

E(0)                                       ...    -74.720100924
E(CORR)                                    ...     -0.116537820
E(TOT)                                     ...    -74.836638744
Singles norm <S|S>**1/2                    ...      0.008758098 ( 0.006522330, 0.002235768)  
T1 diagnostic                              ...      0.003575479                              

------------------
LARGEST AMPLITUDES
------------------
   4a->  8a   2b->  6b       0.054046
   3a->  7a   2b->  6b       0.035523
   2a->  6a   2b->  6b       0.035523
   1a->  5a   2b->  6b       0.031946
   4a->  8a   1b->  5b       0.031808
   3a->  6a   2a->  7a       0.030757
   3a->  7a   2a->  6a       0.030757
   3a->  7a   1b->  5b       0.028432
   2a->  6a   1b->  5b       0.028432
   4a->  8a   2a->  6a       0.027738
   4a->  6a   2a->  8a       0.027738
   4a->  7a   3a->  8a       0.027738
   4a->  8a   3a->  7a       0.027738
   2a-> 10a   1b->  3b       0.026596
   2a->  9a   1b->  4b       0.026596
   3a->  9a   1b->  3b       0.026596

----------------------
UHF TRIPLES CORRECTION (Algorithm 1)
----------------------

Multiplier for the singles contribution    ...      1.000000000

SPIN-CASE Alpha-Alpha-Alpha:
10% done
20% done
30% done
40% done
50% done
60% done
70% done
80% done
90% done


SPIN-CASE Beta-Beta-Beta:

SPIN-CASE Alpha-Alpha-Beta:
10% done
20% done
30% done
40% done
50% done
60% done
70% done
80% done
90% done


SPIN-CASE Beta-Beta-Alpha:
10% done
20% done
30% done
40% done
50% done
60% done
70% done
80% done
90% done


Triples Correction (T)                     ...     -0.000831845
    alpha-alpha-alpha ... -0.000039976 (  4.8%)
    alpha-alpha-beta  ... -0.000610406 ( 73.4%)
    alpha-beta -beta  ... -0.000181463 ( 21.8%)
    beta -beta -beta  ...  0.000000000 ( -0.0%)
Scaling of triples based on CCSD energies (Peterson et al. Molecular Physics 113, 1551 (2015))
E(T*) = f*E(T) where f = E(F12-CCSD)/E(CCSD) 
f = CCSD (with F12)/ CCSD (without F12)    ...      1.000000000
Scaled triples correction (T)              ...     -0.000831845

Final correlation energy                   ...     -0.117369666
E(CCSD)                                    ...    -74.836638744
E(CCSD(T))                                 ...    -74.837470589



        !!!!!!!!!!!!!!!!!!!!!!!!!!!!!!!!!!!!!!!!!!!!!!!!!!!!!!!!!!!!!!!!!!!!!!!!!! 
        !  Warning: Densities are linearized densities                           !
        !!!!!!!!!!!!!!!!!!!!!!!!!!!!!!!!!!!!!!!!!!!!!!!!!!!!!!!!!!!!!!!!!!!!!!!!!! 

NORM  =      1.030391301 sqrt=     1.015081918
W(HF) =      0.970505088
------------------------------------------------------------------------------
                           ORCA POPULATION ANALYSIS
------------------------------------------------------------------------------
Input electron density              ... 08_O.mdcip
Input spin density                  ... 08_O.mdcir
BaseName (.gbw .S,...)              ... 08_O

                    ********************************
                    * MULLIKEN POPULATION ANALYSIS *
                    ********************************

------------------------------------------
MULLIKEN ATOMIC CHARGES AND SPIN DENSITIES
------------------------------------------
   0 O :    0.000000    2.000000
Sum of atomic charges       :    0.0000000
Sum of atomic spin densities:    2.0000000

---------------------------------------------------
MULLIKEN REDUCED ORBITAL CHARGES AND SPIN DENSITIES
---------------------------------------------------
CHARGE
  0 O s       :     3.989788  s :     3.989788
      pz      :     1.002707  p :     3.992956
      px      :     1.021586
      py      :     1.968664
      dz2     :     0.003314  d :     0.017256
      dxz     :     0.003187
      dyz     :     0.003581
      dx2y2   :     0.003586
      dxy     :     0.003588

SPIN
  0 O s       :     0.008483  s :     0.008483
      pz      :     0.988944  p :     1.982244
      px      :     0.970070
      py      :     0.023230
      dz2     :     0.002335  d :     0.009273
      dxz     :     0.002779
      dyz     :     0.001398
      dx2y2   :     0.001390
      dxy     :     0.001372


                     *******************************
                     * LOEWDIN POPULATION ANALYSIS *
                     *******************************

-----------------------------------------
LOEWDIN ATOMIC CHARGES AND SPIN DENSITIES
-----------------------------------------
   0 O :    0.000000    2.000000

--------------------------------------------------
LOEWDIN REDUCED ORBITAL CHARGES AND SPIN DENSITIES
--------------------------------------------------
CHARGE
  0 O s       :     3.989788  s :     3.989788
      pz      :     1.002707  p :     3.992956
      px      :     1.021586
      py      :     1.968664
      dz2     :     0.003314  d :     0.017256
      dxz     :     0.003187
      dyz     :     0.003581
      dx2y2   :     0.003586
      dxy     :     0.003588

SPIN
  0 O s       :     0.008483  s :     0.008483
      pz      :     0.988944  p :     1.982244
      px      :     0.970070
      py      :     0.023230
      dz2     :     0.002335  d :     0.009273
      dxz     :     0.002779
      dyz     :     0.001398
      dx2y2   :     0.001390
      dxy     :     0.001372


                      *****************************
                      * MAYER POPULATION ANALYSIS *
                      *****************************

  NA   - Mulliken gross atomic population
  ZA   - Total nuclear charge
  QA   - Mulliken gross atomic charge
  VA   - Mayer's total valence
  BVA  - Mayer's bonded valence
  FA   - Mayer's free valence

  ATOM       NA         ZA         QA         VA         BVA        FA
  0 O      8.0000     8.0000     0.0000     2.1927     0.0000     2.1927





------------------------------------------------------------------------------- 
                                     TIMINGS                                   
------------------------------------------------------------------------------- 


Total execution time                   ...        1.511 sec

Fock Matrix Formation                  ...        0.029 sec (  1.9%)
Initial Guess                          ...        0.001 sec (  0.0%)
DIIS Solver                            ...        0.003 sec (  0.2%)
State Vector Update                    ...        0.000 sec (  0.0%)
Sigma-vector construction              ...        0.054 sec (  3.5%)
  <D|H|D>(4-ext)                       ...        0.029 sec ( 53.8% of sigma)
  Fock-dressing                        ...        0.006 sec ( 11.6% of sigma)
  (ij|ab),(ia|jb)-dressing             ...        0.011 sec ( 19.9% of sigma)
Total Time for computing (T)           ...        0.001 sec (  0.0% of ALL)


-------------------------   --------------------
FINAL SINGLE POINT ENERGY       -74.837470589305
-------------------------   --------------------


                            ***************************************
                            *     ORCA property calculations      *
                            ***************************************

                                    ---------------------
                                    Active property flags
                                    ---------------------
   (+) Dipole Moment


------------------------------------------------------------------------------
                       ORCA ELECTRIC PROPERTIES CALCULATION
------------------------------------------------------------------------------

Dipole Moment Calculation                       ... on
Quadrupole Moment Calculation                   ... off
Polarizability Calculation                      ... off
GBWName                                         ... 08_O.gbw
Electron density file                           ... 08_O.scfp
The origin for moment calculation is the CENTER OF MASS  = ( 0.000000,  0.000000  0.000000)

-------------
DIPOLE MOMENT
-------------
                                X             Y             Z
Electronic contribution:     -0.00000       0.00000      -0.00000
Nuclear contribution   :      0.00000       0.00000       0.00000
                        -----------------------------------------
Total Dipole Moment    :     -0.00000       0.00000      -0.00000
                        -----------------------------------------
Magnitude (a.u.)       :      0.00000
Magnitude (Debye)      :      0.00000



--------------------
Rotational spectrum 
--------------------
 
Rotational constants in cm-1:     0.000000     0.000000     0.000000 
Rotational constants in MHz :     0.000000     0.000000     0.000000 

 Dipole components along the rotational axes: 
x,y,z [a.u.] :    -0.000000     0.000000    -0.000000 
x,y,z [Debye]:    -0.000000     0.000000    -0.000000 

 

                           *** MDCI DENSITY ***

------------------------------------------------------------------------------
                       ORCA ELECTRIC PROPERTIES CALCULATION
------------------------------------------------------------------------------

Dipole Moment Calculation                       ... on
Quadrupole Moment Calculation                   ... off
Polarizability Calculation                      ... off
GBWName                                         ... 08_O.gbw
Electron density file                           ... 08_O.mdcip
The origin for moment calculation is the CENTER OF MASS  = ( 0.000000,  0.000000  0.000000)

-------------
DIPOLE MOMENT
-------------
                                X             Y             Z
Electronic contribution:     -0.00000       0.00000      -0.00000
Nuclear contribution   :      0.00000       0.00000       0.00000
                        -----------------------------------------
Total Dipole Moment    :     -0.00000       0.00000      -0.00000
                        -----------------------------------------
Magnitude (a.u.)       :      0.00000
Magnitude (Debye)      :      0.00000



--------------------
Rotational spectrum 
--------------------
 
Rotational constants in cm-1:     0.000000     0.000000     0.000000 
Rotational constants in MHz :     0.000000     0.000000     0.000000 

 Dipole components along the rotational axes: 
x,y,z [a.u.] :    -0.000000     0.000000    -0.000000 
x,y,z [Debye]:    -0.000000     0.000000    -0.000000 

 

Timings for individual modules:

Sum of individual times         ...      103.726 sec (=   1.729 min)
GTO integral calculation        ...        0.699 sec (=   0.012 min)   0.7 %
SCF iterations                  ...      101.046 sec (=   1.684 min)  97.4 %
MDCI module                     ...        1.981 sec (=   0.033 min)   1.9 %
                             ****ORCA TERMINATED NORMALLY****
TOTAL RUN TIME: 0 days 0 hours 1 minutes 44 seconds 551 msec
