
                                 *****************
                                 * O   R   C   A *
                                 *****************

           --- An Ab Initio, DFT and Semiempirical electronic structure package ---

                  #######################################################
                  #                        -***-                        #
                  #          Department of theory and spectroscopy      #
                  #               Directorship: Frank Neese             #
                  #        Max Planck Institute fuer Kohlenforschung    #
                  #                Kaiser Wilhelm Platz 1               #
                  #                 D-45470 Muelheim/Ruhr               #
                  #                      Germany                        #
                  #                                                     #
                  #                  All rights reserved                #
                  #                        -***-                        #
                  #######################################################


                         Program Version 4.2.0 -  RELEASE  -


 With contributions from (in alphabetic order):
   Daniel Aravena         : Magnetic Suceptibility
   Michael Atanasov       : Ab Initio Ligand Field Theory (pilot matlab implementation)
   Alexander A. Auer      : GIAO ZORA, VPT2
   Ute Becker             : Parallelization
   Giovanni Bistoni       : ED, misc. LED, open-shell LED, HFLED
   Martin Brehm           : Molecular dynamics
   Dmytro Bykov           : SCF Hessian
   Vijay G. Chilkuri      : MRCI spin determinant printing, contributions to CSF-ICE
   Dipayan Datta          : RHF DLPNO-CCSD density
   Achintya Kumar Dutta   : EOM-CC, STEOM-CC
   Dmitry Ganyushin       : Spin-Orbit,Spin-Spin,Magnetic field MRCI
   Miquel Garcia          : C-PCM Hessian, Gaussian charge scheme
   Yang Guo               : DLPNO-NEVPT2, CIM, IAO-localization
   Andreas Hansen         : Spin unrestricted coupled pair/coupled cluster methods
   Benjamin Helmich-Paris : CASSCF linear response (MC-RPA)
   Lee Huntington         : MR-EOM, pCC
   Robert Izsak           : Overlap fitted RIJCOSX, COSX-SCS-MP3, EOM
   Christian Kollmar      : KDIIS, OOCD, Brueckner-CCSD(T), CCSD density
   Simone Kossmann        : Meta GGA functionals, TD-DFT gradient, OOMP2, MP2 Hessian
   Martin Krupicka        : AUTO-CI
   Lucas Lang             : DCDCAS
   Dagmar Lenk            : GEPOL surface, SMD
   Dimitrios Liakos       : Extrapolation schemes; Compound Job, initial MDCI parallelization
   Dimitrios Manganas     : Further ROCIS development; embedding schemes
   Dimitrios Pantazis     : SARC Basis sets
   Taras Petrenko         : DFT Hessian,TD-DFT gradient, ASA, ECA, R-Raman, ABS, FL, XAS/XES, NRVS
   Peter Pinski           : DLPNO-MP2, DLPNO-MP2 Gradient
   Christoph Reimann      : Effective Core Potentials
   Marius Retegan         : Local ZFS, SOC
   Christoph Riplinger    : Optimizer, TS searches, QM/MM, DLPNO-CCSD(T), (RO)-DLPNO pert. Triples
   Tobias Risthaus        : Range-separated hybrids, TD-DFT gradient, RPA, STAB
   Michael Roemelt        : Original ROCIS implementation
   Masaaki Saitow         : Open-shell DLPNO-CCSD energy and density
   Barbara Sandhoefer     : DKH picture change effects
   Avijit Sen             : IP-ROCIS
   Kantharuban Sivalingam : CASSCF convergence, NEVPT2, FIC-MRCI
   Bernardo de Souza      : ESD, SOC TD-DFT
   Georgi Stoychev        : AutoAux, RI-MP2 NMR
   Willem Van den Heuvel  : Paramagnetic NMR
   Boris Wezisla          : Elementary symmetry handling
   Frank Wennmohs         : Technical directorship


 We gratefully acknowledge several colleagues who have allowed us to
 interface, adapt or use parts of their codes:
   Stefan Grimme, W. Hujo, H. Kruse,             : VdW corrections, initial TS optimization,
                  C. Bannwarth                     DFT functionals, gCP, sTDA/sTD-DF
   Ed Valeev, F. Pavosevic, A. Kumar             : LibInt (2-el integral package), F12 methods
   Garnet Chan, S. Sharma, J. Yang, R. Olivares  : DMRG
   Ulf Ekstrom                                   : XCFun DFT Library
   Mihaly Kallay                                 : mrcc  (arbitrary order and MRCC methods)
   Andreas Klamt, Michael Diedenhofen            : otool_cosmo (COSMO solvation model)
   Jiri Pittner, Ondrej Demel                    : Mk-CCSD
   Frank Weinhold                                : gennbo (NPA and NBO analysis)
   Christopher J. Cramer and Donald G. Truhlar   : smd solvation model
   Lars Goerigk                                  : TD-DFT with DH, B97 family of functionals
   V. Asgeirsson, H. Jonsson                     : NEB implementation
   FAccTs GmbH                                   : IRC, NEB, NEB-TS, Multilevel, MM, QM/MM, CI optimization
   S Lehtola, MJT Oliveira, MAL Marques          : LibXC Library


 Your calculation uses the libint2 library for the computation of 2-el integrals
 For citations please refer to: http://libint.valeyev.net

 Your ORCA version has been built with support for libXC version: 4.2.3
 For citations please refer to: https://tddft.org/programs/libxc/

 This ORCA versions uses:
   CBLAS   interface :  Fast vector & matrix operations
   LAPACKE interface :  Fast linear algebra routines
   SCALAPACK package :  Parallel linear algebra routines


----- Orbital basis set information -----
Your calculation utilizes the basis: def2-SVP
   F. Weigend and R. Ahlrichs, Phys. Chem. Chem. Phys. 7, 3297 (2005).

================================================================================
                                        WARNINGS
                       Please study these warnings very carefully!
================================================================================


WARNING: your system is open-shell and RHF/RKS was chosen
  ===> : WILL SWITCH to UHF/UKS


WARNING: MDCI localization with Augmented Hessian Foster-Boys
  ===> : Switching off randomization!

WARNING: Post HF methods need fully converged wavefunctions
  ===> : Setting SCFConvForced true
         You can overwrite this default with %scf ConvForced false 


INFO   : the flag for use of LIBINT has been found!

================================================================================
                                       INPUT FILE
================================================================================
NAME = 15_P.in
|  1> #
|  2> # 15_P CCSD(T)/Def2-SVP
|  3> #
|  4> ! CCSD(T) Def2-SVP tightscf
|  5> 
|  6> *xyz 0 4
|  7>  P 0.0 0.0 0.0
|  8> *
|  9> 
| 10> %maxcore 5000 
| 11> 
| 12> %pal
| 13> nprocs 10
| 14> end
| 15> 
| 16> 
| 17>                          ****END OF INPUT****
================================================================================

                       ****************************
                       * Single Point Calculation *
                       ****************************

---------------------------------
CARTESIAN COORDINATES (ANGSTROEM)
---------------------------------
  P      0.000000    0.000000    0.000000

----------------------------
CARTESIAN COORDINATES (A.U.)
----------------------------
  NO LB      ZA    FRAG     MASS         X           Y           Z
   0 P    15.0000    0    30.974    0.000000    0.000000    0.000000

--------------------------------
INTERNAL COORDINATES (ANGSTROEM)
--------------------------------
 P      0   0   0     0.000000000000     0.00000000     0.00000000

---------------------------
INTERNAL COORDINATES (A.U.)
---------------------------
 P      0   0   0     0.000000000000     0.00000000     0.00000000

---------------------
BASIS SET INFORMATION
---------------------
There are 1 groups of distinct atoms

 Group   1 Type P   : 10s7p1d contracted to 4s3p1d pattern {5311/511/1}

Atom   0P    basis set group =>   1

Checking for AutoStart:
The File: 15_P.gbw exists
Trying to determine its content:
     ... Fine, the file contains calculation information
     ... Fine, the calculation information was read
     ... Fine, the file contains a basis set
     ... Fine, the basis set was read
     ... Fine, the file contains a geometry
     ... Fine, the geometry was read
     ... Fine, the file contains a set of orbitals
     ... Fine, the orbitals can be read
     => possible old guess file was deleted
     => GBW file was renamed to GES file
     => GES file is set as startup file
     => Guess is set to MORead
     ... now leaving AutoStart



           ************************************************************
           *        Program running with 10 parallel MPI-processes    *
           *              working on a common directory               *
           ************************************************************
------------------------------------------------------------------------------
                           ORCA GTO INTEGRAL CALCULATION
------------------------------------------------------------------------------

                         BASIS SET STATISTICS AND STARTUP INFO

 # of primitive gaussian shells          ...   18
 # of primitive gaussian functions       ...   36
 # of contracted shells                  ...    8
 # of contracted basis functions         ...   18
 Highest angular momentum                ...    2
 Maximum contraction depth               ...    5
 Integral package used                   ... LIBINT
 Integral threshhold            Thresh   ...  2.500e-11
 Primitive cut-off              TCut     ...  2.500e-12


------------------------------ INTEGRAL EVALUATION ----------------------------


 * One electron integrals 
 Pre-screening matrix                    ... done
 Shell pair data                         ... done (   0.000 sec)



           ************************************************************
           *        Program running with 10 parallel MPI-processes    *
           *              working on a common directory               *
           ************************************************************
-------------------------------------------------------------------------------
                                 ORCA SCF
-------------------------------------------------------------------------------

------------
SCF SETTINGS
------------
Hamiltonian:
 Ab initio Hamiltonian  Method          .... Hartree-Fock(GTOs)


General Settings:
 Integral files         IntName         .... 15_P
 Hartree-Fock type      HFTyp           .... UHF
 Total Charge           Charge          ....    0
 Multiplicity           Mult            ....    4
 Number of Electrons    NEL             ....   15
 Basis Dimension        Dim             ....   18
 Nuclear Repulsion      ENuc            ....      0.0000000000 Eh

Convergence Acceleration:
 DIIS                   CNVDIIS         .... on
   Start iteration      DIISMaxIt       ....    12
   Startup error        DIISStart       ....  0.200000
   # of expansion vecs  DIISMaxEq       ....     5
   Bias factor          DIISBfac        ....   1.050
   Max. coefficient     DIISMaxC        ....  10.000
 Newton-Raphson         CNVNR           .... off
 SOSCF                  CNVSOSCF        .... off
 Level Shifting         CNVShift        .... on
   Level shift para.    LevelShift      ....    0.2500
   Turn off err/grad.   ShiftErr        ....    0.0010
 Zerner damping         CNVZerner       .... off
 Static damping         CNVDamp         .... on
   Fraction old density DampFac         ....    0.7000
   Max. Damping (<1)    DampMax         ....    0.9800
   Min. Damping (>=0)   DampMin         ....    0.0000
   Turn off err/grad.   DampErr         ....    0.1000
 Fernandez-Rico         CNVRico         .... off

SCF Procedure:
 Maximum # iterations   MaxIter         ....   125
 SCF integral mode      SCFMode         .... Direct
   Integral package                     .... LIBINT
 Reset frequency        DirectResetFreq ....    20
 Integral Threshold     Thresh          ....  2.500e-11 Eh
 Primitive CutOff       TCut            ....  2.500e-12 Eh

Convergence Tolerance:
 Convergence Check Mode ConvCheckMode   .... Total+1el-Energy
 Convergence forced     ConvForced      .... 1
 Energy Change          TolE            ....  1.000e-08 Eh
 1-El. energy change                    ....  1.000e-05 Eh
 DIIS Error             TolErr          ....  5.000e-07


Diagonalization of the overlap matrix:
Smallest eigenvalue                        ... 1.209e-01
Time for diagonalization                   ...    0.001 sec
Threshold for overlap eigenvalues          ... 1.000e-08
Number of eigenvalues below threshold      ... 0
Time for construction of square roots      ...    0.007 sec
Total time needed                          ...    0.007 sec

---------------------
INITIAL GUESS: MOREAD
---------------------
Guess MOs are being read from file: 15_P.ges
Input Geometry matches current geometry (good)
Input basis set matches current basis set (good)
MOs were renormalized
MOs were reorthogonalized (Cholesky)
                      ------------------
                      INITIAL GUESS DONE (   0.0 sec)
                      ------------------
--------------
SCF ITERATIONS
--------------
ITER       Energy         Delta-E        Max-DP      RMS-DP      [F,P]     Damp
               ***  Starting incremental Fock matrix formation  ***
  0   -340.5974445500   0.000000000000 0.00000041  0.00000003  0.0000001 0.7000
                 **** Energy Check signals convergence ****

               *****************************************************
               *                     SUCCESS                       *
               *           SCF CONVERGED AFTER   1 CYCLES          *
               *****************************************************


----------------
TOTAL SCF ENERGY
----------------

Total Energy       :         -340.59744455 Eh           -9268.12765 eV

Components:
Nuclear Repulsion  :            0.00000000 Eh               0.00000 eV
Electronic Energy  :         -340.59744455 Eh           -9268.12765 eV
One Electron Energy:         -471.42656972 Eh          -12828.16913 eV
Two Electron Energy:          130.82912517 Eh            3560.04148 eV

Virial components:
Potential Energy   :         -681.19520540 Eh          -18536.26390 eV
Kinetic Energy     :          340.59776085 Eh            9268.13626 eV
Virial Ratio       :            1.99999907


---------------
SCF CONVERGENCE
---------------

  Last Energy change         ...    1.5916e-12  Tolerance :   1.0000e-08
  Last MAX-Density change    ...    4.1378e-07  Tolerance :   1.0000e-07
  Last RMS-Density change    ...    2.6293e-08  Tolerance :   5.0000e-09
  Last DIIS Error            ...    9.2632e-08  Tolerance :   5.0000e-07

             **** THE GBW FILE WAS UPDATED (15_P.gbw) ****
             **** DENSITY FILE WAS UPDATED (15_P.scfp) ****
             **** ENERGY FILE WAS UPDATED (15_P.en.tmp) ****
----------------------
UHF SPIN CONTAMINATION
----------------------

Expectation value of <S**2>     :     3.750195
Ideal value S*(S+1) for S=1.5   :     3.750000
Deviation                       :     0.000195

             **** THE GBW FILE WAS UPDATED (15_P.gbw) ****
             **** DENSITY FILE WAS UPDATED (15_P.scfp) ****
----------------
ORBITAL ENERGIES
----------------
                 SPIN UP ORBITALS
  NO   OCC          E(Eh)            E(eV) 
   0   1.0000     -79.938307     -2175.2319 
   1   1.0000      -7.511183      -204.3897 
   2   1.0000      -5.414092      -147.3249 
   3   1.0000      -5.414092      -147.3249 
   4   1.0000      -5.414092      -147.3249 
   5   1.0000      -0.828810       -22.5531 
   6   1.0000      -0.388452       -10.5703 
   7   1.0000      -0.388452       -10.5703 
   8   1.0000      -0.388452       -10.5703 
   9   0.0000       0.360648         9.8137 
  10   0.0000       0.715256        19.4631 
  11   0.0000       0.715256        19.4631 
  12   0.0000       0.715256        19.4631 
  13   0.0000       0.715256        19.4631 
  14   0.0000       0.715256        19.4631 
  15   0.0000       0.717093        19.5131 
  16   0.0000       0.717093        19.5131 
  17   0.0000       0.717093        19.5131 

                 SPIN DOWN ORBITALS
  NO   OCC          E(Eh)            E(eV) 
   0   1.0000     -79.918710     -2174.6987 
   1   1.0000      -7.489500      -203.7996 
   2   1.0000      -5.375625      -146.2782 
   3   1.0000      -5.375625      -146.2782 
   4   1.0000      -5.375625      -146.2782 
   5   1.0000      -0.547305       -14.8929 
   6   0.0000       0.072722         1.9789 
   7   0.0000       0.072722         1.9789 
   8   0.0000       0.072722         1.9789 
   9   0.0000       0.422563        11.4985 
  10   0.0000       0.821433        22.3523 
  11   0.0000       0.821433        22.3523 
  12   0.0000       0.821433        22.3523 
  13   0.0000       0.873605        23.7720 
  14   0.0000       0.873605        23.7720 
  15   0.0000       0.873605        23.7720 
  16   0.0000       0.873605        23.7720 
  17   0.0000       0.873605        23.7720 

                    ********************************
                    * MULLIKEN POPULATION ANALYSIS *
                    ********************************

--------------------------------------------
MULLIKEN ATOMIC CHARGES AND SPIN POPULATIONS
--------------------------------------------
   0 P :   -0.000000    3.000000
Sum of atomic charges         :   -0.0000000
Sum of atomic spin populations:    3.0000000

-----------------------------------------------------
MULLIKEN REDUCED ORBITAL CHARGES AND SPIN POPULATIONS
-----------------------------------------------------
CHARGE
  0 P s       :     6.000000  s :     6.000000
      pz      :     3.000000  p :     9.000000
      px      :     3.000000
      py      :     3.000000
      dz2     :     0.000000  d :     0.000000
      dxz     :     0.000000
      dyz     :     0.000000
      dx2y2   :     0.000000
      dxy     :     0.000000

SPIN
  0 P s       :    -0.000000  s :    -0.000000
      pz      :     1.000000  p :     3.000000
      px      :     1.000000
      py      :     1.000000
      dz2     :     0.000000  d :     0.000000
      dxz     :     0.000000
      dyz     :     0.000000
      dx2y2   :     0.000000
      dxy     :     0.000000


                     *******************************
                     * LOEWDIN POPULATION ANALYSIS *
                     *******************************

-------------------------------------------
LOEWDIN ATOMIC CHARGES AND SPIN POPULATIONS
-------------------------------------------
   0 P :   -0.000000    3.000000

----------------------------------------------------
LOEWDIN REDUCED ORBITAL CHARGES AND SPIN POPULATIONS
----------------------------------------------------
CHARGE
  0 P s       :     6.000000  s :     6.000000
      pz      :     3.000000  p :     9.000000
      px      :     3.000000
      py      :     3.000000
      dz2     :     0.000000  d :     0.000000
      dxz     :     0.000000
      dyz     :     0.000000
      dx2y2   :     0.000000
      dxy     :     0.000000

SPIN
  0 P s       :    -0.000000  s :    -0.000000
      pz      :     1.000000  p :     3.000000
      px      :     1.000000
      py      :     1.000000
      dz2     :     0.000000  d :     0.000000
      dxz     :     0.000000
      dyz     :     0.000000
      dx2y2   :     0.000000
      dxy     :     0.000000


                      *****************************
                      * MAYER POPULATION ANALYSIS *
                      *****************************

  NA   - Mulliken gross atomic population
  ZA   - Total nuclear charge
  QA   - Mulliken gross atomic charge
  VA   - Mayer's total valence
  BVA  - Mayer's bonded valence
  FA   - Mayer's free valence

  ATOM       NA         ZA         QA         VA         BVA        FA
  0 P     15.0000    15.0000     0.0000     3.0004     0.0000     3.0004

  Mayer bond orders larger than 0.100000


-------
TIMINGS
-------

Total SCF time: 0 days 0 hours 0 min 1 sec 

Total time                  ....       1.683 sec
Sum of individual times     ....       0.402 sec  ( 23.9%)

Fock matrix formation       ....       0.242 sec  ( 14.4%)
Diagonalization             ....       0.025 sec  (  1.5%)
Density matrix formation    ....       0.000 sec  (  0.0%)
Population analysis         ....       0.129 sec  (  7.7%)
Initial guess               ....       0.005 sec  (  0.3%)
Orbital Transformation      ....       0.000 sec  (  0.0%)
Orbital Orthonormalization  ....       0.000 sec  (  0.0%)
DIIS solution               ....       0.000 sec  (  0.0%)


           ************************************************************
           *        Program running with 10 parallel MPI-processes    *
           *              working on a common directory               *
           ************************************************************


------------------------------------------------------------------------------- 
                              ORCA-MATRIX DRIVEN CI                            
------------------------------------------------------------------------------- 

--------------------------------
AUTOMATIC CHOICE OF INCORE LEVEL
--------------------------------

Memory available                           ...   2500.00 MB
Memory needed for S+T                      ...      0.02 MB
Memory needed for J+K                      ...      0.04 MB
Memory needed for DIIS                     ...      0.26 MB
Memory needed for 3-ext                    ...      0.02 MB
Memory needed for 4-ext                    ...      0.03 MB
Memory needed for triples                  ...      0.03 MB
 -> Final InCoreLevel    ... 5
 -> check shows that triples correction can be computed


Wavefunction type
-----------------
Correlation treatment                      ...      CCSD     
Single excitations                         ... ON
Orbital optimization                       ... OFF
Calculation of Z vector                    ... OFF
Calculation of Brueckner orbitals          ... OFF
Perturbative triple excitations            ... ON
Calculation of F12 correction              ... OFF
Frozen core treatment                      ... chemical core (10 el)
Reference Wavefunction                     ... UHF
  Alpha-MOs occ    :     5 ...    8 (  4 MO's/  4 electrons)
  Beta-MOs occ     :     5 ...    5 (  1 MO's/  1 electrons)
  Alpha-MOs virt   :     9 ...   17 (  9 MO's              )
  Beta-MOs virt    :     6 ...   17 ( 12 MO's              )
Number of AO's                             ...     18
Number of electrons                        ...     15
Number of correlated electrons             ...      5

Algorithmic settings
--------------------
Integral transformation                    ... AO direct full transformation
K(C) Formation                             ... FULL-MO TRAFO
Maximum number of iterations               ...        50
Convergence tolerance (max. residuum)      ... 1.000e-05
Level shift for amplitude update           ... 2.000e-01
Maximum number of DIIS vectors             ...         7
DIIS turned on at iteration                ...         0
Damping before turning on DIIS             ...     0.500
Damping after turning on DIIS              ...     0.000
Pair specific amplitude update             ... OFF
Natural orbital iterations                 ... OFF
Perturbative natural orbital generation    ... OFF
Printlevel                                 ... 2

Memory handling:
----------------
Maximum memory for working arrays          ...   2500 MB
Data storage in matrix containers          ... UNCOMPRESSED
Data type for integral storage             ... DOUBLE
In-Core Storage of quantities:
   Amplitudes+Sigma Vector      ... YES
   J+K operators                ... YES
   DIIS vectors                 ... YES
   3-external integrals         ... YES
   4-external integrals         ... YES


Initializing the integral package          ... done
Warning: reference  - re-canonicalizations have been set to INT 1 VIRT 1

--------------------------
UNRESTRICTED FOCK OPERATOR
--------------------------

<ss|ss>:           55 b            0 skpd (  0.0%)    0.000 s ( 0.001 ms/b)
<ss|sp>:          120 b            0 skpd (  0.0%)    0.000 s ( 0.001 ms/b)
<ss|sd>:           40 b            0 skpd (  0.0%)    0.000 s ( 0.001 ms/b)
<ss|pp>:           60 b            0 skpd (  0.0%)    0.000 s ( 0.003 ms/b)
<ss|pd>:           30 b            0 skpd (  0.0%)    0.000 s ( 0.002 ms/b)
<ss|dd>:           10 b            0 skpd (  0.0%)    0.000 s ( 0.003 ms/b)
<sp|sp>:           78 b            0 skpd (  0.0%)    0.000 s ( 0.002 ms/b)
<sp|sd>:           48 b            0 skpd (  0.0%)    0.000 s ( 0.001 ms/b)
<sp|pp>:           72 b            0 skpd (  0.0%)    0.000 s ( 0.004 ms/b)
<sp|pd>:           36 b            0 skpd (  0.0%)    0.000 s ( 0.003 ms/b)
<sp|dd>: done
<sd|sd>:           10 b            0 skpd (  0.0%)    0.000 s ( 0.002 ms/b)
<sd|pp>:           24 b            0 skpd (  0.0%)    0.000 s ( 0.004 ms/b)
<sd|pd>: done
<sd|dd>: done
<pp|pp>:           21 b            0 skpd (  0.0%)    0.000 s ( 0.016 ms/b)
<pp|pd>:           18 b            0 skpd (  0.0%)    0.000 s ( 0.009 ms/b)
<pp|dd>:            6 b            0 skpd (  0.0%)    0.000 s ( 0.018 ms/b)
<pd|pd>:            6 b            0 skpd (  0.0%)    0.000 s ( 0.011 ms/b)
<pd|dd>: done
<dd|dd>: done
Recanonicalizing the internal orbitals
Recanonicalizing the virtual orbitals
Time needed for Fock operator              ...            0.023 sec
Reference energy                           ...   -340.597444550
Warning: for UHF the TrafoType has to be JK
Warning: for UHF the K(C)-option cannot be MO but must be AOX

-------------------------------
PARTIAL EXCHANGE TRANSFORMATION
-------------------------------

Transformation type                        ... two-operators
Generation of integrals (i,mue|j,nue)      ... ON
Generation of integrals (mue,kappa|nue,tau)... ON
Generation of integrals (i,mue|a,nue)      ... ON
Dimension of the basis                     ...   18
Number of internal alpha-MOs               ...    4 (   5-   8)
Number of internal beta-MOs                ...    1 (   5-   5)
Number of external alpha-MOs               ...    9 (   9-  17)
Number of external beta-MOs                ...   12 (   6-  17)
Pair cutoff                                ... 0.000e+00 Eh
Number of AO pairs in the trafo            ...  171
Total Number of distinct AO pairs          ...  171
Memory devoted for trafo                   ... 2500.0 MB 
Max. Number of MO pairs treated together   ... 1011358      
Number Format for Storage                  ... Double (8 Byte)
Integral package used                      ... LIBINT

Starting integral evaluation:
    ... done with AO integral generation
Closing buffer AOK[aa] ( 0.00 GB; CompressionRatio= 0.00)
Closing buffer AOK[bb] ( 0.00 GB; CompressionRatio= 0.00)
Closing buffer AOK[ab] ( 0.00 GB; CompressionRatio= 0.00)
Closing buffer AOK[ba] ( 0.00 GB; CompressionRatio= 0.00)
Collecting buffer AOK 
Closing buffer IAAO1[aa] ( 0.00 GB; CompressionRatio= 0.00)
Closing buffer IAAO1[bb] ( 0.00 GB; CompressionRatio= 0.00)
Closing buffer IAAO1[ab] ( 0.00 GB; CompressionRatio= 0.00)
Closing buffer IAAO1[ba] ( 0.00 GB; CompressionRatio= 0.00)
Closing buffer IAAO2[aa] ( 0.00 GB; CompressionRatio= 0.00)
Closing buffer IAAO2[bb] ( 0.00 GB; CompressionRatio= 0.00)
Closing buffer IAAO2[ab] ( 0.00 GB; CompressionRatio= 0.00)
Closing buffer IAAO2[ba] ( 0.00 GB; CompressionRatio= 0.00)
Collecting buffer IAAO 
Closing buffer PRQS    ( 0.00 GB; CompressionRatio= 0.00)
Collecting buffer PRQS 
Number of alpha/alpha MO pairs in trafo    ...   10
Number of beta /beta  MO pairs in trafo    ...    1
Number of alpha/ beta MO pairs in trafo    ...    4
------------------------
SORTING OF (i,mue|j,nue)
------------------------

SORTING OF ALPHA/ALPHA PAIRS
IBATCH = 1 of  1
Closing buffer KAO[aa] ( 0.00 GB; CompressionRatio= 1.00)
Collecting buffer KAO 
SORTING OF BETA /BETA  PAIRS
IBATCH = 1 of  1
Closing buffer KAO[bb] ( 0.00 GB; CompressionRatio= 1.00)
Collecting buffer KAO 
SORTING OF ALPHA/BETA  PAIRS
IBATCH = 1 of  1
Closing buffer KAO[ab] ( 0.00 GB; CompressionRatio= 0.995391705069)
Collecting buffer KAO[ab] 
------------------------
SORTING OF (i,mue|a,nue)
------------------------

Number of alpha/alpha (i,a) pairs in trafo  ...   36
Number of beta /beta  (i,a) pairs in trafo  ...   12
Number of alpha/ beta (i,a) pairs in trafo  ...   48
Number of beta /alpha (i,a) pairs in trafo  ...    9
Setting up the alpha/alpha list             ... done
Setting up the beta /beta  list             ... done
Setting up the alpha/beta  list             ... done
Setting up the beta /alpha list             ... done
    ... Now sorting (i,mue|a,nue)integrals
    ... Integrals (i,b|a,c) will be made on the fly
SORTING OF ALPHA/ALPHA PAIRS
IBATCH = 1 of  1
Closing buffer IPAQ[aa]  0.00 GB; CompressionRatio= 1.00)
SORTING OF BETA /BETA  PAIRS
IBATCH = 1 of  1
Closing buffer IPAQ[bb]( 0.00 GB; CompressionRatio= 1.00)
SORTING OF ALPHA/BETA  PAIRS (NMatSort_ab=5)
IBATCH = 1 of  1
Closing buffer IPAQ[ab]( 0.00 GB; CompressionRatio= 1.00)
SORTING OF BETA/ALPHA  PAIRS
IBATCH = 1 of  1
Closing buffer IPAQ[ba]( 0.00 GB; CompressionRatio= 1.00)
N(AO-Batches) Done                         ...         0 
N(AO-Batches) Skipped                      ...         0 
N(IJ)-pairs Skipped                        ...         0 
TOTAL TIME for half transformation         ...     0.572 sec
AO-integral generation                     ...     0.000 sec
Half transformation                        ...     0.000 sec
K-integral sorting                         ...     0.245 sec
<ss|**>: 
------------------------------
PARTIAL COULOMB TRANSFORMATION
------------------------------

Transformation type                        ... two-operators
Dimension of the basis                     ...   18
Number of internal alpha-MOs               ...    4 (5-8)
Number of internal beta-MOs                ...    1 (5-5)
Pair cutoff                                ... 0.000e+00 Eh
Number of AO pairs included in the trafo   ...  171
Total Number of distinct AO pairs          ...  171
Memory devoted for trafo                   ... 2500.0 MB 
Max. Number of MO pairs treated together   ... 1916257      
Max. Number of MOs treated per batch       ... 106458      
Number Format for Storage                  ... Double (8 Byte)
AO-integral source                         ... DIRECT
Integral package used                      ... LIBINT

Starting integral evaluation:
<sp|**>:          360 b        0 skpd     0.001 s (  0.002 ms/b)
<sd|**>:          432 b        0 skpd     0.007 s (  0.016 ms/b)
<pp|**>:          144 b        0 skpd     0.005 s (  0.033 ms/b)
<pd|**>:          216 b        0 skpd     0.009 s (  0.041 ms/b)
<dd|**>:          108 b        0 skpd     0.012 s (  0.110 ms/b)
          36 b        0 skpd     0.008 s (  0.212 ms/b)
Closing buffer AOJ[aa] ( 0.00 GB; CompressionRatio= 0.87)
Closing buffer AOJ[bb] ( 0.00 GB; CompressionRatio= 0.00)
Collecting buffer AOJ 
    ... done with AO integral generation
Number of Alpha-MO pairs included          ...   10
Number of Beta-MO pairs included           ...    1
    ... Now sorting integrals
SORTING ALPHA/ALPHA PAIRS
IBATCH = 1 of  1
Closing buffer JAO[aa] ( 0.00 GB; CompressionRatio= 0.99)
SORTING BETA/BETA PAIRS
IBATCH = 1 of  1
Closing buffer JAO[bb] ( 0.00 GB; CompressionRatio= 0.99)
Collecting buffer JAO 
TOTAL TIME for half transformation         ...     0.084 sec
AO-integral generation                     ...     0.024 sec
Half transformation                        ...     0.017 sec
J-integral sorting                         ...     0.031 sec

-------------------------- SECOND HALF TRANSFORMATION -------------------------
Formation of (ij|kl),(ij|ka), (ij|ab)      ... ok (     0.033 sec)
Formation of (ik|jl),(ik|ja), (ia|jb)      ... ok (     0.057 sec)


-----------------------
SPIN UNRESTRICTED GUESS
-----------------------

Entering MDCI_UHF_Guess, Tailored=0
Spin-components of the MP2 energy:
EMP2(aa)=     -0.016186075
EMP2(bb)=      0.000000000
EMP2(ab)=     -0.045206589

Initial guess performed in     0.000 sec
E(0)                                       ...   -340.597444550
E(MP2)                                     ...     -0.061392664
Initial E(tot)                             ...   -340.658837214
<T|T>                                      ...      0.030235330
Number of pairs included                   ... 10

------------------------------------------------
                  UHF COUPLED CLUSTER ITERATIONS
------------------------------------------------

Number of amplitudes to be optimized       ...          696

Iter       E(tot)           E(Corr)          Delta-E          Residual     Time      <S|S>**1/2
  0   -340.658837214     -0.061392664     -0.000000000      0.017420818    0.01      0.000000194
                           *** Turning on DIIS ***
  1   -340.670797728     -0.073353178     -0.011960513      0.006198335    0.01      0.007398315
  2   -340.675777451     -0.078332901     -0.004979723      0.001128296    0.01      0.012540576
  3   -340.675873229     -0.078428679     -0.000095779      0.000181077    0.01      0.013443656
  4   -340.675914812     -0.078470262     -0.000041583      0.000046288    0.01      0.013360378
  5   -340.675893701     -0.078449151      0.000021111      0.000010253    0.01      0.013334942
  6   -340.675905069     -0.078460519     -0.000011368      0.000003246    0.01      0.013341210
               --- The Coupled-Cluster iterations have converged ---

----------------------
COUPLED CLUSTER ENERGY
----------------------

E(0)                                       ...   -340.597444550
E(CORR)                                    ...     -0.078460519
E(TOT)                                     ...   -340.675905069
Singles norm <S|S>**1/2                    ...      0.013341210 ( 0.011782421, 0.001558789)  
T1 diagnostic                              ...      0.005966370                              

------------------
LARGEST AMPLITUDES
------------------
   8a-> 12a   5b->  6b       0.052404
   6a-> 13a   5b->  6b       0.040935
   7a-> 14a   5b->  6b       0.040256
   8a-> 11a   5b->  7b       0.039699
   6a-> 10a   5b->  7b       0.039557
   7a-> 12a   5b->  7b       0.039455
   7a-> 13a   5b->  8b       0.038243
   8a-> 11a   5b->  8b       0.036696
   7a-> 14a   5b->  7b       0.036292
   8a-> 10a   5b->  7b       0.035455
   6a-> 10a   5b->  8b       0.033312
   6a-> 14a   5b->  6b       0.032694
   6a-> 14a   5b->  8b       0.031556
   8a-> 13a   5b->  8b       0.031235
   7a-> 14a   6a-> 13a       0.030300
   7a-> 13a   6a-> 14a       0.030300

----------------------
UHF TRIPLES CORRECTION (Algorithm 1)
----------------------

Multiplier for the singles contribution    ...      1.000000000

SPIN-CASE Alpha-Alpha-Alpha:
10% done
20% done
30% done
40% done
50% done
60% done
70% done
80% done
90% done


SPIN-CASE Beta-Beta-Beta:

SPIN-CASE Alpha-Alpha-Beta:
10% done
20% done
30% done
40% done
50% done
60% done
70% done
80% done
90% done


SPIN-CASE Beta-Beta-Alpha:

Triples Correction (T)                     ...     -0.001022441
    alpha-alpha-alpha ... -0.000034602 (  3.4%)
    alpha-alpha-beta  ... -0.000987839 ( 96.6%)
    alpha-beta -beta  ...  0.000000000 ( -0.0%)
    beta -beta -beta  ...  0.000000000 ( -0.0%)
Scaling of triples based on CCSD energies (Peterson et al. Molecular Physics 113, 1551 (2015))
E(T*) = f*E(T) where f = E(F12-CCSD)/E(CCSD) 
f = CCSD (with F12)/ CCSD (without F12)    ...      1.000000000
Scaled triples correction (T)              ...     -0.001022441

Final correlation energy                   ...     -0.079482961
E(CCSD)                                    ...   -340.675905069
E(CCSD(T))                                 ...   -340.676927511



        !!!!!!!!!!!!!!!!!!!!!!!!!!!!!!!!!!!!!!!!!!!!!!!!!!!!!!!!!!!!!!!!!!!!!!!!!! 
        !  Warning: Densities are linearized densities                           !
        !!!!!!!!!!!!!!!!!!!!!!!!!!!!!!!!!!!!!!!!!!!!!!!!!!!!!!!!!!!!!!!!!!!!!!!!!! 

NORM  =      1.050861458 sqrt=     1.025115339
W(HF) =      0.951600225
------------------------------------------------------------------------------
                           ORCA POPULATION ANALYSIS
------------------------------------------------------------------------------
Input electron density              ... 15_P.mdcip
Input spin density                  ... 15_P.mdcir
BaseName (.gbw .S,...)              ... 15_P

                    ********************************
                    * MULLIKEN POPULATION ANALYSIS *
                    ********************************

------------------------------------------
MULLIKEN ATOMIC CHARGES AND SPIN DENSITIES
------------------------------------------
   0 P :    0.000000    3.000000
Sum of atomic charges       :    0.0000000
Sum of atomic spin densities:    3.0000000

---------------------------------------------------
MULLIKEN REDUCED ORBITAL CHARGES AND SPIN DENSITIES
---------------------------------------------------
CHARGE
  0 P s       :     5.956282  s :     5.956282
      pz      :     2.997656  p :     8.992967
      px      :     2.997656
      py      :     2.997656
      dz2     :     0.010150  d :     0.050751
      dxz     :     0.010150
      dyz     :     0.010150
      dx2y2   :     0.010150
      dxy     :     0.010150

SPIN
  0 P s       :     0.033858  s :     0.033858
      pz      :     0.974078  p :     2.922235
      px      :     0.974078
      py      :     0.974078
      dz2     :     0.008781  d :     0.043907
      dxz     :     0.008781
      dyz     :     0.008781
      dx2y2   :     0.008781
      dxy     :     0.008781


                     *******************************
                     * LOEWDIN POPULATION ANALYSIS *
                     *******************************

-----------------------------------------
LOEWDIN ATOMIC CHARGES AND SPIN DENSITIES
-----------------------------------------
   0 P :   -0.000000    3.000000

--------------------------------------------------
LOEWDIN REDUCED ORBITAL CHARGES AND SPIN DENSITIES
--------------------------------------------------
CHARGE
  0 P s       :     5.956282  s :     5.956282
      pz      :     2.997656  p :     8.992967
      px      :     2.997656
      py      :     2.997656
      dz2     :     0.010150  d :     0.050751
      dxz     :     0.010150
      dyz     :     0.010150
      dx2y2   :     0.010150
      dxy     :     0.010150

SPIN
  0 P s       :     0.033858  s :     0.033858
      pz      :     0.974078  p :     2.922235
      px      :     0.974078
      py      :     0.974078
      dz2     :     0.008781  d :     0.043907
      dxz     :     0.008781
      dyz     :     0.008781
      dx2y2   :     0.008781
      dxy     :     0.008781


                      *****************************
                      * MAYER POPULATION ANALYSIS *
                      *****************************

  NA   - Mulliken gross atomic population
  ZA   - Total nuclear charge
  QA   - Mulliken gross atomic charge
  VA   - Mayer's total valence
  BVA  - Mayer's bonded valence
  FA   - Mayer's free valence

  ATOM       NA         ZA         QA         VA         BVA        FA
  0 P     15.0000    15.0000     0.0000     3.2319     0.0000     3.2319





------------------------------------------------------------------------------- 
                                     TIMINGS                                   
------------------------------------------------------------------------------- 


Total execution time                   ...        1.083 sec

Fock Matrix Formation                  ...        0.023 sec (  2.1%)
Initial Guess                          ...        0.000 sec (  0.0%)
DIIS Solver                            ...        0.005 sec (  0.4%)
State Vector Update                    ...        0.000 sec (  0.0%)
Sigma-vector construction              ...        0.053 sec (  4.9%)
  <D|H|D>(4-ext)                       ...        0.016 sec ( 31.2% of sigma)
  Fock-dressing                        ...        0.020 sec ( 37.6% of sigma)
  (ij|ab),(ia|jb)-dressing             ...        0.008 sec ( 15.1% of sigma)
Total Time for computing (T)           ...        0.001 sec (  0.0% of ALL)


-------------------------   --------------------
FINAL SINGLE POINT ENERGY      -340.676927510626
-------------------------   --------------------


                            ***************************************
                            *     ORCA property calculations      *
                            ***************************************

                                    ---------------------
                                    Active property flags
                                    ---------------------
   (+) Dipole Moment


------------------------------------------------------------------------------
                       ORCA ELECTRIC PROPERTIES CALCULATION
------------------------------------------------------------------------------

Dipole Moment Calculation                       ... on
Quadrupole Moment Calculation                   ... off
Polarizability Calculation                      ... off
GBWName                                         ... 15_P.gbw
Electron density file                           ... 15_P.scfp
The origin for moment calculation is the CENTER OF MASS  = ( 0.000000,  0.000000  0.000000)

-------------
DIPOLE MOMENT
-------------
                                X             Y             Z
Electronic contribution:     -0.00000       0.00000       0.00000
Nuclear contribution   :      0.00000       0.00000       0.00000
                        -----------------------------------------
Total Dipole Moment    :     -0.00000       0.00000       0.00000
                        -----------------------------------------
Magnitude (a.u.)       :      0.00000
Magnitude (Debye)      :      0.00000



--------------------
Rotational spectrum 
--------------------
 
Rotational constants in cm-1:     0.000000     0.000000     0.000000 
Rotational constants in MHz :     0.000000     0.000000     0.000000 

 Dipole components along the rotational axes: 
x,y,z [a.u.] :    -0.000000     0.000000     0.000000 
x,y,z [Debye]:    -0.000000     0.000000     0.000000 

 

                           *** MDCI DENSITY ***

------------------------------------------------------------------------------
                       ORCA ELECTRIC PROPERTIES CALCULATION
------------------------------------------------------------------------------

Dipole Moment Calculation                       ... on
Quadrupole Moment Calculation                   ... off
Polarizability Calculation                      ... off
GBWName                                         ... 15_P.gbw
Electron density file                           ... 15_P.mdcip
The origin for moment calculation is the CENTER OF MASS  = ( 0.000000,  0.000000  0.000000)

-------------
DIPOLE MOMENT
-------------
                                X             Y             Z
Electronic contribution:     -0.00000       0.00000       0.00000
Nuclear contribution   :      0.00000       0.00000       0.00000
                        -----------------------------------------
Total Dipole Moment    :     -0.00000       0.00000       0.00000
                        -----------------------------------------
Magnitude (a.u.)       :      0.00000
Magnitude (Debye)      :      0.00000



--------------------
Rotational spectrum 
--------------------
 
Rotational constants in cm-1:     0.000000     0.000000     0.000000 
Rotational constants in MHz :     0.000000     0.000000     0.000000 

 Dipole components along the rotational axes: 
x,y,z [a.u.] :    -0.000000     0.000000     0.000000 
x,y,z [Debye]:    -0.000000     0.000000     0.000000 

 

Timings for individual modules:

Sum of individual times         ...        4.244 sec (=   0.071 min)
GTO integral calculation        ...        0.687 sec (=   0.011 min)  16.2 %
SCF iterations                  ...        2.073 sec (=   0.035 min)  48.8 %
MDCI module                     ...        1.484 sec (=   0.025 min)  35.0 %
                             ****ORCA TERMINATED NORMALLY****
TOTAL RUN TIME: 0 days 0 hours 0 minutes 5 seconds 9 msec
