
                                 *****************
                                 * O   R   C   A *
                                 *****************

           --- An Ab Initio, DFT and Semiempirical electronic structure package ---

                  #######################################################
                  #                        -***-                        #
                  #          Department of theory and spectroscopy      #
                  #               Directorship: Frank Neese             #
                  #        Max Planck Institute fuer Kohlenforschung    #
                  #                Kaiser Wilhelm Platz 1               #
                  #                 D-45470 Muelheim/Ruhr               #
                  #                      Germany                        #
                  #                                                     #
                  #                  All rights reserved                #
                  #                        -***-                        #
                  #######################################################


                         Program Version 4.2.0 -  RELEASE  -


 With contributions from (in alphabetic order):
   Daniel Aravena         : Magnetic Suceptibility
   Michael Atanasov       : Ab Initio Ligand Field Theory (pilot matlab implementation)
   Alexander A. Auer      : GIAO ZORA, VPT2
   Ute Becker             : Parallelization
   Giovanni Bistoni       : ED, misc. LED, open-shell LED, HFLED
   Martin Brehm           : Molecular dynamics
   Dmytro Bykov           : SCF Hessian
   Vijay G. Chilkuri      : MRCI spin determinant printing, contributions to CSF-ICE
   Dipayan Datta          : RHF DLPNO-CCSD density
   Achintya Kumar Dutta   : EOM-CC, STEOM-CC
   Dmitry Ganyushin       : Spin-Orbit,Spin-Spin,Magnetic field MRCI
   Miquel Garcia          : C-PCM Hessian, Gaussian charge scheme
   Yang Guo               : DLPNO-NEVPT2, CIM, IAO-localization
   Andreas Hansen         : Spin unrestricted coupled pair/coupled cluster methods
   Benjamin Helmich-Paris : CASSCF linear response (MC-RPA)
   Lee Huntington         : MR-EOM, pCC
   Robert Izsak           : Overlap fitted RIJCOSX, COSX-SCS-MP3, EOM
   Christian Kollmar      : KDIIS, OOCD, Brueckner-CCSD(T), CCSD density
   Simone Kossmann        : Meta GGA functionals, TD-DFT gradient, OOMP2, MP2 Hessian
   Martin Krupicka        : AUTO-CI
   Lucas Lang             : DCDCAS
   Dagmar Lenk            : GEPOL surface, SMD
   Dimitrios Liakos       : Extrapolation schemes; Compound Job, initial MDCI parallelization
   Dimitrios Manganas     : Further ROCIS development; embedding schemes
   Dimitrios Pantazis     : SARC Basis sets
   Taras Petrenko         : DFT Hessian,TD-DFT gradient, ASA, ECA, R-Raman, ABS, FL, XAS/XES, NRVS
   Peter Pinski           : DLPNO-MP2, DLPNO-MP2 Gradient
   Christoph Reimann      : Effective Core Potentials
   Marius Retegan         : Local ZFS, SOC
   Christoph Riplinger    : Optimizer, TS searches, QM/MM, DLPNO-CCSD(T), (RO)-DLPNO pert. Triples
   Tobias Risthaus        : Range-separated hybrids, TD-DFT gradient, RPA, STAB
   Michael Roemelt        : Original ROCIS implementation
   Masaaki Saitow         : Open-shell DLPNO-CCSD energy and density
   Barbara Sandhoefer     : DKH picture change effects
   Avijit Sen             : IP-ROCIS
   Kantharuban Sivalingam : CASSCF convergence, NEVPT2, FIC-MRCI
   Bernardo de Souza      : ESD, SOC TD-DFT
   Georgi Stoychev        : AutoAux, RI-MP2 NMR
   Willem Van den Heuvel  : Paramagnetic NMR
   Boris Wezisla          : Elementary symmetry handling
   Frank Wennmohs         : Technical directorship


 We gratefully acknowledge several colleagues who have allowed us to
 interface, adapt or use parts of their codes:
   Stefan Grimme, W. Hujo, H. Kruse,             : VdW corrections, initial TS optimization,
                  C. Bannwarth                     DFT functionals, gCP, sTDA/sTD-DF
   Ed Valeev, F. Pavosevic, A. Kumar             : LibInt (2-el integral package), F12 methods
   Garnet Chan, S. Sharma, J. Yang, R. Olivares  : DMRG
   Ulf Ekstrom                                   : XCFun DFT Library
   Mihaly Kallay                                 : mrcc  (arbitrary order and MRCC methods)
   Andreas Klamt, Michael Diedenhofen            : otool_cosmo (COSMO solvation model)
   Jiri Pittner, Ondrej Demel                    : Mk-CCSD
   Frank Weinhold                                : gennbo (NPA and NBO analysis)
   Christopher J. Cramer and Donald G. Truhlar   : smd solvation model
   Lars Goerigk                                  : TD-DFT with DH, B97 family of functionals
   V. Asgeirsson, H. Jonsson                     : NEB implementation
   FAccTs GmbH                                   : IRC, NEB, NEB-TS, Multilevel, MM, QM/MM, CI optimization
   S Lehtola, MJT Oliveira, MAL Marques          : LibXC Library


 Your calculation uses the libint2 library for the computation of 2-el integrals
 For citations please refer to: http://libint.valeyev.net

 Your ORCA version has been built with support for libXC version: 4.2.3
 For citations please refer to: https://tddft.org/programs/libxc/

 This ORCA versions uses:
   CBLAS   interface :  Fast vector & matrix operations
   LAPACKE interface :  Fast linear algebra routines
   SCALAPACK package :  Parallel linear algebra routines


----- Orbital basis set information -----
Your calculation utilizes the basis: def2-SVP
   F. Weigend and R. Ahlrichs, Phys. Chem. Chem. Phys. 7, 3297 (2005).

================================================================================
                                        WARNINGS
                       Please study these warnings very carefully!
================================================================================


WARNING: MDCI localization with Augmented Hessian Foster-Boys
  ===> : Switching off randomization!

WARNING: Post HF methods need fully converged wavefunctions
  ===> : Setting SCFConvForced true
         You can overwrite this default with %scf ConvForced false 


INFO   : the flag for use of LIBINT has been found!

================================================================================
                                       INPUT FILE
================================================================================
NAME = 18_Ar.in
|  1> #
|  2> # 18_Ar CCSD(T)/Def2-SVP
|  3> #
|  4> ! CCSD(T) Def2-SVP tightscf
|  5> 
|  6> *xyz 0 1
|  7>  Ar 0.0 0.0 0.0
|  8> *
|  9> 
| 10> %maxcore 5000 
| 11> 
| 12> %pal
| 13> nprocs 10
| 14> end
| 15> 
| 16> 
| 17>                          ****END OF INPUT****
================================================================================

                       ****************************
                       * Single Point Calculation *
                       ****************************

---------------------------------
CARTESIAN COORDINATES (ANGSTROEM)
---------------------------------
  Ar     0.000000    0.000000    0.000000

----------------------------
CARTESIAN COORDINATES (A.U.)
----------------------------
  NO LB      ZA    FRAG     MASS         X           Y           Z
   0 Ar   18.0000    0    39.948    0.000000    0.000000    0.000000

--------------------------------
INTERNAL COORDINATES (ANGSTROEM)
--------------------------------
 Ar     0   0   0     0.000000000000     0.00000000     0.00000000

---------------------------
INTERNAL COORDINATES (A.U.)
---------------------------
 Ar     0   0   0     0.000000000000     0.00000000     0.00000000

---------------------
BASIS SET INFORMATION
---------------------
There are 1 groups of distinct atoms

 Group   1 Type Ar  : 10s7p1d contracted to 4s3p1d pattern {5311/511/1}

Atom   0Ar   basis set group =>   1

Checking for AutoStart:
The File: 18_Ar.gbw exists
Trying to determine its content:
     ... Fine, the file contains calculation information
     ... Fine, the calculation information was read
     ... Fine, the file contains a basis set
     ... Fine, the basis set was read
     ... Fine, the file contains a geometry
     ... Fine, the geometry was read
     ... Fine, the file contains a set of orbitals
     ... Fine, the orbitals can be read
     => possible old guess file was deleted
     => GBW file was renamed to GES file
     => GES file is set as startup file
     => Guess is set to MORead
     ... now leaving AutoStart



           ************************************************************
           *        Program running with 10 parallel MPI-processes    *
           *              working on a common directory               *
           ************************************************************
------------------------------------------------------------------------------
                           ORCA GTO INTEGRAL CALCULATION
------------------------------------------------------------------------------

                         BASIS SET STATISTICS AND STARTUP INFO

 # of primitive gaussian shells          ...   18
 # of primitive gaussian functions       ...   36
 # of contracted shells                  ...    8
 # of contracted basis functions         ...   18
 Highest angular momentum                ...    2
 Maximum contraction depth               ...    5
 Integral package used                   ... LIBINT
 Integral threshhold            Thresh   ...  2.500e-11
 Primitive cut-off              TCut     ...  2.500e-12


------------------------------ INTEGRAL EVALUATION ----------------------------


 * One electron integrals 
 Pre-screening matrix                    ... done
 Shell pair data                         ... done (   0.000 sec)



           ************************************************************
           *        Program running with 10 parallel MPI-processes    *
           *              working on a common directory               *
           ************************************************************
-------------------------------------------------------------------------------
                                 ORCA SCF
-------------------------------------------------------------------------------

------------
SCF SETTINGS
------------
Hamiltonian:
 Ab initio Hamiltonian  Method          .... Hartree-Fock(GTOs)


General Settings:
 Integral files         IntName         .... 18_Ar
 Hartree-Fock type      HFTyp           .... RHF
 Total Charge           Charge          ....    0
 Multiplicity           Mult            ....    1
 Number of Electrons    NEL             ....   18
 Basis Dimension        Dim             ....   18
 Nuclear Repulsion      ENuc            ....      0.0000000000 Eh

Convergence Acceleration:
 DIIS                   CNVDIIS         .... on
   Start iteration      DIISMaxIt       ....    12
   Startup error        DIISStart       ....  0.200000
   # of expansion vecs  DIISMaxEq       ....     5
   Bias factor          DIISBfac        ....   1.050
   Max. coefficient     DIISMaxC        ....  10.000
 Newton-Raphson         CNVNR           .... off
 SOSCF                  CNVSOSCF        .... on
   Start iteration      SOSCFMaxIt      ....   150
   Startup grad/error   SOSCFStart      ....  0.003300
 Level Shifting         CNVShift        .... on
   Level shift para.    LevelShift      ....    0.2500
   Turn off err/grad.   ShiftErr        ....    0.0010
 Zerner damping         CNVZerner       .... off
 Static damping         CNVDamp         .... on
   Fraction old density DampFac         ....    0.7000
   Max. Damping (<1)    DampMax         ....    0.9800
   Min. Damping (>=0)   DampMin         ....    0.0000
   Turn off err/grad.   DampErr         ....    0.1000
 Fernandez-Rico         CNVRico         .... off

SCF Procedure:
 Maximum # iterations   MaxIter         ....   125
 SCF integral mode      SCFMode         .... Direct
   Integral package                     .... LIBINT
 Reset frequency        DirectResetFreq ....    20
 Integral Threshold     Thresh          ....  2.500e-11 Eh
 Primitive CutOff       TCut            ....  2.500e-12 Eh

Convergence Tolerance:
 Convergence Check Mode ConvCheckMode   .... Total+1el-Energy
 Convergence forced     ConvForced      .... 1
 Energy Change          TolE            ....  1.000e-08 Eh
 1-El. energy change                    ....  1.000e-05 Eh
 Orbital Gradient       TolG            ....  1.000e-05
 Orbital Rotation angle TolX            ....  1.000e-05
 DIIS Error             TolErr          ....  5.000e-07


Diagonalization of the overlap matrix:
Smallest eigenvalue                        ... 1.138e-01
Time for diagonalization                   ...    0.001 sec
Threshold for overlap eigenvalues          ... 1.000e-08
Number of eigenvalues below threshold      ... 0
Time for construction of square roots      ...    0.006 sec
Total time needed                          ...    0.007 sec

---------------------
INITIAL GUESS: MOREAD
---------------------
Guess MOs are being read from file: 18_Ar.ges
Input Geometry matches current geometry (good)
Input basis set matches current basis set (good)
MOs were renormalized
MOs were reorthogonalized (Cholesky)
                      ------------------
                      INITIAL GUESS DONE (   0.0 sec)
                      ------------------
--------------
SCF ITERATIONS
--------------
ITER       Energy         Delta-E        Max-DP      RMS-DP      [F,P]     Damp
               ***  Starting incremental Fock matrix formation  ***
                      *** Initiating the SOSCF procedure ***
                      *** Re-Reading the Fockian *** 
                      *** Removing any level shift *** 
ITER      Energy       Delta-E        Grad      Rot      Max-DP    RMS-DP
  0   -526.62338491 -526.6233849094  0.000000  0.000000  0.000000  0.000000
               *** Restarting incremental Fock matrix formation ***
                 **** Energy Check signals convergence ****
              ***Rediagonalizing the Fockian in SOSCF/NRSCF***

               *****************************************************
               *                     SUCCESS                       *
               *           SCF CONVERGED AFTER   1 CYCLES          *
               *****************************************************


----------------
TOTAL SCF ENERGY
----------------

Total Energy       :         -526.62338491 Eh          -14330.15083 eV

Components:
Nuclear Repulsion  :            0.00000000 Eh               0.00000 eV
Electronic Energy  :         -526.62338491 Eh          -14330.15083 eV
One Electron Energy:         -728.20318155 Eh          -19815.41597 eV
Two Electron Energy:          201.57979664 Eh            5485.26513 eV

Virial components:
Potential Energy   :        -1053.24676958 Eh          -28660.30166 eV
Kinetic Energy     :          526.62338467 Eh           14330.15083 eV
Virial Ratio       :            2.00000000


---------------
SCF CONVERGENCE
---------------

  Last Energy change         ...   -1.1369e-13  Tolerance :   1.0000e-08
  Last MAX-Density change    ...    2.3824e-10  Tolerance :   1.0000e-07
  Last RMS-Density change    ...    3.2611e-11  Tolerance :   5.0000e-09
  Last Orbital Gradient      ...    1.0452e-09  Tolerance :   1.0000e-05
  Last Orbital Rotation      ...    9.6071e-11  Tolerance :   1.0000e-05

             **** THE GBW FILE WAS UPDATED (18_Ar.gbw) ****
             **** DENSITY FILE WAS UPDATED (18_Ar.scfp) ****
             **** ENERGY FILE WAS UPDATED (18_Ar.en.tmp) ****
             **** THE GBW FILE WAS UPDATED (18_Ar.gbw) ****
             **** DENSITY FILE WAS UPDATED (18_Ar.scfp) ****
----------------
ORBITAL ENERGIES
----------------

  NO   OCC          E(Eh)            E(eV) 
   0   2.0000    -118.549371     -3225.8924 
   1   2.0000     -12.302467      -334.7671 
   2   2.0000      -9.559924      -260.1388 
   3   2.0000      -9.559924      -260.1388 
   4   2.0000      -9.559924      -260.1388 
   5   2.0000      -1.259543       -34.2739 
   6   2.0000      -0.576880       -15.6977 
   7   2.0000      -0.576880       -15.6977 
   8   2.0000      -0.576880       -15.6977 
   9   0.0000       0.761805        20.7298 
  10   0.0000       1.075550        29.2672 
  11   0.0000       1.075550        29.2672 
  12   0.0000       1.075550        29.2672 
  13   0.0000       1.075550        29.2672 
  14   0.0000       1.075550        29.2672 
  15   0.0000       1.319772        35.9128 
  16   0.0000       1.319772        35.9128 
  17   0.0000       1.319772        35.9128 

                    ********************************
                    * MULLIKEN POPULATION ANALYSIS *
                    ********************************

-----------------------
MULLIKEN ATOMIC CHARGES
-----------------------
   0 Ar:   -0.000000
Sum of atomic charges:   -0.0000000

--------------------------------
MULLIKEN REDUCED ORBITAL CHARGES
--------------------------------
  0 Ars       :     6.000000  s :     6.000000
      pz      :     4.000000  p :    12.000000
      px      :     4.000000
      py      :     4.000000
      dz2     :     0.000000  d :     0.000000
      dxz     :     0.000000
      dyz     :     0.000000
      dx2y2   :     0.000000
      dxy     :     0.000000


                     *******************************
                     * LOEWDIN POPULATION ANALYSIS *
                     *******************************

----------------------
LOEWDIN ATOMIC CHARGES
----------------------
   0 Ar:   -0.000000

-------------------------------
LOEWDIN REDUCED ORBITAL CHARGES
-------------------------------
  0 Ars       :     6.000000  s :     6.000000
      pz      :     4.000000  p :    12.000000
      px      :     4.000000
      py      :     4.000000
      dz2     :     0.000000  d :     0.000000
      dxz     :     0.000000
      dyz     :     0.000000
      dx2y2   :     0.000000
      dxy     :     0.000000


                      *****************************
                      * MAYER POPULATION ANALYSIS *
                      *****************************

  NA   - Mulliken gross atomic population
  ZA   - Total nuclear charge
  QA   - Mulliken gross atomic charge
  VA   - Mayer's total valence
  BVA  - Mayer's bonded valence
  FA   - Mayer's free valence

  ATOM       NA         ZA         QA         VA         BVA        FA
  0 Ar    18.0000    18.0000    -0.0000    -0.0000     0.0000    -0.0000

  Mayer bond orders larger than 0.100000


--------------------------
ATOM BASIS FOR ELEMENT Ar
--------------------------
 NewGTO Ar
 S 10
    1      11797.119764999999         0.005352336950
    2       1774.352275300000         0.040086904549
    3        403.188757330000         0.181439757673
    4        113.249339990000         0.470322176754
    5         34.835298193000         0.436789864188
    6         58.614775042000        -0.002113442656
    7          6.492204507800         0.012899900027
    8          2.711701440300         0.011215055388
    9          0.544129745400        -0.008724280728
   10          0.205174111400         0.004238152692
 S 10
    1      11797.119764999999         0.001709840160
    2       1774.352275300000         0.012806032192
    3        403.188757330000         0.057962155066
    4        113.249339990000         0.150247593415
    5         34.835298193000         0.139535469867
    6         58.614775042000         0.096234543029
    7          6.492204507800        -0.587390426904
    8          2.711701440300        -0.510671877943
    9          0.544129745400        -0.030778609845
   10          0.205174111400         0.007029306615
 S 10
    1      11797.119764999999         0.000481733721
    2       1774.352275300000         0.003607996631
    3        403.188757330000         0.016330371273
    4        113.249339990000         0.042331051710
    5         34.835298193000         0.039312997008
    6         58.614775042000         0.053054304677
    7          6.492204507800        -0.323829569843
    8          2.711701440300        -0.281534473479
    9          0.544129745400         0.743880222675
   10          0.205174111400         0.431677008780
 S 10
    1      11797.119764999999        -0.000424459251
    2       1774.352275300000        -0.003179033315
    3        403.188757330000        -0.014388814521
    4        113.249339990000        -0.037298212109
    5         34.835298193000        -0.034638981121
    6         58.614775042000        -0.055779739441
    7          6.492204507800         0.340464909287
    8          2.711701440300         0.295997085815
    9          0.544129745400        -2.118841329534
   10          0.205174111400         1.931433315832
 P 7
    1        356.287072560000         0.008502409188
    2         83.593132866000         0.062004702284
    3         26.186704029000         0.236721896217
    4          9.225727592500         0.476678924912
    5          3.392275495400         0.381969554891
    6          0.947405340100         0.043086900208
    7          0.256591350600        -0.004861722346
 P 7
    1        356.287072560000         0.002514774353
    2         83.593132866000         0.018339253221
    3         26.186704029000         0.070015702646
    4          9.225727592500         0.140988266814
    5          3.392275495400         0.112975889441
    6          0.947405340100        -0.495615136859
    7          0.256591350600        -0.654231771610
 P 7
    1        356.287072560000         0.003484580083
    2         83.593132866000         0.025411662255
    3         26.186704029000         0.097016785073
    4          9.225727592500         0.195359438843
    5          3.392275495400         0.156544277498
    6          0.947405340100        -1.285538814413
    7          0.256591350600         1.098189596700
 D 1
    1          0.696000000000         1.000000000000
 end
  // -----------------------------------------------
  // The basis set
  // -----------------------------------------------
  BAS[ATNO] = new BFNGauss[NSH];
  // Basis function   1 L = s
  InitBFNGauss(BAS[ATNO][  0]);
  BAS[ATNO][  0].l  = 0;
  BAS[ATNO][  0].ng = 10;
  BAS[ATNO][  0].a[  0] =     11797.119764999999;     BAS[ATNO][  0].d[  0] =         0.005352336950;
  BAS[ATNO][  0].a[  1] =      1774.352275300000;     BAS[ATNO][  0].d[  1] =         0.040086904549;
  BAS[ATNO][  0].a[  2] =       403.188757330000;     BAS[ATNO][  0].d[  2] =         0.181439757673;
  BAS[ATNO][  0].a[  3] =       113.249339990000;     BAS[ATNO][  0].d[  3] =         0.470322176754;
  BAS[ATNO][  0].a[  4] =        34.835298193000;     BAS[ATNO][  0].d[  4] =         0.436789864188;
  BAS[ATNO][  0].a[  5] =        58.614775042000;     BAS[ATNO][  0].d[  5] =        -0.002113442656;
  BAS[ATNO][  0].a[  6] =         6.492204507800;     BAS[ATNO][  0].d[  6] =         0.012899900027;
  BAS[ATNO][  0].a[  7] =         2.711701440300;     BAS[ATNO][  0].d[  7] =         0.011215055388;
  BAS[ATNO][  0].a[  8] =         0.544129745400;     BAS[ATNO][  0].d[  8] =        -0.008724280728;
  BAS[ATNO][  0].a[  9] =         0.205174111400;     BAS[ATNO][  0].d[  9] =         0.004238152692;

  // Basis function   2 L = s
  InitBFNGauss(BAS[ATNO][  1]);
  BAS[ATNO][  1].l  = 0;
  BAS[ATNO][  1].ng = 10;
  BAS[ATNO][  1].a[  0] =     11797.119764999999;     BAS[ATNO][  1].d[  0] =        -0.001709840160;
  BAS[ATNO][  1].a[  1] =      1774.352275300000;     BAS[ATNO][  1].d[  1] =        -0.012806032192;
  BAS[ATNO][  1].a[  2] =       403.188757330000;     BAS[ATNO][  1].d[  2] =        -0.057962155066;
  BAS[ATNO][  1].a[  3] =       113.249339990000;     BAS[ATNO][  1].d[  3] =        -0.150247593415;
  BAS[ATNO][  1].a[  4] =        34.835298193000;     BAS[ATNO][  1].d[  4] =        -0.139535469867;
  BAS[ATNO][  1].a[  5] =        58.614775042000;     BAS[ATNO][  1].d[  5] =        -0.096234543029;
  BAS[ATNO][  1].a[  6] =         6.492204507800;     BAS[ATNO][  1].d[  6] =         0.587390426904;
  BAS[ATNO][  1].a[  7] =         2.711701440300;     BAS[ATNO][  1].d[  7] =         0.510671877943;
  BAS[ATNO][  1].a[  8] =         0.544129745400;     BAS[ATNO][  1].d[  8] =         0.030778609845;
  BAS[ATNO][  1].a[  9] =         0.205174111400;     BAS[ATNO][  1].d[  9] =        -0.007029306615;

  // Basis function   3 L = s
  InitBFNGauss(BAS[ATNO][  2]);
  BAS[ATNO][  2].l  = 0;
  BAS[ATNO][  2].ng = 10;
  BAS[ATNO][  2].a[  0] =     11797.119764999999;     BAS[ATNO][  2].d[  0] =         0.000481733721;
  BAS[ATNO][  2].a[  1] =      1774.352275300000;     BAS[ATNO][  2].d[  1] =         0.003607996631;
  BAS[ATNO][  2].a[  2] =       403.188757330000;     BAS[ATNO][  2].d[  2] =         0.016330371273;
  BAS[ATNO][  2].a[  3] =       113.249339990000;     BAS[ATNO][  2].d[  3] =         0.042331051710;
  BAS[ATNO][  2].a[  4] =        34.835298193000;     BAS[ATNO][  2].d[  4] =         0.039312997008;
  BAS[ATNO][  2].a[  5] =        58.614775042000;     BAS[ATNO][  2].d[  5] =         0.053054304677;
  BAS[ATNO][  2].a[  6] =         6.492204507800;     BAS[ATNO][  2].d[  6] =        -0.323829569843;
  BAS[ATNO][  2].a[  7] =         2.711701440300;     BAS[ATNO][  2].d[  7] =        -0.281534473479;
  BAS[ATNO][  2].a[  8] =         0.544129745400;     BAS[ATNO][  2].d[  8] =         0.743880222675;
  BAS[ATNO][  2].a[  9] =         0.205174111400;     BAS[ATNO][  2].d[  9] =         0.431677008780;

  // Basis function   4 L = s
  InitBFNGauss(BAS[ATNO][  3]);
  BAS[ATNO][  3].l  = 0;
  BAS[ATNO][  3].ng = 10;
  BAS[ATNO][  3].a[  0] =     11797.119764999999;     BAS[ATNO][  3].d[  0] =         0.000424459251;
  BAS[ATNO][  3].a[  1] =      1774.352275300000;     BAS[ATNO][  3].d[  1] =         0.003179033315;
  BAS[ATNO][  3].a[  2] =       403.188757330000;     BAS[ATNO][  3].d[  2] =         0.014388814521;
  BAS[ATNO][  3].a[  3] =       113.249339990000;     BAS[ATNO][  3].d[  3] =         0.037298212109;
  BAS[ATNO][  3].a[  4] =        34.835298193000;     BAS[ATNO][  3].d[  4] =         0.034638981121;
  BAS[ATNO][  3].a[  5] =        58.614775042000;     BAS[ATNO][  3].d[  5] =         0.055779739441;
  BAS[ATNO][  3].a[  6] =         6.492204507800;     BAS[ATNO][  3].d[  6] =        -0.340464909287;
  BAS[ATNO][  3].a[  7] =         2.711701440300;     BAS[ATNO][  3].d[  7] =        -0.295997085815;
  BAS[ATNO][  3].a[  8] =         0.544129745400;     BAS[ATNO][  3].d[  8] =         2.118841329534;
  BAS[ATNO][  3].a[  9] =         0.205174111400;     BAS[ATNO][  3].d[  9] =        -1.931433315832;

  // Basis function   5 L = p
  InitBFNGauss(BAS[ATNO][  4]);
  BAS[ATNO][  4].l  = 1;
  BAS[ATNO][  4].ng = 7;
  BAS[ATNO][  4].a[  0] =       356.287072560000;     BAS[ATNO][  4].d[  0] =         0.008502409188;
  BAS[ATNO][  4].a[  1] =        83.593132866000;     BAS[ATNO][  4].d[  1] =         0.062004702284;
  BAS[ATNO][  4].a[  2] =        26.186704029000;     BAS[ATNO][  4].d[  2] =         0.236721896217;
  BAS[ATNO][  4].a[  3] =         9.225727592500;     BAS[ATNO][  4].d[  3] =         0.476678924912;
  BAS[ATNO][  4].a[  4] =         3.392275495400;     BAS[ATNO][  4].d[  4] =         0.381969554891;
  BAS[ATNO][  4].a[  5] =         0.947405340100;     BAS[ATNO][  4].d[  5] =         0.043086900208;
  BAS[ATNO][  4].a[  6] =         0.256591350600;     BAS[ATNO][  4].d[  6] =        -0.004861722346;

  // Basis function   6 L = p
  InitBFNGauss(BAS[ATNO][  5]);
  BAS[ATNO][  5].l  = 1;
  BAS[ATNO][  5].ng = 7;
  BAS[ATNO][  5].a[  0] =       356.287072560000;     BAS[ATNO][  5].d[  0] =        -0.002514774353;
  BAS[ATNO][  5].a[  1] =        83.593132866000;     BAS[ATNO][  5].d[  1] =        -0.018339253221;
  BAS[ATNO][  5].a[  2] =        26.186704029000;     BAS[ATNO][  5].d[  2] =        -0.070015702646;
  BAS[ATNO][  5].a[  3] =         9.225727592500;     BAS[ATNO][  5].d[  3] =        -0.140988266814;
  BAS[ATNO][  5].a[  4] =         3.392275495400;     BAS[ATNO][  5].d[  4] =        -0.112975889441;
  BAS[ATNO][  5].a[  5] =         0.947405340100;     BAS[ATNO][  5].d[  5] =         0.495615136859;
  BAS[ATNO][  5].a[  6] =         0.256591350600;     BAS[ATNO][  5].d[  6] =         0.654231771610;

  // Basis function   7 L = p
  InitBFNGauss(BAS[ATNO][  6]);
  BAS[ATNO][  6].l  = 1;
  BAS[ATNO][  6].ng = 7;
  BAS[ATNO][  6].a[  0] =       356.287072560000;     BAS[ATNO][  6].d[  0] =        -0.003484580083;
  BAS[ATNO][  6].a[  1] =        83.593132866000;     BAS[ATNO][  6].d[  1] =        -0.025411662255;
  BAS[ATNO][  6].a[  2] =        26.186704029000;     BAS[ATNO][  6].d[  2] =        -0.097016785073;
  BAS[ATNO][  6].a[  3] =         9.225727592500;     BAS[ATNO][  6].d[  3] =        -0.195359438843;
  BAS[ATNO][  6].a[  4] =         3.392275495400;     BAS[ATNO][  6].d[  4] =        -0.156544277498;
  BAS[ATNO][  6].a[  5] =         0.947405340100;     BAS[ATNO][  6].d[  5] =         1.285538814413;
  BAS[ATNO][  6].a[  6] =         0.256591350600;     BAS[ATNO][  6].d[  6] =        -1.098189596700;

  // Basis function   8 L = d
  InitBFNGauss(BAS[ATNO][  7]);
  BAS[ATNO][  7].l  = 2;
  BAS[ATNO][  7].ng = 1;
  BAS[ATNO][  7].a[  0] =         0.696000000000;     BAS[ATNO][  7].d[  0] =         1.000000000000;

-------------------------------------------
RADIAL EXPECTATION VALUES <R**-3> TO <R**3>
-------------------------------------------
   0 :     0.000000   616.138709    17.540508     0.086079     0.009974     0.001523
   1 :     0.000000    52.876244     3.558568     0.412723     0.201471     0.112931
   2 :     0.000000     5.226707     0.962267     1.426157     2.362985     4.439609
   3 :     0.000000     4.178570     0.721683     2.229078     5.872416    16.847501
   4 :   123.148248    16.510628     3.451004     0.375081     0.174193     0.097212
   5 :   123.148248    16.510628     3.451004     0.375081     0.174193     0.097212
   6 :   123.148248    16.510628     3.451004     0.375081     0.174193     0.097212
   7 :     8.881154     1.461434     0.813979     1.641621     3.169072     6.972769
   8 :     8.881154     1.461434     0.813979     1.641621     3.169072     6.972769
   9 :     8.881154     1.461434     0.813979     1.641621     3.169072     6.972769
  10 :    15.926702     2.216225     0.891646     1.865179     4.396722    11.726992
  11 :    15.926702     2.216225     0.891646     1.865179     4.396722    11.726992
  12 :    15.926702     2.216225     0.891646     1.865179     4.396722    11.726992
  13 :     0.494177     0.556800     0.710025     1.530225     2.514368    21.985998
  14 :     0.494177     0.556800     0.710025     1.530225     2.514368    21.985998
  15 :     0.494177     0.556800     0.710025     1.530225     2.514368    21.985998
  16 :     0.494177     0.556800     0.710025     1.530225     2.514368    21.985998
  17 :     0.494177     0.556800     0.710025     1.530225     2.514368    21.985998
-------
TIMINGS
-------

Total SCF time: 0 days 0 hours 0 min 0 sec 

Total time                  ....       0.516 sec
Sum of individual times     ....       0.230 sec  ( 44.6%)

Fock matrix formation       ....       0.207 sec  ( 40.2%)
Diagonalization             ....       0.002 sec  (  0.3%)
Density matrix formation    ....       0.000 sec  (  0.0%)
Population analysis         ....       0.014 sec  (  2.6%)
Initial guess               ....       0.004 sec  (  0.7%)
Orbital Transformation      ....       0.000 sec  (  0.0%)
Orbital Orthonormalization  ....       0.000 sec  (  0.1%)
DIIS solution               ....       0.000 sec  (  0.0%)
SOSCF solution              ....       0.004 sec  (  0.7%)


           ************************************************************
           *        Program running with 10 parallel MPI-processes    *
           *              working on a common directory               *
           ************************************************************


------------------------------------------------------------------------------- 
                              ORCA-MATRIX DRIVEN CI                            
------------------------------------------------------------------------------- 

--------------------------------
AUTOMATIC CHOICE OF INCORE LEVEL
--------------------------------

Memory available                           ...   2500.00 MB
Memory needed for S+T                      ...      0.02 MB
Memory needed for J+K                      ...      0.04 MB
Memory needed for DIIS                     ...      0.26 MB
Memory needed for 3-ext                    ...      0.02 MB
Memory needed for 4-ext                    ...      0.03 MB
Memory needed for triples                  ...      0.03 MB
 -> Final InCoreLevel    ... 5
 -> check shows that triples correction can be computed


Wavefunction type
-----------------
Correlation treatment                      ...      CCSD     
Single excitations                         ... ON
Orbital optimization                       ... OFF
Calculation of Z vector                    ... OFF
Calculation of Brueckner orbitals          ... OFF
Perturbative triple excitations            ... ON
Calculation of F12 correction              ... OFF
Frozen core treatment                      ... chemical core (10 el)
Reference Wavefunction                     ... RHF
  Internal Orbitals:     5 ...    8 (  4 MO's/  8 electrons)
  Virtual  Orbitals:     9 ...   17 (  9 MO's              )
Number of AO's                             ...     18
Number of electrons                        ...     18
Number of correlated electrons             ...      8

Algorithmic settings
--------------------
Integral transformation                    ... AO direct full transformation
K(C) Formation                             ... FULL-MO TRAFO
Maximum number of iterations               ...        50
Convergence tolerance (max. residuum)      ... 1.000e-05
Level shift for amplitude update           ... 2.000e-01
Maximum number of DIIS vectors             ...         7
DIIS turned on at iteration                ...         0
Damping before turning on DIIS             ...     0.500
Damping after turning on DIIS              ...     0.000
Pair specific amplitude update             ... OFF
Natural orbital iterations                 ... OFF
Perturbative natural orbital generation    ... OFF
Printlevel                                 ... 2

Memory handling:
----------------
Maximum memory for working arrays          ...   2500 MB
Data storage in matrix containers          ... UNCOMPRESSED
Data type for integral storage             ... DOUBLE
In-Core Storage of quantities:
   Amplitudes+Sigma Vector      ... YES
   J+K operators                ... YES
   DIIS vectors                 ... YES
   3-external integrals         ... YES
   4-external integrals         ... YES


Initializing the integral package          ... done
Warning: reference  - re-canonicalizations have been set to INT 1 VIRT 1

--------------------------
CLOSED-SHELL FOCK OPERATOR
--------------------------

<ss|ss>:           55 b            0 skpd (  0.0%)    0.000 s ( 0.001 ms/b)
<ss|sp>:          120 b            0 skpd (  0.0%)    0.000 s ( 0.001 ms/b)
<ss|sd>:           40 b            0 skpd (  0.0%)    0.000 s ( 0.001 ms/b)
<ss|pp>:           60 b            0 skpd (  0.0%)    0.000 s ( 0.002 ms/b)
<ss|pd>:           30 b            0 skpd (  0.0%)    0.000 s ( 0.002 ms/b)
<ss|dd>:           10 b            0 skpd (  0.0%)    0.000 s ( 0.003 ms/b)
<sp|sp>:           78 b            0 skpd (  0.0%)    0.000 s ( 0.002 ms/b)
<sp|sd>:           48 b            0 skpd (  0.0%)    0.000 s ( 0.001 ms/b)
<sp|pp>:           72 b            0 skpd (  0.0%)    0.000 s ( 0.004 ms/b)
<sp|pd>:           36 b            0 skpd (  0.0%)    0.000 s ( 0.003 ms/b)
<sp|dd>: done
<sd|sd>:           10 b            0 skpd (  0.0%)    0.000 s ( 0.001 ms/b)
<sd|pp>:           24 b            0 skpd (  0.0%)    0.000 s ( 0.004 ms/b)
<sd|pd>: done
<sd|dd>: done
<pp|pp>:           21 b            0 skpd (  0.0%)    0.000 s ( 0.016 ms/b)
<pp|pd>:           18 b            0 skpd (  0.0%)    0.000 s ( 0.008 ms/b)
<pp|dd>:            6 b            0 skpd (  0.0%)    0.000 s ( 0.015 ms/b)
<pd|pd>:            6 b            0 skpd (  0.0%)    0.000 s ( 0.009 ms/b)
<pd|dd>: done
<dd|dd>: done
Recanonicalizing the internal orbitals
Recanonicalizing the virtual orbitals
Time needed for Fock operator              ...            0.013 sec
Reference energy                           ...   -526.623384909

------------------------------
PARTIAL COULOMB TRANSFORMATION
------------------------------

Transformation type                        ... one-operator
Dimension of the basis                     ...   18
Number of internal MOs                     ...   13 (5-17)
Pair cutoff                                ... 0.000e+00 Eh
Number of AO pairs included in the trafo   ...  171
Total Number of distinct AO pairs          ...  171
Memory devoted for trafo                   ... 2500.0 MB 
Max. Number of MO pairs treated together   ... 1916257      
Max. Number of MOs treated per batch       ... 106458      
Number Format for Storage                  ... Double (8 Byte)
AO-integral source                         ... DIRECT
Integral package used                      ... LIBINT

Starting integral evaluation:
<ss|**>: <sp|**>:          360 b        0 skpd     0.006 s (  0.017 ms/b)
<sd|**>:          432 b        0 skpd     0.004 s (  0.010 ms/b)
<pp|**>:          144 b        0 skpd     0.002 s (  0.017 ms/b)
<pd|**>:          216 b        0 skpd     0.004 s (  0.021 ms/b)
<dd|**>:          108 b        0 skpd     0.006 s (  0.059 ms/b)
          36 b        0 skpd     0.005 s (  0.131 ms/b)
Closing buffer AOJ ( 0.00 GB; CompressionRatio= 0.98)
Collecting buffer AOJ 
    ... done with AO integral generation
Number of MO pairs included in the trafo   ...   91
    ... Now sorting integrals
IBATCH = 1 of  1
Closing buffer JAO ( 0.00 GB; CompressionRatio= 0.99)
Collecting buffer JAO 
TOTAL TIME for half transformation         ...     0.060 sec
AO-integral generation                     ...     0.019 sec
Half transformation                        ...     0.009 sec
J-integral sorting                         ...     0.022 sec

-------------------------- SECOND HALF TRANSFORMATION -------------------------
Formation of (pq|rs)                       ... ok (     0.026 sec)
Integral sorting                           ... ok (     0.021 sec)

------------------
CLOSED SHELL GUESS
------------------

Initial guess performed in     0.001 sec
E(0)                                       ...   -526.623384909
E(MP2)                                     ...     -0.141034307
Initial E(tot)                             ...   -526.764419216
<T|T>                                      ...      0.040217228
Number of pairs included                   ... 10
Total number of pairs                      ... 10

------------------------------------------------
                  RHF COUPLED CLUSTER ITERATIONS
------------------------------------------------

Number of amplitudes to be optimized       ... 846

Iter       E(tot)           E(Corr)          Delta-E          Residual     Time
  0   -526.764419216     -0.141034307      0.000000000      0.012800739    0.00
                           *** Turning on DIIS ***
  1   -526.773732804     -0.150347894     -0.009313587      0.003244403    0.00
  2   -526.775709910     -0.152325001     -0.001977106      0.000590130    0.00
  3   -526.775781531     -0.152396622     -0.000071621      0.000184732    0.00
  4   -526.775781182     -0.152396273      0.000000349      0.000047549    0.00
  5   -526.775781948     -0.152397039     -0.000000766      0.000003137    0.00
               --- The Coupled-Cluster iterations have converged ---

----------------------
COUPLED CLUSTER ENERGY
----------------------

E(0)                                       ...   -526.623384909
E(CORR)                                    ...     -0.152397039
E(TOT)                                     ...   -526.775781948
Singles Norm <S|S>**1/2                    ...      0.004120633  
T1 diagnostic                              ...      0.001456864  

------------------
LARGEST AMPLITUDES
------------------
   7-> 10   7-> 10       0.040997
   6-> 14   6-> 14       0.039739
   7-> 12   7-> 12       0.034825
   8-> 11   8-> 11       0.034281
   6-> 13   6-> 13       0.033810
   8-> 13   8-> 13       0.033702
   6-> 12   6-> 12       0.033654
   7-> 11   7-> 11       0.033372
   8-> 17   8-> 17       0.030138
   7-> 16   7-> 16       0.030138
   6-> 15   6-> 15       0.030138
   8-> 14   8-> 14       0.026221
   7-> 10   6-> 12       0.022908
   8-> 11   6-> 12       0.022864
   8-> 10   8-> 10       0.022831
   7-> 12   6-> 14       0.022230


        !!!!!!!!!!!!!!!!!!!!!!!!!!!!!!!!!!!!!!!!!!!!!!!!!!!!!!!!!!!!!!!!!!!!!!!!!! 
        !  Warning: Densities are linearized densities !                         !
        !!!!!!!!!!!!!!!!!!!!!!!!!!!!!!!!!!!!!!!!!!!!!!!!!!!!!!!!!!!!!!!!!!!!!!!!!! 

Trace of internal density part =     -0.094595926
Trace of external density part =      0.094595926
----------------------
RHF TRIPLES CORRECTION (Algorithm 1)
----------------------

Multiplier for the singles contribution    ...      1.000000000

10% done
20% done
30% done
40% done
50% done
60% done
70% done
80% done
90% done

Triples Correction (T)                     ...     -0.000715112
Scaling of triples based on CCSD energies (Peterson et al. Molecular Physics 113, 1551 (2015))
E(T*) = f*E(T) where f = E(F12-CCSD)/E(CCSD) 
f = CCSD (with F12)/ CCSD (without F12)    ...      1.000000000
Scaled triples correction (T)              ...     -0.000715112

Final correlation energy                   ...     -0.153112150
E(CCSD)                                    ...   -526.775781948
E(CCSD(T))                                 ...   -526.776497060

NORM  =      1.047314942 sqrt=     1.023384064
W(HF) =      0.954822623
------------------------------------------------------------------------------
                           ORCA POPULATION ANALYSIS
------------------------------------------------------------------------------
Input electron density              ... 18_Ar.mdcip
BaseName (.gbw .S,...)              ... 18_Ar

                    ********************************
                    * MULLIKEN POPULATION ANALYSIS *
                    ********************************

-----------------------
MULLIKEN ATOMIC CHARGES
-----------------------
   0 Ar:   -0.000000
Sum of atomic charges:   -0.0000000

--------------------------------
MULLIKEN REDUCED ORBITAL CHARGES
--------------------------------
  0 Ars       :     5.996479  s :     5.996479
      pz      :     3.978629  p :    11.935887
      px      :     3.978629
      py      :     3.978629
      dz2     :     0.013527  d :     0.067634
      dxz     :     0.013527
      dyz     :     0.013527
      dx2y2   :     0.013527
      dxy     :     0.013527


                     *******************************
                     * LOEWDIN POPULATION ANALYSIS *
                     *******************************

----------------------
LOEWDIN ATOMIC CHARGES
----------------------
   0 Ar:   -0.000000

-------------------------------
LOEWDIN REDUCED ORBITAL CHARGES
-------------------------------
  0 Ars       :     5.996479  s :     5.996479
      pz      :     3.978629  p :    11.935887
      px      :     3.978629
      py      :     3.978629
      dz2     :     0.013527  d :     0.067634
      dxz     :     0.013527
      dyz     :     0.013527
      dx2y2   :     0.013527
      dxy     :     0.013527


                      *****************************
                      * MAYER POPULATION ANALYSIS *
                      *****************************

  NA   - Mulliken gross atomic population
  ZA   - Total nuclear charge
  QA   - Mulliken gross atomic charge
  VA   - Mayer's total valence
  BVA  - Mayer's bonded valence
  FA   - Mayer's free valence

  ATOM       NA         ZA         QA         VA         BVA        FA
  0 Ar    18.0000    18.0000    -0.0000     0.3747     0.0000     0.3747





------------------------------------------------------------------------------- 
                                     TIMINGS                                   
------------------------------------------------------------------------------- 


Total execution time                   ...        0.407 sec

Fock Matrix Formation                  ...        0.013 sec (  3.1%)
Initial Guess                          ...        0.001 sec (  0.2%)
DIIS Solver                            ...        0.001 sec (  0.3%)
State Vector Update                    ...        0.000 sec (  0.0%)
Sigma-vector construction              ...        0.020 sec (  4.9%)
  <D|H|D>(4-ext)                       ...        0.001 sec (  5.8% of sigma)
  Fock-dressing                        ...        0.010 sec ( 51.1% of sigma)
  (ij|ab),(ia|jb)-dressing             ...        0.003 sec ( 14.5% of sigma)
Total Time for computing (T)           ...        0.000 sec (  0.0% of ALL)


-------------------------   --------------------
FINAL SINGLE POINT ENERGY      -526.776497059907
-------------------------   --------------------


                            ***************************************
                            *     ORCA property calculations      *
                            ***************************************

                                    ---------------------
                                    Active property flags
                                    ---------------------
   (+) Dipole Moment


------------------------------------------------------------------------------
                       ORCA ELECTRIC PROPERTIES CALCULATION
------------------------------------------------------------------------------

Dipole Moment Calculation                       ... on
Quadrupole Moment Calculation                   ... off
Polarizability Calculation                      ... off
GBWName                                         ... 18_Ar.gbw
Electron density file                           ... 18_Ar.scfp
The origin for moment calculation is the CENTER OF MASS  = ( 0.000000,  0.000000  0.000000)

-------------
DIPOLE MOMENT
-------------
                                X             Y             Z
Electronic contribution:     -0.00000      -0.00000      -0.00000
Nuclear contribution   :      0.00000       0.00000       0.00000
                        -----------------------------------------
Total Dipole Moment    :     -0.00000      -0.00000      -0.00000
                        -----------------------------------------
Magnitude (a.u.)       :      0.00000
Magnitude (Debye)      :      0.00000



--------------------
Rotational spectrum 
--------------------
 
Rotational constants in cm-1:     0.000000     0.000000     0.000000 
Rotational constants in MHz :     0.000000     0.000000     0.000000 

 Dipole components along the rotational axes: 
x,y,z [a.u.] :    -0.000000    -0.000000    -0.000000 
x,y,z [Debye]:    -0.000000    -0.000000    -0.000000 

 

                           *** MDCI DENSITY ***

------------------------------------------------------------------------------
                       ORCA ELECTRIC PROPERTIES CALCULATION
------------------------------------------------------------------------------

Dipole Moment Calculation                       ... on
Quadrupole Moment Calculation                   ... off
Polarizability Calculation                      ... off
GBWName                                         ... 18_Ar.gbw
Electron density file                           ... 18_Ar.mdcip
The origin for moment calculation is the CENTER OF MASS  = ( 0.000000,  0.000000  0.000000)

-------------
DIPOLE MOMENT
-------------
                                X             Y             Z
Electronic contribution:      0.00000       0.00000      -0.00000
Nuclear contribution   :      0.00000       0.00000       0.00000
                        -----------------------------------------
Total Dipole Moment    :      0.00000       0.00000      -0.00000
                        -----------------------------------------
Magnitude (a.u.)       :      0.00000
Magnitude (Debye)      :      0.00000



--------------------
Rotational spectrum 
--------------------
 
Rotational constants in cm-1:     0.000000     0.000000     0.000000 
Rotational constants in MHz :     0.000000     0.000000     0.000000 

 Dipole components along the rotational axes: 
x,y,z [a.u.] :     0.000000     0.000000    -0.000000 
x,y,z [Debye]:     0.000000     0.000000    -0.000000 

 

Timings for individual modules:

Sum of individual times         ...        2.402 sec (=   0.040 min)
GTO integral calculation        ...        0.711 sec (=   0.012 min)  29.6 %
SCF iterations                  ...        0.904 sec (=   0.015 min)  37.6 %
MDCI module                     ...        0.787 sec (=   0.013 min)  32.7 %
                             ****ORCA TERMINATED NORMALLY****
TOTAL RUN TIME: 0 days 0 hours 0 minutes 3 seconds 182 msec
