
                                 *****************
                                 * O   R   C   A *
                                 *****************

           --- An Ab Initio, DFT and Semiempirical electronic structure package ---

                  #######################################################
                  #                        -***-                        #
                  #          Department of theory and spectroscopy      #
                  #               Directorship: Frank Neese             #
                  #        Max Planck Institute fuer Kohlenforschung    #
                  #                Kaiser Wilhelm Platz 1               #
                  #                 D-45470 Muelheim/Ruhr               #
                  #                      Germany                        #
                  #                                                     #
                  #                  All rights reserved                #
                  #                        -***-                        #
                  #######################################################


                         Program Version 4.2.0 -  RELEASE  -


 With contributions from (in alphabetic order):
   Daniel Aravena         : Magnetic Suceptibility
   Michael Atanasov       : Ab Initio Ligand Field Theory (pilot matlab implementation)
   Alexander A. Auer      : GIAO ZORA, VPT2
   Ute Becker             : Parallelization
   Giovanni Bistoni       : ED, misc. LED, open-shell LED, HFLED
   Martin Brehm           : Molecular dynamics
   Dmytro Bykov           : SCF Hessian
   Vijay G. Chilkuri      : MRCI spin determinant printing, contributions to CSF-ICE
   Dipayan Datta          : RHF DLPNO-CCSD density
   Achintya Kumar Dutta   : EOM-CC, STEOM-CC
   Dmitry Ganyushin       : Spin-Orbit,Spin-Spin,Magnetic field MRCI
   Miquel Garcia          : C-PCM Hessian, Gaussian charge scheme
   Yang Guo               : DLPNO-NEVPT2, CIM, IAO-localization
   Andreas Hansen         : Spin unrestricted coupled pair/coupled cluster methods
   Benjamin Helmich-Paris : CASSCF linear response (MC-RPA)
   Lee Huntington         : MR-EOM, pCC
   Robert Izsak           : Overlap fitted RIJCOSX, COSX-SCS-MP3, EOM
   Christian Kollmar      : KDIIS, OOCD, Brueckner-CCSD(T), CCSD density
   Simone Kossmann        : Meta GGA functionals, TD-DFT gradient, OOMP2, MP2 Hessian
   Martin Krupicka        : AUTO-CI
   Lucas Lang             : DCDCAS
   Dagmar Lenk            : GEPOL surface, SMD
   Dimitrios Liakos       : Extrapolation schemes; Compound Job, initial MDCI parallelization
   Dimitrios Manganas     : Further ROCIS development; embedding schemes
   Dimitrios Pantazis     : SARC Basis sets
   Taras Petrenko         : DFT Hessian,TD-DFT gradient, ASA, ECA, R-Raman, ABS, FL, XAS/XES, NRVS
   Peter Pinski           : DLPNO-MP2, DLPNO-MP2 Gradient
   Christoph Reimann      : Effective Core Potentials
   Marius Retegan         : Local ZFS, SOC
   Christoph Riplinger    : Optimizer, TS searches, QM/MM, DLPNO-CCSD(T), (RO)-DLPNO pert. Triples
   Tobias Risthaus        : Range-separated hybrids, TD-DFT gradient, RPA, STAB
   Michael Roemelt        : Original ROCIS implementation
   Masaaki Saitow         : Open-shell DLPNO-CCSD energy and density
   Barbara Sandhoefer     : DKH picture change effects
   Avijit Sen             : IP-ROCIS
   Kantharuban Sivalingam : CASSCF convergence, NEVPT2, FIC-MRCI
   Bernardo de Souza      : ESD, SOC TD-DFT
   Georgi Stoychev        : AutoAux, RI-MP2 NMR
   Willem Van den Heuvel  : Paramagnetic NMR
   Boris Wezisla          : Elementary symmetry handling
   Frank Wennmohs         : Technical directorship


 We gratefully acknowledge several colleagues who have allowed us to
 interface, adapt or use parts of their codes:
   Stefan Grimme, W. Hujo, H. Kruse,             : VdW corrections, initial TS optimization,
                  C. Bannwarth                     DFT functionals, gCP, sTDA/sTD-DF
   Ed Valeev, F. Pavosevic, A. Kumar             : LibInt (2-el integral package), F12 methods
   Garnet Chan, S. Sharma, J. Yang, R. Olivares  : DMRG
   Ulf Ekstrom                                   : XCFun DFT Library
   Mihaly Kallay                                 : mrcc  (arbitrary order and MRCC methods)
   Andreas Klamt, Michael Diedenhofen            : otool_cosmo (COSMO solvation model)
   Jiri Pittner, Ondrej Demel                    : Mk-CCSD
   Frank Weinhold                                : gennbo (NPA and NBO analysis)
   Christopher J. Cramer and Donald G. Truhlar   : smd solvation model
   Lars Goerigk                                  : TD-DFT with DH, B97 family of functionals
   V. Asgeirsson, H. Jonsson                     : NEB implementation
   FAccTs GmbH                                   : IRC, NEB, NEB-TS, Multilevel, MM, QM/MM, CI optimization
   S Lehtola, MJT Oliveira, MAL Marques          : LibXC Library


 Your calculation uses the libint2 library for the computation of 2-el integrals
 For citations please refer to: http://libint.valeyev.net

 Your ORCA version has been built with support for libXC version: 4.2.3
 For citations please refer to: https://tddft.org/programs/libxc/

 This ORCA versions uses:
   CBLAS   interface :  Fast vector & matrix operations
   LAPACKE interface :  Fast linear algebra routines
   SCALAPACK package :  Parallel linear algebra routines


----- Orbital basis set information -----
Your calculation utilizes the basis: def2-SVP
   F. Weigend and R. Ahlrichs, Phys. Chem. Chem. Phys. 7, 3297 (2005).

================================================================================
                                        WARNINGS
                       Please study these warnings very carefully!
================================================================================


WARNING: your system is open-shell and RHF/RKS was chosen
  ===> : WILL SWITCH to UHF/UKS


WARNING: MDCI localization with Augmented Hessian Foster-Boys
  ===> : Switching off randomization!

WARNING: Post HF methods need fully converged wavefunctions
  ===> : Setting SCFConvForced true
         You can overwrite this default with %scf ConvForced false 


INFO   : the flag for use of LIBINT has been found!

================================================================================
                                       INPUT FILE
================================================================================
NAME = 21_Sc.in
|  1> #
|  2> # 21_Sc CCSD(T)/Def2-SVP
|  3> #
|  4> ! CCSD(T) Def2-SVP tightscf
|  5> 
|  6> *xyz 0 2
|  7>  Sc 0.0 0.0 0.0
|  8> *
|  9> 
| 10> %maxcore 5000 
| 11> 
| 12> %pal
| 13> nprocs 24
| 14> end
| 15> 
| 16> 
| 17>                          ****END OF INPUT****
================================================================================

                       ****************************
                       * Single Point Calculation *
                       ****************************

---------------------------------
CARTESIAN COORDINATES (ANGSTROEM)
---------------------------------
  Sc     0.000000    0.000000    0.000000

----------------------------
CARTESIAN COORDINATES (A.U.)
----------------------------
  NO LB      ZA    FRAG     MASS         X           Y           Z
   0 Sc   21.0000    0    44.960    0.000000    0.000000    0.000000

--------------------------------
INTERNAL COORDINATES (ANGSTROEM)
--------------------------------
 Sc     0   0   0     0.000000000000     0.00000000     0.00000000

---------------------------
INTERNAL COORDINATES (A.U.)
---------------------------
 Sc     0   0   0     0.000000000000     0.00000000     0.00000000

---------------------
BASIS SET INFORMATION
---------------------
There are 1 groups of distinct atoms

 Group   1 Type Sc  : 14s9p5d1f contracted to 5s3p2d1f pattern {63311/531/41/1}

Atom   0Sc   basis set group =>   1


           ************************************************************
           *        Program running with 24 parallel MPI-processes    *
           *              working on a common directory               *
           ************************************************************
------------------------------------------------------------------------------
                           ORCA GTO INTEGRAL CALCULATION
------------------------------------------------------------------------------

                         BASIS SET STATISTICS AND STARTUP INFO

 # of primitive gaussian shells          ...   29
 # of primitive gaussian functions       ...   73
 # of contracted shells                  ...   11
 # of contracted basis functions         ...   31
 Highest angular momentum                ...    3
 Maximum contraction depth               ...    6
 Integral package used                   ... LIBINT
 Integral threshhold            Thresh   ...  2.500e-11
 Primitive cut-off              TCut     ...  2.500e-12


------------------------------ INTEGRAL EVALUATION ----------------------------


 * One electron integrals 
 Pre-screening matrix                    ... done
 Shell pair data                         ... done (   0.000 sec)



           ************************************************************
           *        Program running with 24 parallel MPI-processes    *
           *              working on a common directory               *
           ************************************************************
-------------------------------------------------------------------------------
                                 ORCA SCF
-------------------------------------------------------------------------------

------------
SCF SETTINGS
------------
Hamiltonian:
 Ab initio Hamiltonian  Method          .... Hartree-Fock(GTOs)


General Settings:
 Integral files         IntName         .... 21_Sc
 Hartree-Fock type      HFTyp           .... UHF
 Total Charge           Charge          ....    0
 Multiplicity           Mult            ....    2
 Number of Electrons    NEL             ....   21
 Basis Dimension        Dim             ....   31
 Nuclear Repulsion      ENuc            ....      0.0000000000 Eh

Convergence Acceleration:
 DIIS                   CNVDIIS         .... on
   Start iteration      DIISMaxIt       ....    12
   Startup error        DIISStart       ....  0.200000
   # of expansion vecs  DIISMaxEq       ....     5
   Bias factor          DIISBfac        ....   1.050
   Max. coefficient     DIISMaxC        ....  10.000
 Newton-Raphson         CNVNR           .... off
 SOSCF                  CNVSOSCF        .... off
 Level Shifting         CNVShift        .... on
   Level shift para.    LevelShift      ....    0.2500
   Turn off err/grad.   ShiftErr        ....    0.0010
 Zerner damping         CNVZerner       .... off
 Static damping         CNVDamp         .... on
   Fraction old density DampFac         ....    0.7000
   Max. Damping (<1)    DampMax         ....    0.9800
   Min. Damping (>=0)   DampMin         ....    0.0000
   Turn off err/grad.   DampErr         ....    0.1000
 Fernandez-Rico         CNVRico         .... off

SCF Procedure:
 Maximum # iterations   MaxIter         ....   125
 SCF integral mode      SCFMode         .... Direct
   Integral package                     .... LIBINT
 Reset frequency        DirectResetFreq ....    20
 Integral Threshold     Thresh          ....  2.500e-11 Eh
 Primitive CutOff       TCut            ....  2.500e-12 Eh

Convergence Tolerance:
 Convergence Check Mode ConvCheckMode   .... Total+1el-Energy
 Convergence forced     ConvForced      .... 1
 Energy Change          TolE            ....  1.000e-08 Eh
 1-El. energy change                    ....  1.000e-05 Eh
 DIIS Error             TolErr          ....  5.000e-07


Diagonalization of the overlap matrix:
Smallest eigenvalue                        ... 1.232e-01
Time for diagonalization                   ...    0.001 sec
Threshold for overlap eigenvalues          ... 1.000e-08
Number of eigenvalues below threshold      ... 0
Time for construction of square roots      ...    0.011 sec
Total time needed                          ...    0.011 sec

-------------------
DFT GRID GENERATION
-------------------

General Integration Accuracy     IntAcc      ...  4.340
Radial Grid Type                 RadialGrid  ... Gauss-Chebyshev
Angular Grid (max. acc.)         AngularGrid ... Lebedev-110
Angular grid pruning method      GridPruning ... 3 (G Style)
Weight generation scheme         WeightScheme... Becke
Basis function cutoff            BFCut       ...    1.0000e-11
Integration weight cutoff        WCut        ...    1.0000e-14
Grids for H and He will be reduced by one unit

# of grid points (after initial pruning)     ...   2972 (   0.0 sec)
# of grid points (after weights+screening)   ...   2972 (   0.0 sec)
Grid point division into batches done        ...    0.0 sec
Reduced shell lists constructed in    0.0 sec

Total number of grid points                  ...     2972
Total number of batches                      ...       47
Average number of points per batch           ...       63
Average number of grid points per atom       ...     2972
Average number of shells per batch           ...     4.00 (36.36%)
Average number of basis functions per batch  ...    13.33 (43.01%)
Average number of large shells per batch     ...     2.67 (66.67%)
Average number of large basis fcns per batch ...     6.67 (50.00%)
Maximum spatial batch extension              ...  20.27, 31.13, 31.13 au
Average spatial batch extension              ...   0.86,  1.32,  1.32 au

Time for grid setup =    0.051 sec

------------------------------
INITIAL GUESS: MODEL POTENTIAL
------------------------------
Loading Hartree-Fock densities                     ... done
Calculating cut-offs                               ... done
Setting up the integral package                    ... done
Initializing the effective Hamiltonian             ... done
Starting the Coulomb interaction                   ... done (   0.0 sec)
Reading the grid                                   ... done
Mapping shells                                     ... done
Starting the XC term evaluation                    ... done (   0.0 sec)
Transforming the Hamiltonian                       ... done (   0.0 sec)
Diagonalizing the Hamiltonian                      ... done (   0.0 sec)
Back transforming the eigenvectors                 ... done (   0.0 sec)
Now organizing SCF variables                       ... done
                      ------------------
                      INITIAL GUESS DONE (   0.2 sec)
                      ------------------
--------------
SCF ITERATIONS
--------------
ITER       Energy         Delta-E        Max-DP      RMS-DP      [F,P]     Damp
               ***  Starting incremental Fock matrix formation  ***
  0   -759.6218207337   0.000000000000 0.03719314  0.00121596  0.0530144 0.7000
  1   -759.6231204262  -0.001299692579 0.04508479  0.00146849  0.0375310 0.7000
                               ***Turning on DIIS***
  2   -759.6242742324  -0.001153806193 0.14397783  0.00468181  0.0263934 0.0000
  3   -759.6292524678  -0.004978235376 0.05254684  0.00170067  0.0062947 0.0000
  4   -759.6367350393  -0.007482571524 0.04094972  0.00130579  0.0038317 0.0000
  5   -759.6367452888  -0.000010249503 0.02694731  0.00084191  0.0022997 0.0000
  6   -759.6352080631   0.001537225739 0.01595879  0.00048686  0.0012856 0.0000
  7   -759.6342423033   0.000965759777 0.01652409  0.00049169  0.0006779 0.0000
  8   -759.6316539110   0.002588392345 0.00308389  0.00011751  0.0002386 0.0000
  9   -759.6289151615   0.002738749481 0.00087356  0.00005183  0.0000897 0.0000
 10   -759.6284410980   0.000474063528 0.00068517  0.00003491  0.0000364 0.0000
 11   -759.6284840124  -0.000042914394 0.00041951  0.00002009  0.0000246 0.0000
 12   -759.6285886676  -0.000104655252 0.00038088  0.00001804  0.0000218 0.0000
 13   -759.6285233763   0.000065291306 0.00075426  0.00003535  0.0000207 0.0000
 14   -759.6284026613   0.000120714978 0.00122672  0.00005699  0.0000144 0.0000
 15   -759.6286461174  -0.000243456066 0.00024780  0.00001201  0.0000027 0.0000
 16   -759.6286605090  -0.000014391606 0.00025966  0.00001221  0.0000031 0.0000
                            ***DIIS convergence achieved***

               *****************************************************
               *                     SUCCESS                       *
               *           SCF CONVERGED AFTER  17 CYCLES          *
               *****************************************************


----------------
TOTAL SCF ENERGY
----------------

Total Energy       :         -759.62863066 Eh          -20670.54591 eV

Components:
Nuclear Repulsion  :            0.00000000 Eh               0.00000 eV
Electronic Energy  :         -759.62863066 Eh          -20670.54591 eV
One Electron Energy:        -1039.95212126 Eh          -28298.53589 eV
Two Electron Energy:          280.32349060 Eh            7627.98998 eV

Virial components:
Potential Energy   :        -1519.09203009 Eh          -41336.59565 eV
Kinetic Energy     :          759.46339944 Eh           20666.04974 eV
Virial Ratio       :            2.00021756


---------------
SCF CONVERGENCE
---------------

  Last Energy change         ...    2.9852e-05  Tolerance :   1.0000e-08
  Last MAX-Density change    ...    6.3902e-05  Tolerance :   1.0000e-07
  Last RMS-Density change    ...    3.0683e-06  Tolerance :   5.0000e-09
  Last DIIS Error            ...    6.0493e-07  Tolerance :   5.0000e-07

             **** THE GBW FILE WAS UPDATED (21_Sc.gbw) ****
             **** DENSITY FILE WAS UPDATED (21_Sc.scfp) ****
             **** ENERGY FILE WAS UPDATED (21_Sc.en.tmp) ****
----------------------
UHF SPIN CONTAMINATION
----------------------

Expectation value of <S**2>     :     0.758803
Ideal value S*(S+1) for S=0.5   :     0.750000
Deviation                       :     0.008803

             **** THE GBW FILE WAS UPDATED (21_Sc.gbw) ****
             **** DENSITY FILE WAS UPDATED (21_Sc.scfp) ****
----------------
ORBITAL ENERGIES
----------------
                 SPIN UP ORBITALS
  NO   OCC          E(Eh)            E(eV) 
   0   1.0000    -165.890468     -4514.1091 
   1   1.0000     -19.084406      -519.3131 
   2   1.0000     -15.678665      -426.6382 
   3   1.0000     -15.675733      -426.5584 
   4   1.0000     -15.675733      -426.5584 
   5   1.0000      -2.593755       -70.5797 
   6   1.0000      -1.620927       -44.1077 
   7   1.0000      -1.620927       -44.1077 
   8   1.0000      -1.584559       -43.1181 
   9   1.0000      -0.349173        -9.5015 
  10   1.0000      -0.215276        -5.8580 
  11   0.0000       0.090610         2.4656 
  12   0.0000       0.097077         2.6416 
  13   0.0000       0.097077         2.6416 
  14   0.0000       0.097738         2.6596 
  15   0.0000       0.139203         3.7879 
  16   0.0000       0.146617         3.9897 
  17   0.0000       0.146617         3.9897 
  18   0.0000       0.168678         4.5900 
  19   0.0000       0.550679        14.9847 
  20   0.0000       0.637134        17.3373 
  21   0.0000       0.642929        17.4950 
  22   0.0000       0.642929        17.4950 
  23   0.0000       0.660878        17.9834 
  24   0.0000       1.102600        30.0033 
  25   0.0000       1.102600        30.0033 
  26   0.0000       1.105878        30.0925 
  27   0.0000       1.118698        30.4413 
  28   0.0000       1.122958        30.5572 
  29   0.0000       1.122958        30.5572 
  30   0.0000       1.127462        30.6798 

                 SPIN DOWN ORBITALS
  NO   OCC          E(Eh)            E(eV) 
   0   1.0000    -165.890274     -4514.1038 
   1   1.0000     -19.071403      -518.9592 
   2   1.0000     -15.676040      -426.5667 
   3   1.0000     -15.657420      -426.0601 
   4   1.0000     -15.657420      -426.0601 
   5   1.0000      -2.538939       -69.0880 
   6   1.0000      -1.575965       -42.8842 
   7   1.0000      -1.522085       -41.4180 
   8   1.0000      -1.522085       -41.4180 
   9   1.0000      -0.203866        -5.5475 
  10   0.0000       0.094795         2.5795 
  11   0.0000       0.095449         2.5973 
  12   0.0000       0.114091         3.1046 
  13   0.0000       0.114091         3.1046 
  14   0.0000       0.159416         4.3379 
  15   0.0000       0.163413         4.4467 
  16   0.0000       0.163413         4.4467 
  17   0.0000       0.179243         4.8775 
  18   0.0000       0.199471         5.4279 
  19   0.0000       0.650660        17.7053 
  20   0.0000       0.655330        17.8324 
  21   0.0000       0.655330        17.8324 
  22   0.0000       0.669947        18.2302 
  23   0.0000       0.688983        18.7482 
  24   0.0000       1.126033        30.6409 
  25   0.0000       1.127533        30.6817 
  26   0.0000       1.127533        30.6817 
  27   0.0000       1.130514        30.7629 
  28   0.0000       1.140960        31.0471 
  29   0.0000       1.152466        31.3602 
  30   0.0000       1.152466        31.3602 

                    ********************************
                    * MULLIKEN POPULATION ANALYSIS *
                    ********************************

--------------------------------------------
MULLIKEN ATOMIC CHARGES AND SPIN POPULATIONS
--------------------------------------------
   0 Sc:    0.000000    1.000000
Sum of atomic charges         :    0.0000000
Sum of atomic spin populations:    1.0000000

-----------------------------------------------------
MULLIKEN REDUCED ORBITAL CHARGES AND SPIN POPULATIONS
-----------------------------------------------------
CHARGE
  0 Scs       :     7.995471  s :     7.995471
      pz      :     3.999968  p :    11.999400
      px      :     3.999716
      py      :     3.999716
      dz2     :     0.004529  d :     1.004529
      dxz     :     0.000000
      dyz     :     0.000000
      dx2y2   :     0.000000
      dxy     :     1.000000
      f0      :     0.000032  f :     0.000600
      f+1     :     0.000034
      f-1     :     0.000034
      f+2     :     0.000000
      f-2     :     0.000000
      f+3     :     0.000250
      f-3     :     0.000250

SPIN
  0 Scs       :     0.003969  s :     0.003969
      pz      :     0.000027  p :    -0.000408
      px      :    -0.000218
      py      :    -0.000218
      dz2     :    -0.003969  d :     0.996031
      dxz     :     0.000000
      dyz     :     0.000000
      dx2y2   :     0.000000
      dxy     :     1.000000
      f0      :    -0.000027  f :     0.000408
      f+1     :    -0.000019
      f-1     :    -0.000019
      f+2     :     0.000000
      f-2     :     0.000000
      f+3     :     0.000237
      f-3     :     0.000237


                     *******************************
                     * LOEWDIN POPULATION ANALYSIS *
                     *******************************

-------------------------------------------
LOEWDIN ATOMIC CHARGES AND SPIN POPULATIONS
-------------------------------------------
   0 Sc:    0.000000    1.000000

----------------------------------------------------
LOEWDIN REDUCED ORBITAL CHARGES AND SPIN POPULATIONS
----------------------------------------------------
CHARGE
  0 Scs       :     7.995471  s :     7.995471
      pz      :     3.999968  p :    11.999400
      px      :     3.999716
      py      :     3.999716
      dz2     :     0.004529  d :     1.004529
      dxz     :     0.000000
      dyz     :     0.000000
      dx2y2   :     0.000000
      dxy     :     1.000000
      f0      :     0.000032  f :     0.000600
      f+1     :     0.000034
      f-1     :     0.000034
      f+2     :     0.000000
      f-2     :     0.000000
      f+3     :     0.000250
      f-3     :     0.000250

SPIN
  0 Scs       :     0.003969  s :     0.003969
      pz      :     0.000027  p :    -0.000408
      px      :    -0.000218
      py      :    -0.000218
      dz2     :    -0.003969  d :     0.996031
      dxz     :     0.000000
      dyz     :     0.000000
      dx2y2   :     0.000000
      dxy     :     1.000000
      f0      :    -0.000027  f :     0.000408
      f+1     :    -0.000019
      f-1     :    -0.000019
      f+2     :     0.000000
      f-2     :     0.000000
      f+3     :     0.000237
      f-3     :     0.000237


                      *****************************
                      * MAYER POPULATION ANALYSIS *
                      *****************************

  NA   - Mulliken gross atomic population
  ZA   - Total nuclear charge
  QA   - Mulliken gross atomic charge
  VA   - Mayer's total valence
  BVA  - Mayer's bonded valence
  FA   - Mayer's free valence

  ATOM       NA         ZA         QA         VA         BVA        FA
  0 Sc    21.0000    21.0000     0.0000     1.0176     0.0000     1.0176

  Mayer bond orders larger than 0.100000


-------
TIMINGS
-------

Total SCF time: 0 days 0 hours 0 min 4 sec 

Total time                  ....       4.026 sec
Sum of individual times     ....       3.290 sec  ( 81.7%)

Fock matrix formation       ....       2.614 sec  ( 64.9%)
Diagonalization             ....       0.064 sec  (  1.6%)
Density matrix formation    ....       0.002 sec  (  0.0%)
Population analysis         ....       0.250 sec  (  6.2%)
Initial guess               ....       0.128 sec  (  3.2%)
Orbital Transformation      ....       0.000 sec  (  0.0%)
Orbital Orthonormalization  ....       0.000 sec  (  0.0%)
DIIS solution               ....       0.181 sec  (  4.5%)


           ************************************************************
           *        Program running with 24 parallel MPI-processes    *
           *              working on a common directory               *
           ************************************************************


------------------------------------------------------------------------------- 
                              ORCA-MATRIX DRIVEN CI                            
------------------------------------------------------------------------------- 

--------------------------------
AUTOMATIC CHOICE OF INCORE LEVEL
--------------------------------

Memory available                           ...   2500.00 MB
Memory needed for S+T                      ...      0.19 MB
Memory needed for J+K                      ...      0.39 MB
Memory needed for DIIS                     ...      2.69 MB
Memory needed for 3-ext                    ...      0.37 MB
Memory needed for 4-ext                    ...      0.64 MB
Memory needed for triples                  ...      0.31 MB
 -> Final InCoreLevel    ... 5
 -> check shows that triples correction can be computed


Wavefunction type
-----------------
Correlation treatment                      ...      CCSD     
Single excitations                         ... ON
Orbital optimization                       ... OFF
Calculation of Z vector                    ... OFF
Calculation of Brueckner orbitals          ... OFF
Perturbative triple excitations            ... ON
Calculation of F12 correction              ... OFF
Frozen core treatment                      ... chemical core (10 el)
Reference Wavefunction                     ... UHF
  Alpha-MOs occ    :     5 ...   10 (  6 MO's/  6 electrons)
  Beta-MOs occ     :     5 ...    9 (  5 MO's/  5 electrons)
  Alpha-MOs virt   :    11 ...   30 ( 20 MO's              )
  Beta-MOs virt    :    10 ...   30 ( 21 MO's              )
Number of AO's                             ...     31
Number of electrons                        ...     21
Number of correlated electrons             ...     11

Algorithmic settings
--------------------
Integral transformation                    ... AO direct full transformation
K(C) Formation                             ... FULL-MO TRAFO
Maximum number of iterations               ...        50
Convergence tolerance (max. residuum)      ... 1.000e-05
Level shift for amplitude update           ... 2.000e-01
Maximum number of DIIS vectors             ...         7
DIIS turned on at iteration                ...         0
Damping before turning on DIIS             ...     0.500
Damping after turning on DIIS              ...     0.000
Pair specific amplitude update             ... OFF
Natural orbital iterations                 ... OFF
Perturbative natural orbital generation    ... OFF
Printlevel                                 ... 2

Memory handling:
----------------
Maximum memory for working arrays          ...   2500 MB
Data storage in matrix containers          ... UNCOMPRESSED
Data type for integral storage             ... DOUBLE
In-Core Storage of quantities:
   Amplitudes+Sigma Vector      ... YES
   J+K operators                ... YES
   DIIS vectors                 ... YES
   3-external integrals         ... YES
   4-external integrals         ... YES


Initializing the integral package          ... done
Warning: reference  - re-canonicalizations have been set to INT 1 VIRT 1

--------------------------
UNRESTRICTED FOCK OPERATOR
--------------------------

<ss|ss>:          120 b            0 skpd (  0.0%)    0.000 s ( 0.001 ms/b)
<ss|sp>:          225 b            0 skpd (  0.0%)    0.000 s ( 0.001 ms/b)
<ss|sd>:          150 b            0 skpd (  0.0%)    0.001 s ( 0.003 ms/b)
<ss|sf>:           75 b            0 skpd (  0.0%)    0.000 s ( 0.001 ms/b)
<ss|pp>:           90 b            0 skpd (  0.0%)    0.000 s ( 0.003 ms/b)
<ss|pd>:           90 b            0 skpd (  0.0%)    0.000 s ( 0.003 ms/b)
<ss|pf>:           45 b            0 skpd (  0.0%)    0.000 s ( 0.002 ms/b)
<ss|dd>:           45 b            0 skpd (  0.0%)    0.000 s ( 0.009 ms/b)
<ss|df>:           30 b            0 skpd (  0.0%)    0.000 s ( 0.005 ms/b)
<ss|ff>:           15 b            0 skpd (  0.0%)    0.000 s ( 0.007 ms/b)
<sp|sp>:          120 b            0 skpd (  0.0%)    0.000 s ( 0.002 ms/b)
<sp|sd>:          150 b            0 skpd (  0.0%)    0.001 s ( 0.005 ms/b)
<sp|sf>:           75 b            0 skpd (  0.0%)    0.000 s ( 0.002 ms/b)
<sp|pp>:           90 b            0 skpd (  0.0%)    0.001 s ( 0.006 ms/b)
<sp|pd>:           90 b            0 skpd (  0.0%)    0.001 s ( 0.006 ms/b)
<sp|pf>:           45 b            0 skpd (  0.0%)    0.000 s ( 0.006 ms/b)
<sp|dd>:           45 b            0 skpd (  0.0%)    0.001 s ( 0.021 ms/b)
<sp|df>:           30 b            0 skpd (  0.0%)    0.000 s ( 0.012 ms/b)
<sp|ff>:           15 b            0 skpd (  0.0%)    0.000 s ( 0.017 ms/b)
<sd|sd>:           55 b            0 skpd (  0.0%)    0.000 s ( 0.007 ms/b)
<sd|sf>:           50 b            0 skpd (  0.0%)    0.000 s ( 0.004 ms/b)
<sd|pp>:           60 b            0 skpd (  0.0%)    0.001 s ( 0.010 ms/b)
<sd|pd>:           60 b            0 skpd (  0.0%)    0.001 s ( 0.012 ms/b)
<sd|pf>:           30 b            0 skpd (  0.0%)    0.000 s ( 0.011 ms/b)
<sd|dd>:           30 b            0 skpd (  0.0%)    0.001 s ( 0.042 ms/b)
<sd|df>:           20 b            0 skpd (  0.0%)    0.001 s ( 0.026 ms/b)
<sd|ff>:           10 b            0 skpd (  0.0%)    0.000 s ( 0.037 ms/b)
<sf|sf>:           15 b            0 skpd (  0.0%)    0.000 s ( 0.004 ms/b)
<sf|pp>:           30 b            0 skpd (  0.0%)    0.000 s ( 0.010 ms/b)
<sf|pd>:           30 b            0 skpd (  0.0%)    0.000 s ( 0.010 ms/b)
<sf|pf>:           15 b            0 skpd (  0.0%)    0.000 s ( 0.011 ms/b)
<sf|dd>:           15 b            0 skpd (  0.0%)    0.001 s ( 0.040 ms/b)
<sf|df>:           10 b            0 skpd (  0.0%)    0.000 s ( 0.028 ms/b)
<sf|ff>:            5 b            0 skpd (  0.0%)    0.000 s ( 0.045 ms/b)
<pp|pp>:           21 b            0 skpd (  0.0%)    0.001 s ( 0.025 ms/b)
<pp|pd>:           36 b            0 skpd (  0.0%)    0.001 s ( 0.016 ms/b)
<pp|pf>:           18 b            0 skpd (  0.0%)    0.000 s ( 0.016 ms/b)
<pp|dd>:           18 b            0 skpd (  0.0%)    0.001 s ( 0.061 ms/b)
<pp|df>:           12 b            0 skpd (  0.0%)    0.000 s ( 0.037 ms/b)
<pp|ff>:            6 b            0 skpd (  0.0%)    0.000 s ( 0.053 ms/b)
<pd|pd>:           21 b            0 skpd (  0.0%)    0.001 s ( 0.039 ms/b)
<pd|pf>:           18 b            0 skpd (  0.0%)    0.000 s ( 0.027 ms/b)
<pd|dd>:           18 b            0 skpd (  0.0%)    0.002 s ( 0.110 ms/b)
<pd|df>:           12 b            0 skpd (  0.0%)    0.001 s ( 0.072 ms/b)
<pd|ff>:            6 b            0 skpd (  0.0%)    0.001 s ( 0.104 ms/b)
<pf|pf>:            6 b            0 skpd (  0.0%)    0.000 s ( 0.024 ms/b)
<pf|dd>:            9 b            0 skpd (  0.0%)    0.001 s ( 0.089 ms/b)
<pf|df>:            6 b            0 skpd (  0.0%)    0.000 s ( 0.072 ms/b)
<pf|ff>:            3 b            0 skpd (  0.0%)    0.000 s ( 0.118 ms/b)
<dd|dd>:            6 b            0 skpd (  0.0%)    0.002 s ( 0.303 ms/b)
<dd|df>:            6 b            0 skpd (  0.0%)    0.001 s ( 0.137 ms/b)
<dd|ff>:            3 b            0 skpd (  0.0%)    0.001 s ( 0.197 ms/b)
<df|df>:            3 b            0 skpd (  0.0%)    0.000 s ( 0.106 ms/b)
<df|ff>:            2 b            0 skpd (  0.0%)    0.000 s ( 0.220 ms/b)
<ff|ff>:            1 b            0 skpd (  0.0%)    0.000 s ( 0.302 ms/b)
Recanonicalizing the internal orbitals
Recanonicalizing the virtual orbitals
Time needed for Fock operator              ...            0.164 sec
Reference energy                           ...   -759.628616015
Warning: for UHF the TrafoType has to be JK
Warning: for UHF the K(C)-option cannot be MO but must be AOX

-------------------------------
PARTIAL EXCHANGE TRANSFORMATION
-------------------------------

Transformation type                        ... two-operators
Generation of integrals (i,mue|j,nue)      ... ON
Generation of integrals (mue,kappa|nue,tau)... ON
Generation of integrals (i,mue|a,nue)      ... ON
Dimension of the basis                     ...   31
Number of internal alpha-MOs               ...    6 (   5-  10)
Number of internal beta-MOs                ...    5 (   5-   9)
Number of external alpha-MOs               ...   20 (  11-  30)
Number of external beta-MOs                ...   21 (  10-  30)
Pair cutoff                                ... 0.000e+00 Eh
Number of AO pairs in the trafo            ...  496
Total Number of distinct AO pairs          ...  496
Memory devoted for trafo                   ... 2500.0 MB 
Max. Number of MO pairs treated together   ... 340978      
Number Format for Storage                  ... Double (8 Byte)
Integral package used                      ... LIBINT

Starting integral evaluation:
    ... done with AO integral generation
Closing buffer AOK[aa] ( 0.00 GB; CompressionRatio= 0.00)
Closing buffer AOK[bb] ( 0.00 GB; CompressionRatio= 0.00)
Closing buffer AOK[ab] ( 0.00 GB; CompressionRatio= 0.00)
Closing buffer AOK[ba] ( 0.00 GB; CompressionRatio= 0.00)
Collecting buffer AOK 
Closing buffer IAAO1[aa] ( 0.00 GB; CompressionRatio= 0.00)
Closing buffer IAAO1[bb] ( 0.00 GB; CompressionRatio= 0.00)
Closing buffer IAAO1[ab] ( 0.00 GB; CompressionRatio= 0.00)
Closing buffer IAAO1[ba] ( 0.00 GB; CompressionRatio= 0.00)
Closing buffer IAAO2[aa] ( 0.00 GB; CompressionRatio= 0.00)
Closing buffer IAAO2[bb] ( 0.00 GB; CompressionRatio= 0.00)
Closing buffer IAAO2[ab] ( 0.00 GB; CompressionRatio= 0.00)
Closing buffer IAAO2[ba] ( 0.00 GB; CompressionRatio= 0.00)
Collecting buffer IAAO 
Closing buffer PRQS    ( 0.00 GB; CompressionRatio= 0.00)
Collecting buffer PRQS 
Number of alpha/alpha MO pairs in trafo    ...   21
Number of beta /beta  MO pairs in trafo    ...   15
Number of alpha/ beta MO pairs in trafo    ...   30
------------------------
SORTING OF (i,mue|j,nue)
------------------------

SORTING OF ALPHA/ALPHA PAIRS
IBATCH = 1 of  1
Closing buffer KAO[aa] ( 0.00 GB; CompressionRatio= 1.00)
Collecting buffer KAO 
SORTING OF BETA /BETA  PAIRS
IBATCH = 1 of  1
Closing buffer KAO[bb] ( 0.00 GB; CompressionRatio= 1.00)
Collecting buffer KAO 
SORTING OF ALPHA/BETA  PAIRS
IBATCH = 1 of  1
Closing buffer KAO[ab] ( 0.00 GB; CompressionRatio= 0.998441558442)
Collecting buffer KAO[ab] 
------------------------
SORTING OF (i,mue|a,nue)
------------------------

Number of alpha/alpha (i,a) pairs in trafo  ...  120
Number of beta /beta  (i,a) pairs in trafo  ...  105
Number of alpha/ beta (i,a) pairs in trafo  ...  126
Number of beta /alpha (i,a) pairs in trafo  ...  100
Setting up the alpha/alpha list             ... done
Setting up the beta /beta  list             ... done
Setting up the alpha/beta  list             ... done
Setting up the beta /alpha list             ... done
    ... Now sorting (i,mue|a,nue)integrals
    ... Integrals (i,b|a,c) will be made on the fly
SORTING OF ALPHA/ALPHA PAIRS
IBATCH = 1 of  1
Closing buffer IPAQ[aa]  0.00 GB; CompressionRatio= 1.00)
SORTING OF BETA /BETA  PAIRS
IBATCH = 1 of  1
Closing buffer IPAQ[bb]( 0.00 GB; CompressionRatio= 1.00)
SORTING OF ALPHA/BETA  PAIRS (NMatSort_ab=6)
IBATCH = 1 of  1
Closing buffer IPAQ[ab]( 0.00 GB; CompressionRatio= 1.00)
SORTING OF BETA/ALPHA  PAIRS
IBATCH = 1 of  1
Closing buffer IPAQ[ba]( 0.00 GB; CompressionRatio= 1.00)
N(AO-Batches) Done                         ...         0 
N(AO-Batches) Skipped                      ...         0 
N(IJ)-pairs Skipped                        ...         0 
TOTAL TIME for half transformation         ...     1.486 sec
AO-integral generation                     ...     0.000 sec
Half transformation                        ...     0.000 sec
K-integral sorting                         ...     0.666 sec
<ss|**>: 
------------------------------
PARTIAL COULOMB TRANSFORMATION
------------------------------

Transformation type                        ... two-operators
Dimension of the basis                     ...   31
Number of internal alpha-MOs               ...    6 (5-10)
Number of internal beta-MOs                ...    5 (5-9)
Pair cutoff                                ... 0.000e+00 Eh
Number of AO pairs included in the trafo   ...  496
Total Number of distinct AO pairs          ...  496
Memory devoted for trafo                   ... 2500.0 MB 
Max. Number of MO pairs treated together   ... 660645      
Max. Number of MOs treated per batch       ... 21311      
Number Format for Storage                  ... Double (8 Byte)
AO-integral source                         ... DIRECT
Integral package used                      ... LIBINT

Starting integral evaluation:
<sp|**>:          990 b        0 skpd     0.002 s (  0.002 ms/b)
<sd|**>:          990 b        0 skpd     0.009 s (  0.010 ms/b)
<sf|**>:          660 b        0 skpd     0.009 s (  0.013 ms/b)
<pp|**>:          330 b        0 skpd     0.008 s (  0.025 ms/b)
<pd|**>:          396 b        0 skpd     0.010 s (  0.025 ms/b)
<pf|**>:          396 b        0 skpd     0.019 s (  0.047 ms/b)
<dd|**>:          198 b        0 skpd     0.018 s (  0.089 ms/b)
<df|**>:          198 b        0 skpd     0.019 s (  0.097 ms/b)
         132 b        0 skpd     0.027 s (  0.208 ms/b)
<ff|**>:           66 b        0 skpd     0.017 s (  0.264 ms/b)
Closing buffer AOJ[aa] ( 0.00 GB; CompressionRatio= 0.93)
Closing buffer AOJ[bb] ( 0.00 GB; CompressionRatio= 0.00)
Collecting buffer AOJ 
    ... done with AO integral generation
Number of Alpha-MO pairs included          ...   21
Number of Beta-MO pairs included           ...   15
    ... Now sorting integrals
SORTING ALPHA/ALPHA PAIRS
IBATCH = 1 of  1
Closing buffer JAO[aa] ( 0.00 GB; CompressionRatio= 1.00)
SORTING BETA/BETA PAIRS
IBATCH = 1 of  1
Closing buffer JAO[bb] ( 0.00 GB; CompressionRatio= 1.00)
Collecting buffer JAO 
TOTAL TIME for half transformation         ...     0.359 sec
AO-integral generation                     ...     0.112 sec
Half transformation                        ...     0.026 sec
J-integral sorting                         ...     0.075 sec

-------------------------- SECOND HALF TRANSFORMATION -------------------------
Formation of (ij|kl),(ij|ka), (ij|ab)      ... ok (     0.446 sec)
Formation of (ik|jl),(ik|ja), (ia|jb)      ... ok (     1.234 sec)


-----------------------
SPIN UNRESTRICTED GUESS
-----------------------

Entering MDCI_UHF_Guess, Tailored=0
Spin-components of the MP2 energy:
EMP2(aa)=     -0.021846105
EMP2(bb)=     -0.023260983
EMP2(ab)=     -0.115178335

Initial guess performed in     0.002 sec
E(0)                                       ...   -759.628616015
E(MP2)                                     ...     -0.160285424
Initial E(tot)                             ...   -759.788901439
<T|T>                                      ...      0.068618994
Number of pairs included                   ... 55

------------------------------------------------
                  UHF COUPLED CLUSTER ITERATIONS
------------------------------------------------

Number of amplitudes to be optimized       ...        17912

Iter       E(tot)           E(Corr)          Delta-E          Residual     Time      <S|S>**1/2
  0   -759.788901439     -0.160285424     -0.000000000      0.019190178    0.08      0.000008255
                           *** Turning on DIIS ***
  1   -759.803099408     -0.174483393     -0.014197969      0.009916008    0.04      0.022270745
  2   -759.808968222     -0.180352208     -0.005868815      0.004627085    0.04      0.040796624
  3   -759.810734436     -0.182118421     -0.001766214      0.001834997    0.05      0.053841004
  4   -759.811367095     -0.182751080     -0.000632659      0.001327890    0.04      0.059901700
  5   -759.811515487     -0.182899472     -0.000148392      0.000979342    0.04      0.061738935
  6   -759.811532508     -0.182916493     -0.000017021      0.000557663    0.04      0.062234322
  7   -759.811531706     -0.182915691      0.000000802      0.000221941    0.04      0.062306183
  8   -759.811532849     -0.182916834     -0.000001143      0.000111782    0.04      0.062349137
  9   -759.811535932     -0.182919917     -0.000003083      0.000054647    0.04      0.062439125
 10   -759.811538594     -0.182922579     -0.000002662      0.000026428    0.04      0.062539114
 11   -759.811538850     -0.182922836     -0.000000257      0.000009820    0.06      0.062594524
               --- The Coupled-Cluster iterations have converged ---

----------------------
COUPLED CLUSTER ENERGY
----------------------

E(0)                                       ...   -759.628616015
E(CORR)                                    ...     -0.182922836
E(TOT)                                     ...   -759.811538850
Singles norm <S|S>**1/2                    ...      0.062594524 ( 0.034047189, 0.028547334)  
T1 diagnostic                              ...      0.018872959                              

------------------
LARGEST AMPLITUDES
------------------
  10a-> 14a   9b-> 11b       0.141795
  10a-> 12a   9b-> 12b       0.124761
  10a-> 13a   9b-> 13b       0.124761
   9b-> 10b  -1b-> -1b       0.060527
   9a-> 13a   9b-> 13b       0.052789
   9a-> 12a   9b-> 12b       0.052789
  10a-> 11a  -1a-> -1a       0.041912
   9a-> 19a  -1a-> -1a       0.040426
   9a-> 15a   9b-> 18b       0.033303
  10a-> 11a   9b-> 10b       0.030715
   9a-> 16a   9b-> 15b       0.030621
   9a-> 17a   9b-> 16b       0.030621
   8a-> 15a   6b-> 14b       0.028624
  10a-> 15a   9b-> 14b       0.024969
   8a-> 15a   6b-> 19b       0.023513
  10a-> 16a   9b-> 15b       0.023508

----------------------
UHF TRIPLES CORRECTION (Algorithm 1)
----------------------

Multiplier for the singles contribution    ...      1.000000000

SPIN-CASE Alpha-Alpha-Alpha:
10% done
20% done
30% done
40% done
50% done
60% done
70% done
80% done
90% done


SPIN-CASE Beta-Beta-Beta:
10% done
20% done
30% done
40% done
50% done
60% done
70% done
80% done
90% done


SPIN-CASE Alpha-Alpha-Beta:
10% done
20% done
30% done
40% done
50% done
60% done
70% done
80% done
90% done


SPIN-CASE Beta-Beta-Alpha:
10% done
20% done
30% done
40% done
50% done
60% done
70% done
80% done
90% done


Triples Correction (T)                     ...     -0.003934791
    alpha-alpha-alpha ... -0.000077691 (  2.0%)
    alpha-alpha-beta  ... -0.002073586 ( 52.7%)
    alpha-beta -beta  ... -0.001725662 ( 43.9%)
    beta -beta -beta  ... -0.000057852 (  1.5%)
Scaling of triples based on CCSD energies (Peterson et al. Molecular Physics 113, 1551 (2015))
E(T*) = f*E(T) where f = E(F12-CCSD)/E(CCSD) 
f = CCSD (with F12)/ CCSD (without F12)    ...      1.000000000
Scaled triples correction (T)              ...     -0.003934791

Final correlation energy                   ...     -0.186857626
E(CCSD)                                    ...   -759.811538850
E(CCSD(T))                                 ...   -759.815473641



        !!!!!!!!!!!!!!!!!!!!!!!!!!!!!!!!!!!!!!!!!!!!!!!!!!!!!!!!!!!!!!!!!!!!!!!!!! 
        !  Warning: Densities are linearized densities                           !
        !!!!!!!!!!!!!!!!!!!!!!!!!!!!!!!!!!!!!!!!!!!!!!!!!!!!!!!!!!!!!!!!!!!!!!!!!! 

NORM  =      1.121227089 sqrt=     1.058880111
W(HF) =      0.891879986
------------------------------------------------------------------------------
                           ORCA POPULATION ANALYSIS
------------------------------------------------------------------------------
Input electron density              ... 21_Sc.mdcip
Input spin density                  ... 21_Sc.mdcir
BaseName (.gbw .S,...)              ... 21_Sc

                    ********************************
                    * MULLIKEN POPULATION ANALYSIS *
                    ********************************

------------------------------------------
MULLIKEN ATOMIC CHARGES AND SPIN DENSITIES
------------------------------------------
   0 Sc:   -0.000000    1.000000
Sum of atomic charges       :   -0.0000000
Sum of atomic spin densities:    1.0000000

---------------------------------------------------
MULLIKEN REDUCED ORBITAL CHARGES AND SPIN DENSITIES
---------------------------------------------------
CHARGE
  0 Scs       :     7.868115  s :     7.868115
      pz      :     4.015406  p :    12.045774
      px      :     4.015184
      py      :     4.015184
      dz2     :     0.023672  d :     1.079218
      dxz     :     0.021086
      dyz     :     0.021086
      dx2y2   :     0.017690
      dxy     :     0.995684
      f0      :     0.000372  f :     0.006894
      f+1     :     0.000461
      f-1     :     0.000461
      f+2     :     0.000259
      f-2     :     0.001458
      f+3     :     0.001942
      f-3     :     0.001942

SPIN
  0 Scs       :     0.013109  s :     0.013109
      pz      :    -0.000540  p :     0.005687
      px      :     0.003114
      py      :     0.003114
      dz2     :    -0.001051  d :     0.976792
      dxz     :     0.000224
      dyz     :     0.000224
      dx2y2   :    -0.000674
      dxy     :     0.978068
      f0      :    -0.000032  f :     0.004411
      f+1     :     0.000081
      f-1     :     0.000081
      f+2     :    -0.000012
      f-2     :     0.001056
      f+3     :     0.001619
      f-3     :     0.001619


                     *******************************
                     * LOEWDIN POPULATION ANALYSIS *
                     *******************************

-----------------------------------------
LOEWDIN ATOMIC CHARGES AND SPIN DENSITIES
-----------------------------------------
   0 Sc:    0.000000    1.000000

--------------------------------------------------
LOEWDIN REDUCED ORBITAL CHARGES AND SPIN DENSITIES
--------------------------------------------------
CHARGE
  0 Scs       :     7.868115  s :     7.868115
      pz      :     4.015406  p :    12.045774
      px      :     4.015184
      py      :     4.015184
      dz2     :     0.023672  d :     1.079218
      dxz     :     0.021086
      dyz     :     0.021086
      dx2y2   :     0.017690
      dxy     :     0.995684
      f0      :     0.000372  f :     0.006894
      f+1     :     0.000461
      f-1     :     0.000461
      f+2     :     0.000259
      f-2     :     0.001458
      f+3     :     0.001942
      f-3     :     0.001942

SPIN
  0 Scs       :     0.013109  s :     0.013109
      pz      :    -0.000540  p :     0.005687
      px      :     0.003114
      py      :     0.003114
      dz2     :    -0.001051  d :     0.976792
      dxz     :     0.000224
      dyz     :     0.000224
      dx2y2   :    -0.000674
      dxy     :     0.978068
      f0      :    -0.000032  f :     0.004411
      f+1     :     0.000081
      f-1     :     0.000081
      f+2     :    -0.000012
      f-2     :     0.001056
      f+3     :     0.001619
      f-3     :     0.001619


                      *****************************
                      * MAYER POPULATION ANALYSIS *
                      *****************************

  NA   - Mulliken gross atomic population
  ZA   - Total nuclear charge
  QA   - Mulliken gross atomic charge
  VA   - Mayer's total valence
  BVA  - Mayer's bonded valence
  FA   - Mayer's free valence

  ATOM       NA         ZA         QA         VA         BVA        FA
  0 Sc    21.0000    21.0000    -0.0000     1.8380     0.0000     1.8380





------------------------------------------------------------------------------- 
                                     TIMINGS                                   
------------------------------------------------------------------------------- 


Total execution time                   ...        4.892 sec

Fock Matrix Formation                  ...        0.164 sec (  3.4%)
Initial Guess                          ...        0.002 sec (  0.0%)
DIIS Solver                            ...        0.032 sec (  0.6%)
State Vector Update                    ...        0.003 sec (  0.1%)
Sigma-vector construction              ...        0.509 sec ( 10.4%)
  <D|H|D>(2-ext)                       ...        0.005 sec (  0.9% of sigma)
  <D|H|D>(4-ext)                       ...        0.136 sec ( 26.7% of sigma)
  <S|H|0>                              ...        0.005 sec (  1.0% of sigma)
  <D|H|S>(1-ext)                       ...        0.004 sec (  0.7% of sigma)
  Fock-dressing                        ...        0.250 sec ( 49.2% of sigma)
  (ik|jl)-dressing                     ...        0.001 sec (  0.2% of sigma)
  (ij|ab),(ia|jb)-dressing             ...        0.074 sec ( 14.6% of sigma)
  Pair energies                        ...        0.001 sec (  0.2% of sigma)
Total Time for computing (T)           ...        0.008 sec (  0.2% of ALL)
  I/O of integral and amplitudes       ...        0.001 sec ( 19.0% of (T))
  N**6 triples energy contributions    ...        0.002 sec ( 27.6% of (T))


-------------------------   --------------------
FINAL SINGLE POINT ENERGY      -759.815473641030
-------------------------   --------------------


                            ***************************************
                            *     ORCA property calculations      *
                            ***************************************

                                    ---------------------
                                    Active property flags
                                    ---------------------
   (+) Dipole Moment


------------------------------------------------------------------------------
                       ORCA ELECTRIC PROPERTIES CALCULATION
------------------------------------------------------------------------------

Dipole Moment Calculation                       ... on
Quadrupole Moment Calculation                   ... off
Polarizability Calculation                      ... off
GBWName                                         ... 21_Sc.gbw
Electron density file                           ... 21_Sc.scfp
The origin for moment calculation is the CENTER OF MASS  = ( 0.000000,  0.000000  0.000000)

-------------
DIPOLE MOMENT
-------------
                                X             Y             Z
Electronic contribution:      0.00000      -0.00000       0.00000
Nuclear contribution   :      0.00000       0.00000       0.00000
                        -----------------------------------------
Total Dipole Moment    :      0.00000      -0.00000       0.00000
                        -----------------------------------------
Magnitude (a.u.)       :      0.00000
Magnitude (Debye)      :      0.00000



--------------------
Rotational spectrum 
--------------------
 
Rotational constants in cm-1:     0.000000     0.000000     0.000000 
Rotational constants in MHz :     0.000000     0.000000     0.000000 

 Dipole components along the rotational axes: 
x,y,z [a.u.] :     0.000000    -0.000000     0.000000 
x,y,z [Debye]:     0.000000    -0.000000     0.000000 

 

                           *** MDCI DENSITY ***

------------------------------------------------------------------------------
                       ORCA ELECTRIC PROPERTIES CALCULATION
------------------------------------------------------------------------------

Dipole Moment Calculation                       ... on
Quadrupole Moment Calculation                   ... off
Polarizability Calculation                      ... off
GBWName                                         ... 21_Sc.gbw
Electron density file                           ... 21_Sc.mdcip
The origin for moment calculation is the CENTER OF MASS  = ( 0.000000,  0.000000  0.000000)

-------------
DIPOLE MOMENT
-------------
                                X             Y             Z
Electronic contribution:     -0.00000       0.00000      -0.00000
Nuclear contribution   :      0.00000       0.00000       0.00000
                        -----------------------------------------
Total Dipole Moment    :     -0.00000       0.00000      -0.00000
                        -----------------------------------------
Magnitude (a.u.)       :      0.00000
Magnitude (Debye)      :      0.00000



--------------------
Rotational spectrum 
--------------------
 
Rotational constants in cm-1:     0.000000     0.000000     0.000000 
Rotational constants in MHz :     0.000000     0.000000     0.000000 

 Dipole components along the rotational axes: 
x,y,z [a.u.] :    -0.000000     0.000000    -0.000000 
x,y,z [Debye]:    -0.000000     0.000000    -0.000000 

 

Timings for individual modules:

Sum of individual times         ...       10.740 sec (=   0.179 min)
GTO integral calculation        ...        0.963 sec (=   0.016 min)   9.0 %
SCF iterations                  ...        4.401 sec (=   0.073 min)  41.0 %
MDCI module                     ...        5.376 sec (=   0.090 min)  50.1 %
                             ****ORCA TERMINATED NORMALLY****
TOTAL RUN TIME: 0 days 0 hours 0 minutes 11 seconds 701 msec
