
                                 *****************
                                 * O   R   C   A *
                                 *****************

           --- An Ab Initio, DFT and Semiempirical electronic structure package ---

                  #######################################################
                  #                        -***-                        #
                  #          Department of theory and spectroscopy      #
                  #               Directorship: Frank Neese             #
                  #        Max Planck Institute fuer Kohlenforschung    #
                  #                Kaiser Wilhelm Platz 1               #
                  #                 D-45470 Muelheim/Ruhr               #
                  #                      Germany                        #
                  #                                                     #
                  #                  All rights reserved                #
                  #                        -***-                        #
                  #######################################################


                         Program Version 4.2.0 -  RELEASE  -


 With contributions from (in alphabetic order):
   Daniel Aravena         : Magnetic Suceptibility
   Michael Atanasov       : Ab Initio Ligand Field Theory (pilot matlab implementation)
   Alexander A. Auer      : GIAO ZORA, VPT2
   Ute Becker             : Parallelization
   Giovanni Bistoni       : ED, misc. LED, open-shell LED, HFLED
   Martin Brehm           : Molecular dynamics
   Dmytro Bykov           : SCF Hessian
   Vijay G. Chilkuri      : MRCI spin determinant printing, contributions to CSF-ICE
   Dipayan Datta          : RHF DLPNO-CCSD density
   Achintya Kumar Dutta   : EOM-CC, STEOM-CC
   Dmitry Ganyushin       : Spin-Orbit,Spin-Spin,Magnetic field MRCI
   Miquel Garcia          : C-PCM Hessian, Gaussian charge scheme
   Yang Guo               : DLPNO-NEVPT2, CIM, IAO-localization
   Andreas Hansen         : Spin unrestricted coupled pair/coupled cluster methods
   Benjamin Helmich-Paris : CASSCF linear response (MC-RPA)
   Lee Huntington         : MR-EOM, pCC
   Robert Izsak           : Overlap fitted RIJCOSX, COSX-SCS-MP3, EOM
   Christian Kollmar      : KDIIS, OOCD, Brueckner-CCSD(T), CCSD density
   Simone Kossmann        : Meta GGA functionals, TD-DFT gradient, OOMP2, MP2 Hessian
   Martin Krupicka        : AUTO-CI
   Lucas Lang             : DCDCAS
   Dagmar Lenk            : GEPOL surface, SMD
   Dimitrios Liakos       : Extrapolation schemes; Compound Job, initial MDCI parallelization
   Dimitrios Manganas     : Further ROCIS development; embedding schemes
   Dimitrios Pantazis     : SARC Basis sets
   Taras Petrenko         : DFT Hessian,TD-DFT gradient, ASA, ECA, R-Raman, ABS, FL, XAS/XES, NRVS
   Peter Pinski           : DLPNO-MP2, DLPNO-MP2 Gradient
   Christoph Reimann      : Effective Core Potentials
   Marius Retegan         : Local ZFS, SOC
   Christoph Riplinger    : Optimizer, TS searches, QM/MM, DLPNO-CCSD(T), (RO)-DLPNO pert. Triples
   Tobias Risthaus        : Range-separated hybrids, TD-DFT gradient, RPA, STAB
   Michael Roemelt        : Original ROCIS implementation
   Masaaki Saitow         : Open-shell DLPNO-CCSD energy and density
   Barbara Sandhoefer     : DKH picture change effects
   Avijit Sen             : IP-ROCIS
   Kantharuban Sivalingam : CASSCF convergence, NEVPT2, FIC-MRCI
   Bernardo de Souza      : ESD, SOC TD-DFT
   Georgi Stoychev        : AutoAux, RI-MP2 NMR
   Willem Van den Heuvel  : Paramagnetic NMR
   Boris Wezisla          : Elementary symmetry handling
   Frank Wennmohs         : Technical directorship


 We gratefully acknowledge several colleagues who have allowed us to
 interface, adapt or use parts of their codes:
   Stefan Grimme, W. Hujo, H. Kruse,             : VdW corrections, initial TS optimization,
                  C. Bannwarth                     DFT functionals, gCP, sTDA/sTD-DF
   Ed Valeev, F. Pavosevic, A. Kumar             : LibInt (2-el integral package), F12 methods
   Garnet Chan, S. Sharma, J. Yang, R. Olivares  : DMRG
   Ulf Ekstrom                                   : XCFun DFT Library
   Mihaly Kallay                                 : mrcc  (arbitrary order and MRCC methods)
   Andreas Klamt, Michael Diedenhofen            : otool_cosmo (COSMO solvation model)
   Jiri Pittner, Ondrej Demel                    : Mk-CCSD
   Frank Weinhold                                : gennbo (NPA and NBO analysis)
   Christopher J. Cramer and Donald G. Truhlar   : smd solvation model
   Lars Goerigk                                  : TD-DFT with DH, B97 family of functionals
   V. Asgeirsson, H. Jonsson                     : NEB implementation
   FAccTs GmbH                                   : IRC, NEB, NEB-TS, Multilevel, MM, QM/MM, CI optimization
   S Lehtola, MJT Oliveira, MAL Marques          : LibXC Library


 Your calculation uses the libint2 library for the computation of 2-el integrals
 For citations please refer to: http://libint.valeyev.net

 Your ORCA version has been built with support for libXC version: 4.2.3
 For citations please refer to: https://tddft.org/programs/libxc/

 This ORCA versions uses:
   CBLAS   interface :  Fast vector & matrix operations
   LAPACKE interface :  Fast linear algebra routines
   SCALAPACK package :  Parallel linear algebra routines


----- Orbital basis set information -----
Your calculation utilizes the basis: def2-SVP
   F. Weigend and R. Ahlrichs, Phys. Chem. Chem. Phys. 7, 3297 (2005).

================================================================================
                                        WARNINGS
                       Please study these warnings very carefully!
================================================================================


WARNING: your system is open-shell and RHF/RKS was chosen
  ===> : WILL SWITCH to UHF/UKS


WARNING: MDCI localization with Augmented Hessian Foster-Boys
  ===> : Switching off randomization!

WARNING: Post HF methods need fully converged wavefunctions
  ===> : Setting SCFConvForced true
         You can overwrite this default with %scf ConvForced false 


INFO   : the flag for use of LIBINT has been found!

================================================================================
                                       INPUT FILE
================================================================================
NAME = 24_Cr.in
|  1> #
|  2> # 24_Cr CCSD(T)/Def2-SVP
|  3> #
|  4> ! CCSD(T) Def2-SVP tightscf
|  5> 
|  6> *xyz 0 7
|  7>  Cr 0.0 0.0 0.0
|  8> *
|  9> 
| 10> %maxcore 5000 
| 11> 
| 12> %pal
| 13> nprocs 24
| 14> end
| 15> 
| 16> 
| 17>                          ****END OF INPUT****
================================================================================

                       ****************************
                       * Single Point Calculation *
                       ****************************

---------------------------------
CARTESIAN COORDINATES (ANGSTROEM)
---------------------------------
  Cr     0.000000    0.000000    0.000000

----------------------------
CARTESIAN COORDINATES (A.U.)
----------------------------
  NO LB      ZA    FRAG     MASS         X           Y           Z
   0 Cr   24.0000    0    52.000    0.000000    0.000000    0.000000

--------------------------------
INTERNAL COORDINATES (ANGSTROEM)
--------------------------------
 Cr     0   0   0     0.000000000000     0.00000000     0.00000000

---------------------------
INTERNAL COORDINATES (A.U.)
---------------------------
 Cr     0   0   0     0.000000000000     0.00000000     0.00000000

---------------------
BASIS SET INFORMATION
---------------------
There are 1 groups of distinct atoms

 Group   1 Type Cr  : 14s9p5d1f contracted to 5s3p2d1f pattern {63311/531/41/1}

Atom   0Cr   basis set group =>   1


           ************************************************************
           *        Program running with 24 parallel MPI-processes    *
           *              working on a common directory               *
           ************************************************************
------------------------------------------------------------------------------
                           ORCA GTO INTEGRAL CALCULATION
------------------------------------------------------------------------------

                         BASIS SET STATISTICS AND STARTUP INFO

 # of primitive gaussian shells          ...   29
 # of primitive gaussian functions       ...   73
 # of contracted shells                  ...   11
 # of contracted basis functions         ...   31
 Highest angular momentum                ...    3
 Maximum contraction depth               ...    6
 Integral package used                   ... LIBINT
 Integral threshhold            Thresh   ...  2.500e-11
 Primitive cut-off              TCut     ...  2.500e-12


------------------------------ INTEGRAL EVALUATION ----------------------------


 * One electron integrals 
 Pre-screening matrix                    ... done
 Shell pair data                         ... done (   0.000 sec)



           ************************************************************
           *        Program running with 24 parallel MPI-processes    *
           *              working on a common directory               *
           ************************************************************
-------------------------------------------------------------------------------
                                 ORCA SCF
-------------------------------------------------------------------------------

------------
SCF SETTINGS
------------
Hamiltonian:
 Ab initio Hamiltonian  Method          .... Hartree-Fock(GTOs)


General Settings:
 Integral files         IntName         .... 24_Cr
 Hartree-Fock type      HFTyp           .... UHF
 Total Charge           Charge          ....    0
 Multiplicity           Mult            ....    7
 Number of Electrons    NEL             ....   24
 Basis Dimension        Dim             ....   31
 Nuclear Repulsion      ENuc            ....      0.0000000000 Eh

Convergence Acceleration:
 DIIS                   CNVDIIS         .... on
   Start iteration      DIISMaxIt       ....    12
   Startup error        DIISStart       ....  0.200000
   # of expansion vecs  DIISMaxEq       ....     5
   Bias factor          DIISBfac        ....   1.050
   Max. coefficient     DIISMaxC        ....  10.000
 Newton-Raphson         CNVNR           .... off
 SOSCF                  CNVSOSCF        .... off
 Level Shifting         CNVShift        .... on
   Level shift para.    LevelShift      ....    0.2500
   Turn off err/grad.   ShiftErr        ....    0.0010
 Zerner damping         CNVZerner       .... off
 Static damping         CNVDamp         .... on
   Fraction old density DampFac         ....    0.7000
   Max. Damping (<1)    DampMax         ....    0.9800
   Min. Damping (>=0)   DampMin         ....    0.0000
   Turn off err/grad.   DampErr         ....    0.1000
 Fernandez-Rico         CNVRico         .... off

SCF Procedure:
 Maximum # iterations   MaxIter         ....   125
 SCF integral mode      SCFMode         .... Direct
   Integral package                     .... LIBINT
 Reset frequency        DirectResetFreq ....    20
 Integral Threshold     Thresh          ....  2.500e-11 Eh
 Primitive CutOff       TCut            ....  2.500e-12 Eh

Convergence Tolerance:
 Convergence Check Mode ConvCheckMode   .... Total+1el-Energy
 Convergence forced     ConvForced      .... 1
 Energy Change          TolE            ....  1.000e-08 Eh
 1-El. energy change                    ....  1.000e-05 Eh
 DIIS Error             TolErr          ....  5.000e-07


Diagonalization of the overlap matrix:
Smallest eigenvalue                        ... 1.216e-01
Time for diagonalization                   ...    0.001 sec
Threshold for overlap eigenvalues          ... 1.000e-08
Number of eigenvalues below threshold      ... 0
Time for construction of square roots      ...    0.010 sec
Total time needed                          ...    0.011 sec

-------------------
DFT GRID GENERATION
-------------------

General Integration Accuracy     IntAcc      ...  4.340
Radial Grid Type                 RadialGrid  ... Gauss-Chebyshev
Angular Grid (max. acc.)         AngularGrid ... Lebedev-110
Angular grid pruning method      GridPruning ... 3 (G Style)
Weight generation scheme         WeightScheme... Becke
Basis function cutoff            BFCut       ...    1.0000e-11
Integration weight cutoff        WCut        ...    1.0000e-14
Grids for H and He will be reduced by one unit

# of grid points (after initial pruning)     ...   2972 (   0.0 sec)
# of grid points (after weights+screening)   ...   2972 (   0.0 sec)
Grid point division into batches done        ...    0.0 sec
Reduced shell lists constructed in    0.0 sec

Total number of grid points                  ...     2972
Total number of batches                      ...       47
Average number of points per batch           ...       63
Average number of grid points per atom       ...     2972
Average number of shells per batch           ...     2.67 (24.24%)
Average number of basis functions per batch  ...     6.67 (21.51%)
Average number of large shells per batch     ...     2.67 (100.00%)
Average number of large basis fcns per batch ...     6.67 (100.00%)
Maximum spatial batch extension              ...  18.71, 28.73, 28.73 au
Average spatial batch extension              ...   0.80,  1.22,  1.22 au

Time for grid setup =    0.174 sec

------------------------------
INITIAL GUESS: MODEL POTENTIAL
------------------------------
Loading Hartree-Fock densities                     ... done
Calculating cut-offs                               ... done
Setting up the integral package                    ... done
Initializing the effective Hamiltonian             ... done
Starting the Coulomb interaction                   ... done (   0.0 sec)
Reading the grid                                   ... done
Mapping shells                                     ... done
Starting the XC term evaluation                    ... done (   0.0 sec)
Transforming the Hamiltonian                       ... done (   0.0 sec)
Diagonalizing the Hamiltonian                      ... done (   0.0 sec)
Back transforming the eigenvectors                 ... done (   0.0 sec)
Now organizing SCF variables                       ... done
                      ------------------
                      INITIAL GUESS DONE (   0.3 sec)
                      ------------------
--------------
SCF ITERATIONS
--------------
ITER       Energy         Delta-E        Max-DP      RMS-DP      [F,P]     Damp
               ***  Starting incremental Fock matrix formation  ***
  0  -1043.1885912292   0.000000000000 0.06067755  0.00169389  0.0604514 0.7000
  1  -1043.1907401845  -0.002148955280 0.06909096  0.00187531  0.0415916 0.7000
                               ***Turning on DIIS***
  2  -1043.1923075390  -0.001567354563 0.20890073  0.00559573  0.0273894 0.0000
  3  -1043.1509253718   0.041382167247 0.05485847  0.00149152  0.0060788 0.0000
  4  -1043.1929930818  -0.042067709978 0.04733046  0.00127800  0.0037240 0.0000
  5  -1043.2085298036  -0.015536721806 0.04760676  0.00129676  0.0026139 0.0000
  6  -1043.2072211568   0.001308646778 0.02579092  0.00070787  0.0014432 0.0000
  7  -1043.2049992685   0.002221888338 0.02431365  0.00067179  0.0007622 0.0000
  8  -1043.1977231341   0.007276134406 0.00324659  0.00009029  0.0000914 0.0000
  9  -1043.1973386903   0.000384443727 0.00018506  0.00000521  0.0000097 0.0000
 10  -1043.1970699089   0.000268781456 0.00004057  0.00000113  0.0000012 0.0000
                            ***DIIS convergence achieved***

               *****************************************************
               *                     SUCCESS                       *
               *           SCF CONVERGED AFTER  11 CYCLES          *
               *****************************************************


----------------
TOTAL SCF ENERGY
----------------

Total Energy       :        -1043.19707322 Eh          -28386.83552 eV

Components:
Nuclear Repulsion  :            0.00000000 Eh               0.00000 eV
Electronic Energy  :        -1043.19707322 Eh          -28386.83552 eV
One Electron Energy:        -1439.59775701 Eh          -39173.44651 eV
Two Electron Energy:          396.40068379 Eh           10786.61099 eV

Virial components:
Potential Energy   :        -2086.18195621 Eh          -56767.89705 eV
Kinetic Energy     :         1042.98488299 Eh           28381.06153 eV
Virial Ratio       :            2.00020345


---------------
SCF CONVERGENCE
---------------

  Last Energy change         ...   -3.3112e-06  Tolerance :   1.0000e-08
  Last MAX-Density change    ...    1.8983e-06  Tolerance :   1.0000e-07
  Last RMS-Density change    ...    5.3636e-08  Tolerance :   5.0000e-09
  Last DIIS Error            ...    8.2748e-08  Tolerance :   5.0000e-07

             **** THE GBW FILE WAS UPDATED (24_Cr.gbw) ****
             **** DENSITY FILE WAS UPDATED (24_Cr.scfp) ****
             **** ENERGY FILE WAS UPDATED (24_Cr.en.tmp) ****
----------------------
UHF SPIN CONTAMINATION
----------------------

Expectation value of <S**2>     :    12.000015
Ideal value S*(S+1) for S=3.0   :    12.000000
Deviation                       :     0.000015

             **** THE GBW FILE WAS UPDATED (24_Cr.gbw) ****
             **** DENSITY FILE WAS UPDATED (24_Cr.scfp) ****
----------------
ORBITAL ENERGIES
----------------
                 SPIN UP ORBITALS
  NO   OCC          E(Eh)            E(eV) 
   0   1.0000    -220.367848     -5996.5140 
   1   1.0000     -26.248704      -714.2635 
   2   1.0000     -22.184400      -603.6682 
   3   1.0000     -22.184400      -603.6682 
   4   1.0000     -22.184400      -603.6682 
   5   1.0000      -3.450592       -93.8954 
   6   1.0000      -2.254535       -61.3490 
   7   1.0000      -2.254535       -61.3490 
   8   1.0000      -2.254535       -61.3490 
   9   1.0000      -0.366885        -9.9835 
  10   1.0000      -0.366885        -9.9835 
  11   1.0000      -0.366885        -9.9835 
  12   1.0000      -0.366885        -9.9835 
  13   1.0000      -0.366885        -9.9835 
  14   1.0000      -0.217235        -5.9113 
  15   0.0000       0.120559         3.2806 
  16   0.0000       0.158234         4.3058 
  17   0.0000       0.158234         4.3058 
  18   0.0000       0.158234         4.3058 
  19   0.0000       0.770120        20.9560 
  20   0.0000       0.770120        20.9560 
  21   0.0000       0.770120        20.9560 
  22   0.0000       0.770120        20.9560 
  23   0.0000       0.770120        20.9560 
  24   0.0000       3.338672        90.8499 
  25   0.0000       3.338672        90.8499 
  26   0.0000       3.338672        90.8499 
  27   0.0000       3.338672        90.8499 
  28   0.0000       3.338672        90.8499 
  29   0.0000       3.338672        90.8499 
  30   0.0000       3.338672        90.8499 

                 SPIN DOWN ORBITALS
  NO   OCC          E(Eh)            E(eV) 
   0   1.0000    -220.364801     -5996.4311 
   1   1.0000     -26.146254      -711.4757 
   2   1.0000     -22.084850      -600.9593 
   3   1.0000     -22.084850      -600.9593 
   4   1.0000     -22.084850      -600.9593 
   5   1.0000      -3.101320       -84.3912 
   6   1.0000      -1.831284       -49.8318 
   7   1.0000      -1.831284       -49.8318 
   8   1.0000      -1.831284       -49.8318 
   9   0.0000       0.026055         0.7090 
  10   0.0000       0.207175         5.6375 
  11   0.0000       0.267071         7.2674 
  12   0.0000       0.267071         7.2674 
  13   0.0000       0.267071         7.2674 
  14   0.0000       0.392592        10.6830 
  15   0.0000       0.392592        10.6830 
  16   0.0000       0.392592        10.6830 
  17   0.0000       0.392592        10.6830 
  18   0.0000       0.392592        10.6830 
  19   0.0000       1.018412        27.7124 
  20   0.0000       1.018412        27.7124 
  21   0.0000       1.018412        27.7124 
  22   0.0000       1.018412        27.7124 
  23   0.0000       1.018412        27.7124 
  24   0.0000       3.575311        97.2892 
  25   0.0000       3.575311        97.2892 
  26   0.0000       3.575311        97.2892 
  27   0.0000       3.575311        97.2892 
  28   0.0000       3.575311        97.2892 
  29   0.0000       3.575311        97.2892 
  30   0.0000       3.575311        97.2892 

                    ********************************
                    * MULLIKEN POPULATION ANALYSIS *
                    ********************************

--------------------------------------------
MULLIKEN ATOMIC CHARGES AND SPIN POPULATIONS
--------------------------------------------
   0 Cr:   -0.000000    6.000000
Sum of atomic charges         :   -0.0000000
Sum of atomic spin populations:    6.0000000

-----------------------------------------------------
MULLIKEN REDUCED ORBITAL CHARGES AND SPIN POPULATIONS
-----------------------------------------------------
CHARGE
  0 Crs       :     7.000000  s :     7.000000
      pz      :     4.000000  p :    12.000000
      px      :     4.000000
      py      :     4.000000
      dz2     :     1.000000  d :     5.000000
      dxz     :     1.000000
      dyz     :     1.000000
      dx2y2   :     1.000000
      dxy     :     1.000000
      f0      :     0.000000  f :     0.000000
      f+1     :     0.000000
      f-1     :     0.000000
      f+2     :     0.000000
      f-2     :     0.000000
      f+3     :     0.000000
      f-3     :     0.000000

SPIN
  0 Crs       :     1.000000  s :     1.000000
      pz      :     0.000000  p :     0.000000
      px      :     0.000000
      py      :     0.000000
      dz2     :     1.000000  d :     5.000000
      dxz     :     1.000000
      dyz     :     1.000000
      dx2y2   :     1.000000
      dxy     :     1.000000
      f0      :     0.000000  f :     0.000000
      f+1     :     0.000000
      f-1     :     0.000000
      f+2     :     0.000000
      f-2     :     0.000000
      f+3     :     0.000000
      f-3     :     0.000000


                     *******************************
                     * LOEWDIN POPULATION ANALYSIS *
                     *******************************

-------------------------------------------
LOEWDIN ATOMIC CHARGES AND SPIN POPULATIONS
-------------------------------------------
   0 Cr:    0.000000    6.000000

----------------------------------------------------
LOEWDIN REDUCED ORBITAL CHARGES AND SPIN POPULATIONS
----------------------------------------------------
CHARGE
  0 Crs       :     7.000000  s :     7.000000
      pz      :     4.000000  p :    12.000000
      px      :     4.000000
      py      :     4.000000
      dz2     :     1.000000  d :     5.000000
      dxz     :     1.000000
      dyz     :     1.000000
      dx2y2   :     1.000000
      dxy     :     1.000000
      f0      :     0.000000  f :     0.000000
      f+1     :     0.000000
      f-1     :     0.000000
      f+2     :     0.000000
      f-2     :     0.000000
      f+3     :     0.000000
      f-3     :     0.000000

SPIN
  0 Crs       :     1.000000  s :     1.000000
      pz      :     0.000000  p :     0.000000
      px      :     0.000000
      py      :     0.000000
      dz2     :     1.000000  d :     5.000000
      dxz     :     1.000000
      dyz     :     1.000000
      dx2y2   :     1.000000
      dxy     :     1.000000
      f0      :     0.000000  f :     0.000000
      f+1     :     0.000000
      f-1     :     0.000000
      f+2     :     0.000000
      f-2     :     0.000000
      f+3     :     0.000000
      f-3     :     0.000000


                      *****************************
                      * MAYER POPULATION ANALYSIS *
                      *****************************

  NA   - Mulliken gross atomic population
  ZA   - Total nuclear charge
  QA   - Mulliken gross atomic charge
  VA   - Mayer's total valence
  BVA  - Mayer's bonded valence
  FA   - Mayer's free valence

  ATOM       NA         ZA         QA         VA         BVA        FA
  0 Cr    24.0000    24.0000    -0.0000     6.0000     0.0000     6.0000

  Mayer bond orders larger than 0.100000


-------
TIMINGS
-------

Total SCF time: 0 days 0 hours 0 min 2 sec 

Total time                  ....       2.981 sec
Sum of individual times     ....       2.531 sec  ( 84.9%)

Fock matrix formation       ....       1.755 sec  ( 58.9%)
Diagonalization             ....       0.049 sec  (  1.6%)
Density matrix formation    ....       0.001 sec  (  0.0%)
Population analysis         ....       0.156 sec  (  5.2%)
Initial guess               ....       0.171 sec  (  5.7%)
Orbital Transformation      ....       0.000 sec  (  0.0%)
Orbital Orthonormalization  ....       0.000 sec  (  0.0%)
DIIS solution               ....       0.225 sec  (  7.5%)


           ************************************************************
           *        Program running with 24 parallel MPI-processes    *
           *              working on a common directory               *
           ************************************************************


------------------------------------------------------------------------------- 
                              ORCA-MATRIX DRIVEN CI                            
------------------------------------------------------------------------------- 

--------------------------------
AUTOMATIC CHOICE OF INCORE LEVEL
--------------------------------

Memory available                           ...   2500.00 MB
Memory needed for S+T                      ...      0.32 MB
Memory needed for J+K                      ...      0.66 MB
Memory needed for DIIS                     ...      4.51 MB
Memory needed for 3-ext                    ...      0.31 MB
Memory needed for 4-ext                    ...      0.27 MB
Memory needed for triples                  ...      0.16 MB
 -> Final InCoreLevel    ... 5
 -> check shows that triples correction can be computed


Wavefunction type
-----------------
Correlation treatment                      ...      CCSD     
Single excitations                         ... ON
Orbital optimization                       ... OFF
Calculation of Z vector                    ... OFF
Calculation of Brueckner orbitals          ... OFF
Perturbative triple excitations            ... ON
Calculation of F12 correction              ... OFF
Frozen core treatment                      ... chemical core (10 el)
Reference Wavefunction                     ... UHF
  Alpha-MOs occ    :     5 ...   14 ( 10 MO's/ 10 electrons)
  Beta-MOs occ     :     5 ...    8 (  4 MO's/  4 electrons)
  Alpha-MOs virt   :    15 ...   30 ( 16 MO's              )
  Beta-MOs virt    :     9 ...   30 ( 22 MO's              )
Number of AO's                             ...     31
Number of electrons                        ...     24
Number of correlated electrons             ...     14

Algorithmic settings
--------------------
Integral transformation                    ... AO direct full transformation
K(C) Formation                             ... FULL-MO TRAFO
Maximum number of iterations               ...        50
Convergence tolerance (max. residuum)      ... 1.000e-05
Level shift for amplitude update           ... 2.000e-01
Maximum number of DIIS vectors             ...         7
DIIS turned on at iteration                ...         0
Damping before turning on DIIS             ...     0.500
Damping after turning on DIIS              ...     0.000
Pair specific amplitude update             ... OFF
Natural orbital iterations                 ... OFF
Perturbative natural orbital generation    ... OFF
Printlevel                                 ... 2

Memory handling:
----------------
Maximum memory for working arrays          ...   2500 MB
Data storage in matrix containers          ... UNCOMPRESSED
Data type for integral storage             ... DOUBLE
In-Core Storage of quantities:
   Amplitudes+Sigma Vector      ... YES
   J+K operators                ... YES
   DIIS vectors                 ... YES
   3-external integrals         ... YES
   4-external integrals         ... YES


Initializing the integral package          ... done
Warning: reference  - re-canonicalizations have been set to INT 1 VIRT 1

--------------------------
UNRESTRICTED FOCK OPERATOR
--------------------------

<ss|ss>:          120 b            0 skpd (  0.0%)    0.000 s ( 0.001 ms/b)
<ss|sp>:          225 b            0 skpd (  0.0%)    0.000 s ( 0.001 ms/b)
<ss|sd>:          150 b            0 skpd (  0.0%)    0.000 s ( 0.002 ms/b)
<ss|sf>:           75 b            0 skpd (  0.0%)    0.000 s ( 0.003 ms/b)
<ss|pp>:           90 b            0 skpd (  0.0%)    0.000 s ( 0.003 ms/b)
<ss|pd>:           90 b            0 skpd (  0.0%)    0.000 s ( 0.004 ms/b)
<ss|pf>:           45 b            0 skpd (  0.0%)    0.000 s ( 0.003 ms/b)
<ss|dd>:           45 b            0 skpd (  0.0%)    0.000 s ( 0.010 ms/b)
<ss|df>:           30 b            0 skpd (  0.0%)    0.000 s ( 0.007 ms/b)
<ss|ff>:           15 b            0 skpd (  0.0%)    0.000 s ( 0.007 ms/b)
<sp|sp>:          120 b            0 skpd (  0.0%)    0.000 s ( 0.003 ms/b)
<sp|sd>:          150 b            0 skpd (  0.0%)    0.000 s ( 0.003 ms/b)
<sp|sf>:           75 b            0 skpd (  0.0%)    0.000 s ( 0.005 ms/b)
<sp|pp>:           90 b            0 skpd (  0.0%)    0.001 s ( 0.006 ms/b)
<sp|pd>:           90 b            0 skpd (  0.0%)    0.001 s ( 0.007 ms/b)
<sp|pf>:           45 b            0 skpd (  0.0%)    0.000 s ( 0.007 ms/b)
<sp|dd>:           45 b            0 skpd (  0.0%)    0.001 s ( 0.022 ms/b)
<sp|df>:           30 b           24 skpd ( 80.0%)    0.000 s ( 0.038 ms/b)
<sp|ff>:           15 b            8 skpd ( 53.3%)    0.000 s ( 0.023 ms/b)
<sd|sd>:           55 b            0 skpd (  0.0%)    0.000 s ( 0.005 ms/b)
<sd|sf>:           50 b            0 skpd (  0.0%)    0.000 s ( 0.010 ms/b)
<sd|pp>:           60 b            0 skpd (  0.0%)    0.001 s ( 0.010 ms/b)
<sd|pd>:           60 b            0 skpd (  0.0%)    0.001 s ( 0.014 ms/b)
<sd|pf>:           30 b           29 skpd ( 96.7%)    0.000 s ( 0.048 ms/b)
<sd|dd>:           30 b            0 skpd (  0.0%)    0.001 s ( 0.042 ms/b)
<sd|df>:           20 b            0 skpd (  0.0%)    0.001 s ( 0.033 ms/b)
<sd|ff>: done
<sf|sf>:           15 b            0 skpd (  0.0%)    0.000 s ( 0.006 ms/b)
<sf|pp>:           30 b            0 skpd (  0.0%)    0.000 s ( 0.009 ms/b)
<sf|pd>:           30 b           29 skpd ( 96.7%)    0.000 s ( 0.054 ms/b)
<sf|pf>: done
<sf|dd>:           15 b            0 skpd (  0.0%)    0.001 s ( 0.040 ms/b)
<sf|df>: done
<sf|ff>: done
<pp|pp>:           21 b            0 skpd (  0.0%)    0.001 s ( 0.025 ms/b)
<pp|pd>:           36 b            0 skpd (  0.0%)    0.001 s ( 0.021 ms/b)
<pp|pf>:           18 b            0 skpd (  0.0%)    0.000 s ( 0.019 ms/b)
<pp|dd>:           18 b            0 skpd (  0.0%)    0.001 s ( 0.061 ms/b)
<pp|df>:           12 b            0 skpd (  0.0%)    0.001 s ( 0.048 ms/b)
<pp|ff>:            6 b            0 skpd (  0.0%)    0.000 s ( 0.053 ms/b)
<pd|pd>:           21 b            0 skpd (  0.0%)    0.001 s ( 0.046 ms/b)
<pd|pf>:           18 b            0 skpd (  0.0%)    0.001 s ( 0.034 ms/b)
<pd|dd>:           18 b            0 skpd (  0.0%)    0.002 s ( 0.110 ms/b)
<pd|df>:           12 b            0 skpd (  0.0%)    0.001 s ( 0.090 ms/b)
<pd|ff>:            6 b            3 skpd ( 50.0%)    0.000 s ( 0.145 ms/b)
<pf|pf>:            6 b            0 skpd (  0.0%)    0.000 s ( 0.038 ms/b)
<pf|dd>:            9 b            0 skpd (  0.0%)    0.001 s ( 0.089 ms/b)
<pf|df>:            6 b            5 skpd ( 83.3%)    0.000 s ( 0.185 ms/b)
<pf|ff>:            3 b            2 skpd ( 66.7%)    0.000 s ( 0.133 ms/b)
<dd|dd>:            6 b            0 skpd (  0.0%)    0.002 s ( 0.302 ms/b)
<dd|df>:            6 b            0 skpd (  0.0%)    0.001 s ( 0.169 ms/b)
<dd|ff>:            3 b            0 skpd (  0.0%)    0.001 s ( 0.198 ms/b)
<df|df>:            3 b            0 skpd (  0.0%)    0.001 s ( 0.193 ms/b)
<df|ff>: done
<ff|ff>: done
Recanonicalizing the internal orbitals
Recanonicalizing the virtual orbitals
Time needed for Fock operator              ...            0.063 sec
Reference energy                           ...  -1043.197071969
Warning: for UHF the TrafoType has to be JK
Warning: for UHF the K(C)-option cannot be MO but must be AOX

-------------------------------
PARTIAL EXCHANGE TRANSFORMATION
-------------------------------

Transformation type                        ... two-operators
Generation of integrals (i,mue|j,nue)      ... ON
Generation of integrals (mue,kappa|nue,tau)... ON
Generation of integrals (i,mue|a,nue)      ... ON
Dimension of the basis                     ...   31
Number of internal alpha-MOs               ...   10 (   5-  14)
Number of internal beta-MOs                ...    4 (   5-   8)
Number of external alpha-MOs               ...   16 (  15-  30)
Number of external beta-MOs                ...   22 (   9-  30)
Pair cutoff                                ... 0.000e+00 Eh
Number of AO pairs in the trafo            ...  496
Total Number of distinct AO pairs          ...  496
Memory devoted for trafo                   ... 2500.0 MB 
Max. Number of MO pairs treated together   ... 340978      
Number Format for Storage                  ... Double (8 Byte)
Integral package used                      ... LIBINT

Starting integral evaluation:
    ... done with AO integral generation
Closing buffer AOK[aa] ( 0.00 GB; CompressionRatio= 0.00)
Closing buffer AOK[bb] ( 0.00 GB; CompressionRatio= 0.00)
Closing buffer AOK[ab] ( 0.00 GB; CompressionRatio= 0.00)
Closing buffer AOK[ba] ( 0.00 GB; CompressionRatio= 0.00)
Collecting buffer AOK 
Closing buffer IAAO1[aa] ( 0.00 GB; CompressionRatio= 0.00)
Closing buffer IAAO1[bb] ( 0.00 GB; CompressionRatio= 0.00)
Closing buffer IAAO1[ab] ( 0.00 GB; CompressionRatio= 0.00)
Closing buffer IAAO1[ba] ( 0.00 GB; CompressionRatio= 0.00)
Closing buffer IAAO2[aa] ( 0.00 GB; CompressionRatio= 0.00)
Closing buffer IAAO2[bb] ( 0.00 GB; CompressionRatio= 0.00)
Closing buffer IAAO2[ab] ( 0.00 GB; CompressionRatio= 0.00)
Closing buffer IAAO2[ba] ( 0.00 GB; CompressionRatio= 0.00)
Collecting buffer IAAO 
Closing buffer PRQS    ( 0.00 GB; CompressionRatio= 0.00)
Collecting buffer PRQS 
Number of alpha/alpha MO pairs in trafo    ...   55
Number of beta /beta  MO pairs in trafo    ...   10
Number of alpha/ beta MO pairs in trafo    ...   40
------------------------
SORTING OF (i,mue|j,nue)
------------------------

SORTING OF ALPHA/ALPHA PAIRS
IBATCH = 1 of  1
Closing buffer KAO[aa] ( 0.00 GB; CompressionRatio= 1.00)
Collecting buffer KAO 
SORTING OF BETA /BETA  PAIRS
IBATCH = 1 of  1
Closing buffer KAO[bb] ( 0.00 GB; CompressionRatio= 1.00)
Collecting buffer KAO 
SORTING OF ALPHA/BETA  PAIRS
IBATCH = 1 of  1
Closing buffer KAO[ab] ( 0.00 GB; CompressionRatio= 0.998441558442)
Collecting buffer KAO[ab] 
------------------------
SORTING OF (i,mue|a,nue)
------------------------

Number of alpha/alpha (i,a) pairs in trafo  ...  160
Number of beta /beta  (i,a) pairs in trafo  ...   88
Number of alpha/ beta (i,a) pairs in trafo  ...  220
Number of beta /alpha (i,a) pairs in trafo  ...   64
Setting up the alpha/alpha list             ... done
Setting up the beta /beta  list             ... done
Setting up the alpha/beta  list             ... done
Setting up the beta /alpha list             ... done
    ... Now sorting (i,mue|a,nue)integrals
    ... Integrals (i,b|a,c) will be made on the fly
SORTING OF ALPHA/ALPHA PAIRS
IBATCH = 1 of  1
Closing buffer IPAQ[aa]  0.00 GB; CompressionRatio= 1.00)
SORTING OF BETA /BETA  PAIRS
IBATCH = 1 of  1
Closing buffer IPAQ[bb]( 0.00 GB; CompressionRatio= 1.00)
SORTING OF ALPHA/BETA  PAIRS (NMatSort_ab=10)
IBATCH = 1 of  1
Closing buffer IPAQ[ab]( 0.00 GB; CompressionRatio= 1.00)
SORTING OF BETA/ALPHA  PAIRS
IBATCH = 1 of  1
Closing buffer IPAQ[ba]( 0.00 GB; CompressionRatio= 1.00)
N(AO-Batches) Done                         ...         0 
N(AO-Batches) Skipped                      ...         0 
N(IJ)-pairs Skipped                        ...         0 
TOTAL TIME for half transformation         ...     1.499 sec
AO-integral generation                     ...     0.000 sec
Half transformation                        ...     0.000 sec
K-integral sorting                         ...     0.638 sec
<ss|**>: 
------------------------------
PARTIAL COULOMB TRANSFORMATION
------------------------------

Transformation type                        ... two-operators
Dimension of the basis                     ...   31
Number of internal alpha-MOs               ...   10 (5-14)
Number of internal beta-MOs                ...    4 (5-8)
Pair cutoff                                ... 0.000e+00 Eh
Number of AO pairs included in the trafo   ...  496
Total Number of distinct AO pairs          ...  496
Memory devoted for trafo                   ... 2500.0 MB 
Max. Number of MO pairs treated together   ... 660645      
Max. Number of MOs treated per batch       ... 21311      
Number Format for Storage                  ... Double (8 Byte)
AO-integral source                         ... DIRECT
Integral package used                      ... LIBINT

Starting integral evaluation:
<sp|**>:          990 b        0 skpd     0.002 s (  0.002 ms/b)
<sd|**>:          990 b        0 skpd     0.007 s (  0.008 ms/b)
<sf|**>:          660 b        0 skpd     0.009 s (  0.014 ms/b)
<pp|**>:          330 b        0 skpd     0.007 s (  0.021 ms/b)
<pd|**>:          396 b        0 skpd     0.009 s (  0.023 ms/b)
<pf|**>:          396 b        0 skpd     0.018 s (  0.046 ms/b)
<dd|**>:          198 b        0 skpd     0.019 s (  0.098 ms/b)
<df|**>:          198 b        0 skpd     0.020 s (  0.103 ms/b)
<ff|**>:          132 b        0 skpd     0.028 s (  0.211 ms/b)
          66 b        0 skpd     0.018 s (  0.277 ms/b)
Closing buffer AOJ[aa] ( 0.00 GB; CompressionRatio= 0.97)
Closing buffer AOJ[bb] ( 0.00 GB; CompressionRatio= 0.00)
Collecting buffer AOJ 
    ... done with AO integral generation
Number of Alpha-MO pairs included          ...   55
Number of Beta-MO pairs included           ...   10
    ... Now sorting integrals
SORTING ALPHA/ALPHA PAIRS
IBATCH = 1 of  1
Closing buffer JAO[aa] ( 0.00 GB; CompressionRatio= 1.00)
SORTING BETA/BETA PAIRS
IBATCH = 1 of  1
Closing buffer JAO[bb] ( 0.00 GB; CompressionRatio= 1.00)
Collecting buffer JAO 
TOTAL TIME for half transformation         ...     0.363 sec
AO-integral generation                     ...     0.113 sec
Half transformation                        ...     0.026 sec
J-integral sorting                         ...     0.088 sec

-------------------------- SECOND HALF TRANSFORMATION -------------------------
Formation of (ij|kl),(ij|ka), (ij|ab)      ... ok (     0.141 sec)
Formation of (ik|jl),(ik|ja), (ia|jb)      ... ok (     0.184 sec)


-----------------------
SPIN UNRESTRICTED GUESS
-----------------------

Entering MDCI_UHF_Guess, Tailored=0
Spin-components of the MP2 energy:
EMP2(aa)=     -0.067710818
EMP2(bb)=     -0.022658578
EMP2(ab)=     -0.108119630

Initial guess performed in     0.003 sec
E(0)                                       ...  -1043.197071969
E(MP2)                                     ...     -0.198489025
Initial E(tot)                             ...  -1043.395560994
<T|T>                                      ...      0.044001171
Number of pairs included                   ... 91

------------------------------------------------
                  UHF COUPLED CLUSTER ITERATIONS
------------------------------------------------

Number of amplitudes to be optimized       ...        21416

Iter       E(tot)           E(Corr)          Delta-E          Residual     Time      <S|S>**1/2
  0  -1043.395560994     -0.198489025      0.000000000      0.021221303    0.07      0.000000020
                           *** Turning on DIIS ***
  1  -1043.401016996     -0.203945027     -0.005456002      0.003791172    0.05      0.029431993
  2  -1043.404039323     -0.206967354     -0.003022327      0.002296094    0.05      0.035027709
  3  -1043.404430513     -0.207358544     -0.000391190      0.001458887    0.05      0.038447174
  4  -1043.404535771     -0.207463802     -0.000105258      0.000713567    0.05      0.040085727
  5  -1043.404567436     -0.207495467     -0.000031665      0.000212198    0.05      0.041084235
  6  -1043.404574254     -0.207502285     -0.000006818      0.000034675    0.05      0.041424687
  7  -1043.404576169     -0.207504200     -0.000001915      0.000001403    0.05      0.041491473
               --- The Coupled-Cluster iterations have converged ---

----------------------
COUPLED CLUSTER ENERGY
----------------------

E(0)                                       ...  -1043.197071969
E(CORR)                                    ...     -0.207504200
E(TOT)                                     ...  -1043.404576169
Singles norm <S|S>**1/2                    ...      0.041491473 ( 0.038843140, 0.002648333)  
T1 diagnostic                              ...      0.011089063                              

------------------
LARGEST AMPLITUDES
------------------
  13a-> 19a   9a-> 23a       0.038670
  13a-> 23a   9a-> 19a       0.038670
  11a-> 20a  10a-> 21a       0.037842
  11a-> 21a  10a-> 20a       0.037842
  12a-> 19a   9a-> 22a       0.036399
  12a-> 22a   9a-> 19a       0.036399
  13a-> 20a  10a-> 23a       0.035668
  13a-> 23a  10a-> 20a       0.035668
  12a-> 21a  11a-> 22a       0.035410
  12a-> 22a  11a-> 21a       0.035410
  10a-> 19a   9a-> 20a       0.034525
  10a-> 20a   9a-> 19a       0.034525
  12a-> 22a  10a-> 20a       0.033470
  12a-> 20a  10a-> 22a       0.033470
  13a-> 23a  12a-> 22a       0.033302
  13a-> 22a  12a-> 23a       0.033302

----------------------
UHF TRIPLES CORRECTION (Algorithm 1)
----------------------

Multiplier for the singles contribution    ...      1.000000000

SPIN-CASE Alpha-Alpha-Alpha:
10% done
20% done
30% done
40% done
50% done
60% done
70% done
80% done
90% done


SPIN-CASE Beta-Beta-Beta:
10% done
20% done
30% done
40% done
50% done
60% done
70% done
80% done
90% done


SPIN-CASE Alpha-Alpha-Beta:
10% done
20% done
30% done
40% done
50% done
60% done
70% done
80% done
90% done


SPIN-CASE Beta-Beta-Alpha:
10% done
20% done
30% done
40% done
50% done
60% done
70% done
80% done
90% done


Triples Correction (T)                     ...     -0.004789362
    alpha-alpha-alpha ... -0.001742351 ( 36.4%)
    alpha-alpha-beta  ... -0.002281898 ( 47.6%)
    alpha-beta -beta  ... -0.000689813 ( 14.4%)
    beta -beta -beta  ... -0.000075300 (  1.6%)
Scaling of triples based on CCSD energies (Peterson et al. Molecular Physics 113, 1551 (2015))
E(T*) = f*E(T) where f = E(F12-CCSD)/E(CCSD) 
f = CCSD (with F12)/ CCSD (without F12)    ...      1.000000000
Scaled triples correction (T)              ...     -0.004789362

Final correlation energy                   ...     -0.212293562
E(CCSD)                                    ...  -1043.404576169
E(CCSD(T))                                 ...  -1043.409365531



        !!!!!!!!!!!!!!!!!!!!!!!!!!!!!!!!!!!!!!!!!!!!!!!!!!!!!!!!!!!!!!!!!!!!!!!!!! 
        !  Warning: Densities are linearized densities                           !
        !!!!!!!!!!!!!!!!!!!!!!!!!!!!!!!!!!!!!!!!!!!!!!!!!!!!!!!!!!!!!!!!!!!!!!!!!! 

NORM  =      1.051666086 sqrt=     1.025507721
W(HF) =      0.950872157
------------------------------------------------------------------------------
                           ORCA POPULATION ANALYSIS
------------------------------------------------------------------------------
Input electron density              ... 24_Cr.mdcip
Input spin density                  ... 24_Cr.mdcir
BaseName (.gbw .S,...)              ... 24_Cr

                    ********************************
                    * MULLIKEN POPULATION ANALYSIS *
                    ********************************

------------------------------------------
MULLIKEN ATOMIC CHARGES AND SPIN DENSITIES
------------------------------------------
   0 Cr:   -0.000000    6.000000
Sum of atomic charges       :   -0.0000000
Sum of atomic spin densities:    6.0000000

---------------------------------------------------
MULLIKEN REDUCED ORBITAL CHARGES AND SPIN DENSITIES
---------------------------------------------------
CHARGE
  0 Crs       :     6.994978  s :     6.994978
      pz      :     3.990578  p :    11.971735
      px      :     3.990578
      py      :     3.990578
      dz2     :     1.002672  d :     5.013360
      dxz     :     1.002672
      dyz     :     1.002672
      dx2y2   :     1.002672
      dxy     :     1.002672
      f0      :     0.002847  f :     0.019928
      f+1     :     0.002847
      f-1     :     0.002847
      f+2     :     0.002847
      f-2     :     0.002847
      f+3     :     0.002847
      f-3     :     0.002847

SPIN
  0 Crs       :     0.998217  s :     0.998217
      pz      :     0.008739  p :     0.026218
      px      :     0.008739
      py      :     0.008739
      dz2     :     0.991786  d :     4.958931
      dxz     :     0.991786
      dyz     :     0.991786
      dx2y2   :     0.991786
      dxy     :     0.991786
      f0      :     0.002376  f :     0.016635
      f+1     :     0.002376
      f-1     :     0.002376
      f+2     :     0.002376
      f-2     :     0.002376
      f+3     :     0.002376
      f-3     :     0.002376


                     *******************************
                     * LOEWDIN POPULATION ANALYSIS *
                     *******************************

-----------------------------------------
LOEWDIN ATOMIC CHARGES AND SPIN DENSITIES
-----------------------------------------
   0 Cr:    0.000000    6.000000

--------------------------------------------------
LOEWDIN REDUCED ORBITAL CHARGES AND SPIN DENSITIES
--------------------------------------------------
CHARGE
  0 Crs       :     6.994978  s :     6.994978
      pz      :     3.990578  p :    11.971735
      px      :     3.990578
      py      :     3.990578
      dz2     :     1.002672  d :     5.013360
      dxz     :     1.002672
      dyz     :     1.002672
      dx2y2   :     1.002672
      dxy     :     1.002672
      f0      :     0.002847  f :     0.019928
      f+1     :     0.002847
      f-1     :     0.002847
      f+2     :     0.002847
      f-2     :     0.002847
      f+3     :     0.002847
      f-3     :     0.002847

SPIN
  0 Crs       :     0.998217  s :     0.998217
      pz      :     0.008739  p :     0.026218
      px      :     0.008739
      py      :     0.008739
      dz2     :     0.991786  d :     4.958931
      dxz     :     0.991786
      dyz     :     0.991786
      dx2y2   :     0.991786
      dxy     :     0.991786
      f0      :     0.002376  f :     0.016635
      f+1     :     0.002376
      f-1     :     0.002376
      f+2     :     0.002376
      f-2     :     0.002376
      f+3     :     0.002376
      f-3     :     0.002376


                      *****************************
                      * MAYER POPULATION ANALYSIS *
                      *****************************

  NA   - Mulliken gross atomic population
  ZA   - Total nuclear charge
  QA   - Mulliken gross atomic charge
  VA   - Mayer's total valence
  BVA  - Mayer's bonded valence
  FA   - Mayer's free valence

  ATOM       NA         ZA         QA         VA         BVA        FA
  0 Cr    24.0000    24.0000    -0.0000     6.2287     0.0000     6.2287





------------------------------------------------------------------------------- 
                                     TIMINGS                                   
------------------------------------------------------------------------------- 


Total execution time                   ...        3.993 sec

Fock Matrix Formation                  ...        0.063 sec (  1.6%)
Initial Guess                          ...        0.003 sec (  0.1%)
DIIS Solver                            ...        0.030 sec (  0.8%)
State Vector Update                    ...        0.003 sec (  0.1%)
Sigma-vector construction              ...        0.383 sec (  9.6%)
  <D|H|D>(2-ext)                       ...        0.002 sec (  0.6% of sigma)
  <D|H|D>(4-ext)                       ...        0.112 sec ( 29.2% of sigma)
  <S|H|0>                              ...        0.003 sec (  0.8% of sigma)
  <D|H|S>(1-ext)                       ...        0.003 sec (  0.7% of sigma)
  Fock-dressing                        ...        0.161 sec ( 41.9% of sigma)
  (ik|jl)-dressing                     ...        0.002 sec (  0.4% of sigma)
  (ij|ab),(ia|jb)-dressing             ...        0.071 sec ( 18.4% of sigma)
Total Time for computing (T)           ...        0.005 sec (  0.1% of ALL)
  I/O of integral and amplitudes       ...        0.002 sec ( 31.1% of (T))
  N**6 triples energy contributions    ...        0.002 sec ( 40.9% of (T))


-------------------------   --------------------
FINAL SINGLE POINT ENERGY     -1043.409365530940
-------------------------   --------------------


                            ***************************************
                            *     ORCA property calculations      *
                            ***************************************

                                    ---------------------
                                    Active property flags
                                    ---------------------
   (+) Dipole Moment


------------------------------------------------------------------------------
                       ORCA ELECTRIC PROPERTIES CALCULATION
------------------------------------------------------------------------------

Dipole Moment Calculation                       ... on
Quadrupole Moment Calculation                   ... off
Polarizability Calculation                      ... off
GBWName                                         ... 24_Cr.gbw
Electron density file                           ... 24_Cr.scfp
The origin for moment calculation is the CENTER OF MASS  = ( 0.000000,  0.000000  0.000000)

-------------
DIPOLE MOMENT
-------------
                                X             Y             Z
Electronic contribution:      0.00000      -0.00000      -0.00000
Nuclear contribution   :      0.00000       0.00000       0.00000
                        -----------------------------------------
Total Dipole Moment    :      0.00000      -0.00000      -0.00000
                        -----------------------------------------
Magnitude (a.u.)       :      0.00000
Magnitude (Debye)      :      0.00000



--------------------
Rotational spectrum 
--------------------
 
Rotational constants in cm-1:     0.000000     0.000000     0.000000 
Rotational constants in MHz :     0.000000     0.000000     0.000000 

 Dipole components along the rotational axes: 
x,y,z [a.u.] :     0.000000    -0.000000    -0.000000 
x,y,z [Debye]:     0.000000    -0.000000    -0.000000 

 

                           *** MDCI DENSITY ***

------------------------------------------------------------------------------
                       ORCA ELECTRIC PROPERTIES CALCULATION
------------------------------------------------------------------------------

Dipole Moment Calculation                       ... on
Quadrupole Moment Calculation                   ... off
Polarizability Calculation                      ... off
GBWName                                         ... 24_Cr.gbw
Electron density file                           ... 24_Cr.mdcip
The origin for moment calculation is the CENTER OF MASS  = ( 0.000000,  0.000000  0.000000)

-------------
DIPOLE MOMENT
-------------
                                X             Y             Z
Electronic contribution:      0.00000      -0.00000       0.00000
Nuclear contribution   :      0.00000       0.00000       0.00000
                        -----------------------------------------
Total Dipole Moment    :      0.00000      -0.00000       0.00000
                        -----------------------------------------
Magnitude (a.u.)       :      0.00000
Magnitude (Debye)      :      0.00000



--------------------
Rotational spectrum 
--------------------
 
Rotational constants in cm-1:     0.000000     0.000000     0.000000 
Rotational constants in MHz :     0.000000     0.000000     0.000000 

 Dipole components along the rotational axes: 
x,y,z [a.u.] :     0.000000    -0.000000     0.000000 
x,y,z [Debye]:     0.000000    -0.000000     0.000000 

 

Timings for individual modules:

Sum of individual times         ...       13.926 sec (=   0.232 min)
GTO integral calculation        ...        5.997 sec (=   0.100 min)  43.1 %
SCF iterations                  ...        3.425 sec (=   0.057 min)  24.6 %
MDCI module                     ...        4.504 sec (=   0.075 min)  32.3 %
                             ****ORCA TERMINATED NORMALLY****
TOTAL RUN TIME: 0 days 0 hours 0 minutes 14 seconds 788 msec
