
                                 *****************
                                 * O   R   C   A *
                                 *****************

           --- An Ab Initio, DFT and Semiempirical electronic structure package ---

                  #######################################################
                  #                        -***-                        #
                  #          Department of theory and spectroscopy      #
                  #               Directorship: Frank Neese             #
                  #        Max Planck Institute fuer Kohlenforschung    #
                  #                Kaiser Wilhelm Platz 1               #
                  #                 D-45470 Muelheim/Ruhr               #
                  #                      Germany                        #
                  #                                                     #
                  #                  All rights reserved                #
                  #                        -***-                        #
                  #######################################################


                         Program Version 4.2.0 -  RELEASE  -


 With contributions from (in alphabetic order):
   Daniel Aravena         : Magnetic Suceptibility
   Michael Atanasov       : Ab Initio Ligand Field Theory (pilot matlab implementation)
   Alexander A. Auer      : GIAO ZORA, VPT2
   Ute Becker             : Parallelization
   Giovanni Bistoni       : ED, misc. LED, open-shell LED, HFLED
   Martin Brehm           : Molecular dynamics
   Dmytro Bykov           : SCF Hessian
   Vijay G. Chilkuri      : MRCI spin determinant printing, contributions to CSF-ICE
   Dipayan Datta          : RHF DLPNO-CCSD density
   Achintya Kumar Dutta   : EOM-CC, STEOM-CC
   Dmitry Ganyushin       : Spin-Orbit,Spin-Spin,Magnetic field MRCI
   Miquel Garcia          : C-PCM Hessian, Gaussian charge scheme
   Yang Guo               : DLPNO-NEVPT2, CIM, IAO-localization
   Andreas Hansen         : Spin unrestricted coupled pair/coupled cluster methods
   Benjamin Helmich-Paris : CASSCF linear response (MC-RPA)
   Lee Huntington         : MR-EOM, pCC
   Robert Izsak           : Overlap fitted RIJCOSX, COSX-SCS-MP3, EOM
   Christian Kollmar      : KDIIS, OOCD, Brueckner-CCSD(T), CCSD density
   Simone Kossmann        : Meta GGA functionals, TD-DFT gradient, OOMP2, MP2 Hessian
   Martin Krupicka        : AUTO-CI
   Lucas Lang             : DCDCAS
   Dagmar Lenk            : GEPOL surface, SMD
   Dimitrios Liakos       : Extrapolation schemes; Compound Job, initial MDCI parallelization
   Dimitrios Manganas     : Further ROCIS development; embedding schemes
   Dimitrios Pantazis     : SARC Basis sets
   Taras Petrenko         : DFT Hessian,TD-DFT gradient, ASA, ECA, R-Raman, ABS, FL, XAS/XES, NRVS
   Peter Pinski           : DLPNO-MP2, DLPNO-MP2 Gradient
   Christoph Reimann      : Effective Core Potentials
   Marius Retegan         : Local ZFS, SOC
   Christoph Riplinger    : Optimizer, TS searches, QM/MM, DLPNO-CCSD(T), (RO)-DLPNO pert. Triples
   Tobias Risthaus        : Range-separated hybrids, TD-DFT gradient, RPA, STAB
   Michael Roemelt        : Original ROCIS implementation
   Masaaki Saitow         : Open-shell DLPNO-CCSD energy and density
   Barbara Sandhoefer     : DKH picture change effects
   Avijit Sen             : IP-ROCIS
   Kantharuban Sivalingam : CASSCF convergence, NEVPT2, FIC-MRCI
   Bernardo de Souza      : ESD, SOC TD-DFT
   Georgi Stoychev        : AutoAux, RI-MP2 NMR
   Willem Van den Heuvel  : Paramagnetic NMR
   Boris Wezisla          : Elementary symmetry handling
   Frank Wennmohs         : Technical directorship


 We gratefully acknowledge several colleagues who have allowed us to
 interface, adapt or use parts of their codes:
   Stefan Grimme, W. Hujo, H. Kruse,             : VdW corrections, initial TS optimization,
                  C. Bannwarth                     DFT functionals, gCP, sTDA/sTD-DF
   Ed Valeev, F. Pavosevic, A. Kumar             : LibInt (2-el integral package), F12 methods
   Garnet Chan, S. Sharma, J. Yang, R. Olivares  : DMRG
   Ulf Ekstrom                                   : XCFun DFT Library
   Mihaly Kallay                                 : mrcc  (arbitrary order and MRCC methods)
   Andreas Klamt, Michael Diedenhofen            : otool_cosmo (COSMO solvation model)
   Jiri Pittner, Ondrej Demel                    : Mk-CCSD
   Frank Weinhold                                : gennbo (NPA and NBO analysis)
   Christopher J. Cramer and Donald G. Truhlar   : smd solvation model
   Lars Goerigk                                  : TD-DFT with DH, B97 family of functionals
   V. Asgeirsson, H. Jonsson                     : NEB implementation
   FAccTs GmbH                                   : IRC, NEB, NEB-TS, Multilevel, MM, QM/MM, CI optimization
   S Lehtola, MJT Oliveira, MAL Marques          : LibXC Library


 Your calculation uses the libint2 library for the computation of 2-el integrals
 For citations please refer to: http://libint.valeyev.net

 Your ORCA version has been built with support for libXC version: 4.2.3
 For citations please refer to: https://tddft.org/programs/libxc/

 This ORCA versions uses:
   CBLAS   interface :  Fast vector & matrix operations
   LAPACKE interface :  Fast linear algebra routines
   SCALAPACK package :  Parallel linear algebra routines


----- Orbital basis set information -----
Your calculation utilizes the basis: def2-SVP
   F. Weigend and R. Ahlrichs, Phys. Chem. Chem. Phys. 7, 3297 (2005).

================================================================================
                                        WARNINGS
                       Please study these warnings very carefully!
================================================================================


WARNING: your system is open-shell and RHF/RKS was chosen
  ===> : WILL SWITCH to UHF/UKS


WARNING: MDCI localization with Augmented Hessian Foster-Boys
  ===> : Switching off randomization!

WARNING: Post HF methods need fully converged wavefunctions
  ===> : Setting SCFConvForced true
         You can overwrite this default with %scf ConvForced false 


INFO   : the flag for use of LIBINT has been found!

================================================================================
                                       INPUT FILE
================================================================================
NAME = 28_Ni.in
|  1> #
|  2> # 28_Ni CCSD(T)/Def2-SVP
|  3> #
|  4> ! CCSD(T) Def2-SVP tightscf
|  5> 
|  6> *xyz 0 3
|  7>  Ni 0.0 0.0 0.0
|  8> *
|  9> 
| 10> %maxcore 5000 
| 11> 
| 12> %pal
| 13> nprocs 24
| 14> end
| 15> 
| 16> 
| 17>                          ****END OF INPUT****
================================================================================

                       ****************************
                       * Single Point Calculation *
                       ****************************

---------------------------------
CARTESIAN COORDINATES (ANGSTROEM)
---------------------------------
  Ni     0.000000    0.000000    0.000000

----------------------------
CARTESIAN COORDINATES (A.U.)
----------------------------
  NO LB      ZA    FRAG     MASS         X           Y           Z
   0 Ni   28.0000    0    58.700    0.000000    0.000000    0.000000

--------------------------------
INTERNAL COORDINATES (ANGSTROEM)
--------------------------------
 Ni     0   0   0     0.000000000000     0.00000000     0.00000000

---------------------------
INTERNAL COORDINATES (A.U.)
---------------------------
 Ni     0   0   0     0.000000000000     0.00000000     0.00000000

---------------------
BASIS SET INFORMATION
---------------------
There are 1 groups of distinct atoms

 Group   1 Type Ni  : 14s9p5d1f contracted to 5s3p2d1f pattern {63311/531/41/1}

Atom   0Ni   basis set group =>   1


           ************************************************************
           *        Program running with 24 parallel MPI-processes    *
           *              working on a common directory               *
           ************************************************************
------------------------------------------------------------------------------
                           ORCA GTO INTEGRAL CALCULATION
------------------------------------------------------------------------------

                         BASIS SET STATISTICS AND STARTUP INFO

 # of primitive gaussian shells          ...   29
 # of primitive gaussian functions       ...   73
 # of contracted shells                  ...   11
 # of contracted basis functions         ...   31
 Highest angular momentum                ...    3
 Maximum contraction depth               ...    6
 Integral package used                   ... LIBINT
 Integral threshhold            Thresh   ...  2.500e-11
 Primitive cut-off              TCut     ...  2.500e-12


------------------------------ INTEGRAL EVALUATION ----------------------------


 * One electron integrals 
 Pre-screening matrix                    ... done
 Shell pair data                         ... done (   0.000 sec)



           ************************************************************
           *        Program running with 24 parallel MPI-processes    *
           *              working on a common directory               *
           ************************************************************
-------------------------------------------------------------------------------
                                 ORCA SCF
-------------------------------------------------------------------------------

------------
SCF SETTINGS
------------
Hamiltonian:
 Ab initio Hamiltonian  Method          .... Hartree-Fock(GTOs)


General Settings:
 Integral files         IntName         .... 28_Ni
 Hartree-Fock type      HFTyp           .... UHF
 Total Charge           Charge          ....    0
 Multiplicity           Mult            ....    3
 Number of Electrons    NEL             ....   28
 Basis Dimension        Dim             ....   31
 Nuclear Repulsion      ENuc            ....      0.0000000000 Eh

Convergence Acceleration:
 DIIS                   CNVDIIS         .... on
   Start iteration      DIISMaxIt       ....    12
   Startup error        DIISStart       ....  0.200000
   # of expansion vecs  DIISMaxEq       ....     5
   Bias factor          DIISBfac        ....   1.050
   Max. coefficient     DIISMaxC        ....  10.000
 Newton-Raphson         CNVNR           .... off
 SOSCF                  CNVSOSCF        .... off
 Level Shifting         CNVShift        .... on
   Level shift para.    LevelShift      ....    0.2500
   Turn off err/grad.   ShiftErr        ....    0.0010
 Zerner damping         CNVZerner       .... off
 Static damping         CNVDamp         .... on
   Fraction old density DampFac         ....    0.7000
   Max. Damping (<1)    DampMax         ....    0.9800
   Min. Damping (>=0)   DampMin         ....    0.0000
   Turn off err/grad.   DampErr         ....    0.1000
 Fernandez-Rico         CNVRico         .... off

SCF Procedure:
 Maximum # iterations   MaxIter         ....   125
 SCF integral mode      SCFMode         .... Direct
   Integral package                     .... LIBINT
 Reset frequency        DirectResetFreq ....    20
 Integral Threshold     Thresh          ....  2.500e-11 Eh
 Primitive CutOff       TCut            ....  2.500e-12 Eh

Convergence Tolerance:
 Convergence Check Mode ConvCheckMode   .... Total+1el-Energy
 Convergence forced     ConvForced      .... 1
 Energy Change          TolE            ....  1.000e-08 Eh
 1-El. energy change                    ....  1.000e-05 Eh
 DIIS Error             TolErr          ....  5.000e-07


Diagonalization of the overlap matrix:
Smallest eigenvalue                        ... 1.428e-01
Time for diagonalization                   ...    0.001 sec
Threshold for overlap eigenvalues          ... 1.000e-08
Number of eigenvalues below threshold      ... 0
Time for construction of square roots      ...    0.011 sec
Total time needed                          ...    0.011 sec

-------------------
DFT GRID GENERATION
-------------------

General Integration Accuracy     IntAcc      ...  4.340
Radial Grid Type                 RadialGrid  ... Gauss-Chebyshev
Angular Grid (max. acc.)         AngularGrid ... Lebedev-110
Angular grid pruning method      GridPruning ... 3 (G Style)
Weight generation scheme         WeightScheme... Becke
Basis function cutoff            BFCut       ...    1.0000e-11
Integration weight cutoff        WCut        ...    1.0000e-14
Grids for H and He will be reduced by one unit

# of grid points (after initial pruning)     ...   2912 (   0.0 sec)
# of grid points (after weights+screening)   ...   2912 (   0.0 sec)
Grid point division into batches done        ...    0.0 sec
Reduced shell lists constructed in    0.0 sec

Total number of grid points                  ...     2912
Total number of batches                      ...       46
Average number of points per batch           ...       63
Average number of grid points per atom       ...     2912
Average number of shells per batch           ...     2.67 (24.24%)
Average number of basis functions per batch  ...     6.67 (21.51%)
Average number of large shells per batch     ...     2.00 (75.00%)
Average number of large basis fcns per batch ...     3.33 (50.00%)
Maximum spatial batch extension              ...  17.39, 26.34, 26.34 au
Average spatial batch extension              ...   0.76,  1.15,  1.15 au

Time for grid setup =    0.045 sec

------------------------------
INITIAL GUESS: MODEL POTENTIAL
------------------------------
Loading Hartree-Fock densities                     ... done
Calculating cut-offs                               ... done
Setting up the integral package                    ... done
Initializing the effective Hamiltonian             ... done
Starting the Coulomb interaction                   ... done (   0.0 sec)
Reading the grid                                   ... done
Mapping shells                                     ... done
Starting the XC term evaluation                    ... done (   0.0 sec)
Transforming the Hamiltonian                       ... done (   0.0 sec)
Diagonalizing the Hamiltonian                      ... done (   0.0 sec)
Back transforming the eigenvectors                 ... done (   0.0 sec)
Now organizing SCF variables                       ... done
                      ------------------
                      INITIAL GUESS DONE (   0.2 sec)
                      ------------------
--------------
SCF ITERATIONS
--------------
ITER       Energy         Delta-E        Max-DP      RMS-DP      [F,P]     Damp
               ***  Starting incremental Fock matrix formation  ***
  0  -1506.5136290053   0.000000000000 0.09282014  0.00295679  0.2131186 0.7000
  1  -1506.5312646485  -0.017635643154 0.09546271  0.00277509  0.1119871 0.7000
                               ***Turning on DIIS***
  2  -1506.5408092041  -0.009544555584 0.26918597  0.00760531  0.0511223 0.0000
  3  -1505.9955134206   0.545295783488 0.04363846  0.00155429  0.0489661 0.0000
  4  -1506.5735407683  -0.578027347714 0.05391366  0.00183290  0.0081887 0.0000
  5  -1506.6012054029  -0.027664634607 0.04719054  0.00149664  0.0052799 0.0000
  6  -1506.5980614777   0.003143925180 0.02838289  0.00086279  0.0028590 0.0000
  7  -1506.5875348179   0.010526659811 0.01564231  0.00046558  0.0014356 0.0000
  8  -1506.5783571176   0.009177700255 0.01253953  0.00036855  0.0006634 0.0000
  9  -1506.5657612249   0.012595892698 0.00103123  0.00003028  0.0000977 0.0000
 10  -1506.5652664946   0.000494730309 0.00006255  0.00000295  0.0000597 0.0000
 11  -1506.5649323932   0.000334101459 0.00001450  0.00000106  0.0000118 0.0000
 12  -1506.5649880093  -0.000055616126 0.00000777  0.00000038  0.0000090 0.0000
 13  -1506.5649935414  -0.000005532078 0.00000666  0.00000025  0.0000090 0.0000
 14  -1506.5649957547  -0.000002213348 0.00000604  0.00000022  0.0000090 0.0000
 15  -1506.5649961805  -0.000000425781 0.00000583  0.00000022  0.0000090 0.0000
 16  -1506.5649962255  -0.000000045011 0.00000578  0.00000022  0.0000090 0.0000
                 **** Energy Check signals convergence ****

               *****************************************************
               *                     SUCCESS                       *
               *           SCF CONVERGED AFTER  17 CYCLES          *
               *****************************************************


----------------
TOTAL SCF ENERGY
----------------

Total Energy       :        -1506.56499622 Eh          -40995.71773 eV

Components:
Nuclear Repulsion  :            0.00000000 Eh               0.00000 eV
Electronic Energy  :        -1506.56499622 Eh          -40995.71773 eV
One Electron Energy:        -2100.65771853 Eh          -57161.80257 eV
Two Electron Energy:          594.09272231 Eh           16166.08484 eV

Virial components:
Potential Energy   :        -3013.91925365 Eh          -82012.91235 eV
Kinetic Energy     :         1507.35425742 Eh           41017.19462 eV
Virial Ratio       :            1.99947639


---------------
SCF CONVERGENCE
---------------

  Last Energy change         ...    1.5195e-09  Tolerance :   1.0000e-08
  Last MAX-Density change    ...    5.9250e-06  Tolerance :   1.0000e-07
  Last RMS-Density change    ...    2.2180e-07  Tolerance :   5.0000e-09
  Last DIIS Error            ...    9.0202e-06  Tolerance :   5.0000e-07

             **** THE GBW FILE WAS UPDATED (28_Ni.gbw) ****
             **** DENSITY FILE WAS UPDATED (28_Ni.scfp) ****
             **** ENERGY FILE WAS UPDATED (28_Ni.en.tmp) ****
----------------------
UHF SPIN CONTAMINATION
----------------------

Expectation value of <S**2>     :     2.000579
Ideal value S*(S+1) for S=1.0   :     2.000000
Deviation                       :     0.000579

             **** THE GBW FILE WAS UPDATED (28_Ni.gbw) ****
             **** DENSITY FILE WAS UPDATED (28_Ni.scfp) ****
----------------
ORBITAL ENERGIES
----------------
                 SPIN UP ORBITALS
  NO   OCC          E(Eh)            E(eV) 
   0   1.0000    -305.278505     -8307.0504 
   1   1.0000     -37.593763     -1022.9783 
   2   1.0000     -32.650216      -888.4575 
   3   1.0000     -32.631405      -887.9457 
   4   1.0000     -32.606442      -887.2664 
   5   1.0000      -4.643637      -126.3598 
   6   1.0000      -3.105519       -84.5055 
   7   1.0000      -3.065035       -83.4038 
   8   1.0000      -3.012023       -81.9613 
   9   1.0000      -0.493372       -13.4253 
  10   1.0000      -0.440816       -11.9952 
  11   1.0000      -0.419712       -11.4209 
  12   1.0000      -0.403670       -10.9844 
  13   1.0000      -0.399404       -10.8683 
  14   1.0000      -0.220582        -6.0023 
  15   0.0000       0.200501         5.4559 
  16   0.0000       0.204913         5.5760 
  17   0.0000       0.212757         5.7894 
  18   0.0000       0.223091         6.0706 
  19   0.0000       1.515411        41.2364 
  20   0.0000       1.541896        41.9571 
  21   0.0000       1.555187        42.3188 
  22   0.0000       1.565350        42.5953 
  23   0.0000       1.568013        42.6678 
  24   0.0000       6.094222       165.8322 
  25   0.0000       6.102740       166.0640 
  26   0.0000       6.125384       166.6802 
  27   0.0000       6.159758       167.6155 
  28   0.0000       6.162818       167.6988 
  29   0.0000       6.171645       167.9390 
  30   0.0000       6.172373       167.9588 

                 SPIN DOWN ORBITALS
  NO   OCC          E(Eh)            E(eV) 
   0   1.0000    -305.276001     -8306.9823 
   1   1.0000     -37.557201     -1021.9834 
   2   1.0000     -32.595798      -886.9768 
   3   1.0000     -32.595610      -886.9716 
   4   1.0000     -32.595478      -886.9681 
   5   1.0000      -4.543795      -123.6429 
   6   1.0000      -2.978257       -81.0425 
   7   1.0000      -2.944100       -80.1130 
   8   1.0000      -2.917876       -79.3994 
   9   1.0000      -0.418641       -11.3918 
  10   1.0000      -0.382225       -10.4009 
  11   1.0000      -0.354860        -9.6562 
  12   1.0000      -0.348332        -9.4786 
  13   0.0000       0.023423         0.6374 
  14   0.0000       0.260512         7.0889 
  15   0.0000       0.278557         7.5799 
  16   0.0000       0.281251         7.6532 
  17   0.0000       0.284819         7.7503 
  18   0.0000       0.455377        12.3914 
  19   0.0000       1.568046        42.6687 
  20   0.0000       1.585854        43.1533 
  21   0.0000       1.599492        43.5244 
  22   0.0000       1.602793        43.6142 
  23   0.0000       1.737505        47.2799 
  24   0.0000       6.167946       167.8383 
  25   0.0000       6.173427       167.9875 
  26   0.0000       6.195214       168.5804 
  27   0.0000       6.200093       168.7131 
  28   0.0000       6.232352       169.5909 
  29   0.0000       6.234872       169.6595 
  30   0.0000       6.254483       170.1931 

                    ********************************
                    * MULLIKEN POPULATION ANALYSIS *
                    ********************************

--------------------------------------------
MULLIKEN ATOMIC CHARGES AND SPIN POPULATIONS
--------------------------------------------
   0 Ni:   -0.000000    2.000000
Sum of atomic charges         :   -0.0000000
Sum of atomic spin populations:    2.0000000

-----------------------------------------------------
MULLIKEN REDUCED ORBITAL CHARGES AND SPIN POPULATIONS
-----------------------------------------------------
CHARGE
  0 Nis       :     6.999927  s :     6.999927
      pz      :     3.999806  p :    11.999649
      px      :     3.999963
      py      :     3.999880
      dz2     :     1.088759  d :     9.000073
      dxz     :     2.000000
      dyz     :     2.000000
      dx2y2   :     1.911314
      dxy     :     2.000000
      f0      :     0.000175  f :     0.000351
      f+1     :     0.000029
      f-1     :     0.000107
      f+2     :     0.000019
      f-2     :     0.000000
      f+3     :     0.000008
      f-3     :     0.000013

SPIN
  0 Nis       :     0.999927  s :     0.999927
      pz      :     0.000089  p :     0.000186
      px      :    -0.000002
      py      :     0.000099
      dz2     :     0.911350  d :     1.000073
      dxz     :    -0.000000
      dyz     :    -0.000000
      dx2y2   :     0.088723
      dxy     :     0.000000
      f0      :    -0.000074  f :    -0.000186
      f+1     :    -0.000006
      f-1     :    -0.000107
      f+2     :    -0.000015
      f-2     :    -0.000000
      f+3     :     0.000007
      f-3     :     0.000008


                     *******************************
                     * LOEWDIN POPULATION ANALYSIS *
                     *******************************

-------------------------------------------
LOEWDIN ATOMIC CHARGES AND SPIN POPULATIONS
-------------------------------------------
   0 Ni:   -0.000000    2.000000

----------------------------------------------------
LOEWDIN REDUCED ORBITAL CHARGES AND SPIN POPULATIONS
----------------------------------------------------
CHARGE
  0 Nis       :     6.999927  s :     6.999927
      pz      :     3.999806  p :    11.999649
      px      :     3.999963
      py      :     3.999880
      dz2     :     1.088759  d :     9.000073
      dxz     :     2.000000
      dyz     :     2.000000
      dx2y2   :     1.911314
      dxy     :     2.000000
      f0      :     0.000175  f :     0.000351
      f+1     :     0.000029
      f-1     :     0.000107
      f+2     :     0.000019
      f-2     :     0.000000
      f+3     :     0.000008
      f-3     :     0.000013

SPIN
  0 Nis       :     0.999927  s :     0.999927
      pz      :     0.000089  p :     0.000186
      px      :    -0.000002
      py      :     0.000099
      dz2     :     0.911350  d :     1.000073
      dxz     :    -0.000000
      dyz     :    -0.000000
      dx2y2   :     0.088723
      dxy     :     0.000000
      f0      :    -0.000074  f :    -0.000186
      f+1     :    -0.000006
      f-1     :    -0.000107
      f+2     :    -0.000015
      f-2     :    -0.000000
      f+3     :     0.000007
      f-3     :     0.000008


                      *****************************
                      * MAYER POPULATION ANALYSIS *
                      *****************************

  NA   - Mulliken gross atomic population
  ZA   - Total nuclear charge
  QA   - Mulliken gross atomic charge
  VA   - Mayer's total valence
  BVA  - Mayer's bonded valence
  FA   - Mayer's free valence

  ATOM       NA         ZA         QA         VA         BVA        FA
  0 Ni    28.0000    28.0000    -0.0000     2.0012     0.0000     2.0012

  Mayer bond orders larger than 0.100000


-------
TIMINGS
-------

Total SCF time: 0 days 0 hours 0 min 3 sec 

Total time                  ....       3.437 sec
Sum of individual times     ....       2.868 sec  ( 83.5%)

Fock matrix formation       ....       2.278 sec  ( 66.3%)
Diagonalization             ....       0.059 sec  (  1.7%)
Density matrix formation    ....       0.002 sec  (  0.0%)
Population analysis         ....       0.052 sec  (  1.5%)
Initial guess               ....       0.134 sec  (  3.9%)
Orbital Transformation      ....       0.000 sec  (  0.0%)
Orbital Orthonormalization  ....       0.000 sec  (  0.0%)
DIIS solution               ....       0.298 sec  (  8.7%)


           ************************************************************
           *        Program running with 24 parallel MPI-processes    *
           *              working on a common directory               *
           ************************************************************


------------------------------------------------------------------------------- 
                              ORCA-MATRIX DRIVEN CI                            
------------------------------------------------------------------------------- 

--------------------------------
AUTOMATIC CHOICE OF INCORE LEVEL
--------------------------------

Memory available                           ...   2500.00 MB
Memory needed for S+T                      ...      0.32 MB
Memory needed for J+K                      ...      0.66 MB
Memory needed for DIIS                     ...      4.51 MB
Memory needed for 3-ext                    ...      0.31 MB
Memory needed for 4-ext                    ...      0.27 MB
Memory needed for triples                  ...      0.16 MB
 -> Final InCoreLevel    ... 5
 -> check shows that triples correction can be computed


Wavefunction type
-----------------
Correlation treatment                      ...      CCSD     
Single excitations                         ... ON
Orbital optimization                       ... OFF
Calculation of Z vector                    ... OFF
Calculation of Brueckner orbitals          ... OFF
Perturbative triple excitations            ... ON
Calculation of F12 correction              ... OFF
Frozen core treatment                      ... chemical core (10 el)
Reference Wavefunction                     ... UHF
  Alpha-MOs occ    :     5 ...   14 ( 10 MO's/ 10 electrons)
  Beta-MOs occ     :     5 ...   12 (  8 MO's/  8 electrons)
  Alpha-MOs virt   :    15 ...   30 ( 16 MO's              )
  Beta-MOs virt    :    13 ...   30 ( 18 MO's              )
Number of AO's                             ...     31
Number of electrons                        ...     28
Number of correlated electrons             ...     18

Algorithmic settings
--------------------
Integral transformation                    ... AO direct full transformation
K(C) Formation                             ... FULL-MO TRAFO
Maximum number of iterations               ...        50
Convergence tolerance (max. residuum)      ... 1.000e-05
Level shift for amplitude update           ... 2.000e-01
Maximum number of DIIS vectors             ...         7
DIIS turned on at iteration                ...         0
Damping before turning on DIIS             ...     0.500
Damping after turning on DIIS              ...     0.000
Pair specific amplitude update             ... OFF
Natural orbital iterations                 ... OFF
Perturbative natural orbital generation    ... OFF
Printlevel                                 ... 2

Memory handling:
----------------
Maximum memory for working arrays          ...   2500 MB
Data storage in matrix containers          ... UNCOMPRESSED
Data type for integral storage             ... DOUBLE
In-Core Storage of quantities:
   Amplitudes+Sigma Vector      ... YES
   J+K operators                ... YES
   DIIS vectors                 ... YES
   3-external integrals         ... YES
   4-external integrals         ... YES


Initializing the integral package          ... done
Warning: reference  - re-canonicalizations have been set to INT 1 VIRT 1

--------------------------
UNRESTRICTED FOCK OPERATOR
--------------------------

<ss|ss>:          120 b            0 skpd (  0.0%)    0.000 s ( 0.001 ms/b)
<ss|sp>:          225 b            0 skpd (  0.0%)    0.000 s ( 0.001 ms/b)
<ss|sd>:          150 b            0 skpd (  0.0%)    0.001 s ( 0.004 ms/b)
<ss|sf>:           75 b            0 skpd (  0.0%)    0.000 s ( 0.001 ms/b)
<ss|pp>:           90 b            0 skpd (  0.0%)    0.000 s ( 0.004 ms/b)
<ss|pd>:           90 b            0 skpd (  0.0%)    0.000 s ( 0.004 ms/b)
<ss|pf>:           45 b            0 skpd (  0.0%)    0.000 s ( 0.007 ms/b)
<ss|dd>:           45 b            0 skpd (  0.0%)    0.000 s ( 0.010 ms/b)
<ss|df>:           30 b            0 skpd (  0.0%)    0.000 s ( 0.007 ms/b)
<ss|ff>:           15 b            0 skpd (  0.0%)    0.000 s ( 0.007 ms/b)
<sp|sp>:          120 b            0 skpd (  0.0%)    0.000 s ( 0.002 ms/b)
<sp|sd>:          150 b            0 skpd (  0.0%)    0.001 s ( 0.006 ms/b)
<sp|sf>:           75 b            0 skpd (  0.0%)    0.000 s ( 0.002 ms/b)
<sp|pp>:           90 b            0 skpd (  0.0%)    0.001 s ( 0.007 ms/b)
<sp|pd>:           90 b            0 skpd (  0.0%)    0.001 s ( 0.007 ms/b)
<sp|pf>:           45 b            0 skpd (  0.0%)    0.001 s ( 0.015 ms/b)
<sp|dd>:           45 b            0 skpd (  0.0%)    0.001 s ( 0.021 ms/b)
<sp|df>:           30 b            0 skpd (  0.0%)    0.000 s ( 0.015 ms/b)
<sp|ff>:           15 b            0 skpd (  0.0%)    0.000 s ( 0.017 ms/b)
<sd|sd>:           55 b            0 skpd (  0.0%)    0.000 s ( 0.008 ms/b)
<sd|sf>:           50 b            0 skpd (  0.0%)    0.000 s ( 0.004 ms/b)
<sd|pp>:           60 b            0 skpd (  0.0%)    0.001 s ( 0.012 ms/b)
<sd|pd>:           60 b            0 skpd (  0.0%)    0.001 s ( 0.014 ms/b)
<sd|pf>:           30 b            0 skpd (  0.0%)    0.001 s ( 0.026 ms/b)
<sd|dd>:           30 b            0 skpd (  0.0%)    0.001 s ( 0.042 ms/b)
<sd|df>:           20 b            0 skpd (  0.0%)    0.001 s ( 0.033 ms/b)
<sd|ff>:           10 b            0 skpd (  0.0%)    0.000 s ( 0.037 ms/b)
<sf|sf>:           15 b            0 skpd (  0.0%)    0.000 s ( 0.004 ms/b)
<sf|pp>:           30 b            0 skpd (  0.0%)    0.000 s ( 0.011 ms/b)
<sf|pd>:           30 b            0 skpd (  0.0%)    0.000 s ( 0.013 ms/b)
<sf|pf>:           15 b            0 skpd (  0.0%)    0.000 s ( 0.027 ms/b)
<sf|dd>:           15 b            0 skpd (  0.0%)    0.001 s ( 0.040 ms/b)
<sf|df>:           10 b            0 skpd (  0.0%)    0.000 s ( 0.036 ms/b)
<sf|ff>:            5 b            0 skpd (  0.0%)    0.000 s ( 0.045 ms/b)
<pp|pp>:           21 b            0 skpd (  0.0%)    0.001 s ( 0.025 ms/b)
<pp|pd>:           36 b            0 skpd (  0.0%)    0.001 s ( 0.020 ms/b)
<pp|pf>:           18 b            0 skpd (  0.0%)    0.001 s ( 0.038 ms/b)
<pp|dd>:           18 b            0 skpd (  0.0%)    0.001 s ( 0.061 ms/b)
<pp|df>:           12 b            0 skpd (  0.0%)    0.001 s ( 0.048 ms/b)
<pp|ff>:            6 b            0 skpd (  0.0%)    0.000 s ( 0.052 ms/b)
<pd|pd>:           21 b            0 skpd (  0.0%)    0.001 s ( 0.048 ms/b)
<pd|pf>:           18 b            0 skpd (  0.0%)    0.001 s ( 0.065 ms/b)
<pd|dd>:           18 b            0 skpd (  0.0%)    0.002 s ( 0.110 ms/b)
<pd|df>:           12 b            0 skpd (  0.0%)    0.001 s ( 0.090 ms/b)
<pd|ff>:            6 b            0 skpd (  0.0%)    0.001 s ( 0.107 ms/b)
<pf|pf>:            6 b            0 skpd (  0.0%)    0.000 s ( 0.044 ms/b)
<pf|dd>:            9 b            0 skpd (  0.0%)    0.001 s ( 0.090 ms/b)
<pf|df>:            6 b            0 skpd (  0.0%)    0.001 s ( 0.088 ms/b)
<pf|ff>:            3 b            0 skpd (  0.0%)    0.000 s ( 0.119 ms/b)
<dd|dd>:            6 b            0 skpd (  0.0%)    0.002 s ( 0.304 ms/b)
<dd|df>:            6 b            0 skpd (  0.0%)    0.001 s ( 0.170 ms/b)
<dd|ff>:            3 b            0 skpd (  0.0%)    0.001 s ( 0.195 ms/b)
<df|df>:            3 b            0 skpd (  0.0%)    0.001 s ( 0.193 ms/b)
<df|ff>:            2 b            0 skpd (  0.0%)    0.000 s ( 0.219 ms/b)
<ff|ff>:            1 b            0 skpd (  0.0%)    0.000 s ( 0.307 ms/b)
Recanonicalizing the internal orbitals
Recanonicalizing the virtual orbitals
Time needed for Fock operator              ...            0.170 sec
Reference energy                           ...  -1506.564996222
Warning: for UHF the TrafoType has to be JK
Warning: for UHF the K(C)-option cannot be MO but must be AOX

-------------------------------
PARTIAL EXCHANGE TRANSFORMATION
-------------------------------

Transformation type                        ... two-operators
Generation of integrals (i,mue|j,nue)      ... ON
Generation of integrals (mue,kappa|nue,tau)... ON
Generation of integrals (i,mue|a,nue)      ... ON
Dimension of the basis                     ...   31
Number of internal alpha-MOs               ...   10 (   5-  14)
Number of internal beta-MOs                ...    8 (   5-  12)
Number of external alpha-MOs               ...   16 (  15-  30)
Number of external beta-MOs                ...   18 (  13-  30)
Pair cutoff                                ... 0.000e+00 Eh
Number of AO pairs in the trafo            ...  496
Total Number of distinct AO pairs          ...  496
Memory devoted for trafo                   ... 2500.0 MB 
Max. Number of MO pairs treated together   ... 340978      
Number Format for Storage                  ... Double (8 Byte)
Integral package used                      ... LIBINT

Starting integral evaluation:
    ... done with AO integral generation
Closing buffer AOK[aa] ( 0.00 GB; CompressionRatio= 0.00)
Closing buffer AOK[bb] ( 0.00 GB; CompressionRatio= 0.00)
Closing buffer AOK[ab] ( 0.00 GB; CompressionRatio= 0.00)
Closing buffer AOK[ba] ( 0.00 GB; CompressionRatio= 0.00)
Collecting buffer AOK 
Closing buffer IAAO1[aa] ( 0.00 GB; CompressionRatio= 0.00)
Closing buffer IAAO1[bb] ( 0.00 GB; CompressionRatio= 0.00)
Closing buffer IAAO1[ab] ( 0.00 GB; CompressionRatio= 0.00)
Closing buffer IAAO1[ba] ( 0.00 GB; CompressionRatio= 0.00)
Closing buffer IAAO2[aa] ( 0.00 GB; CompressionRatio= 0.00)
Closing buffer IAAO2[bb] ( 0.00 GB; CompressionRatio= 0.00)
Closing buffer IAAO2[ab] ( 0.00 GB; CompressionRatio= 0.00)
Closing buffer IAAO2[ba] ( 0.00 GB; CompressionRatio= 0.00)
Collecting buffer IAAO 
Closing buffer PRQS    ( 0.00 GB; CompressionRatio= 0.00)
Collecting buffer PRQS 
Number of alpha/alpha MO pairs in trafo    ...   55
Number of beta /beta  MO pairs in trafo    ...   36
Number of alpha/ beta MO pairs in trafo    ...   80
------------------------
SORTING OF (i,mue|j,nue)
------------------------

SORTING OF ALPHA/ALPHA PAIRS
IBATCH = 1 of  1
Closing buffer KAO[aa] ( 0.00 GB; CompressionRatio= 1.00)
Collecting buffer KAO 
SORTING OF BETA /BETA  PAIRS
IBATCH = 1 of  1
Closing buffer KAO[bb] ( 0.00 GB; CompressionRatio= 1.00)
Collecting buffer KAO 
SORTING OF ALPHA/BETA  PAIRS
IBATCH = 1 of  1
Closing buffer KAO[ab] ( 0.00 GB; CompressionRatio= 0.998441558442)
Collecting buffer KAO[ab] 
------------------------
SORTING OF (i,mue|a,nue)
------------------------

Number of alpha/alpha (i,a) pairs in trafo  ...  160
Number of beta /beta  (i,a) pairs in trafo  ...  144
Number of alpha/ beta (i,a) pairs in trafo  ...  180
Number of beta /alpha (i,a) pairs in trafo  ...  128
Setting up the alpha/alpha list             ... done
Setting up the beta /beta  list             ... done
Setting up the alpha/beta  list             ... done
Setting up the beta /alpha list             ... done
    ... Now sorting (i,mue|a,nue)integrals
    ... Integrals (i,b|a,c) will be made on the fly
SORTING OF ALPHA/ALPHA PAIRS
IBATCH = 1 of  1
Closing buffer IPAQ[aa]  0.00 GB; CompressionRatio= 1.00)
SORTING OF BETA /BETA  PAIRS
IBATCH = 1 of  1
Closing buffer IPAQ[bb]( 0.00 GB; CompressionRatio= 1.00)
SORTING OF ALPHA/BETA  PAIRS (NMatSort_ab=8)
IBATCH = 1 of  1
Closing buffer IPAQ[ab]( 0.00 GB; CompressionRatio= 1.00)
SORTING OF BETA/ALPHA  PAIRS
IBATCH = 1 of  1
Closing buffer IPAQ[ba]( 0.00 GB; CompressionRatio= 1.00)
N(AO-Batches) Done                         ...         0 
N(AO-Batches) Skipped                      ...         0 
N(IJ)-pairs Skipped                        ...         0 
TOTAL TIME for half transformation         ...     1.468 sec
AO-integral generation                     ...     0.000 sec
Half transformation                        ...     0.000 sec
K-integral sorting                         ...     0.579 sec
<ss|**>: 
------------------------------
PARTIAL COULOMB TRANSFORMATION
------------------------------

Transformation type                        ... two-operators
Dimension of the basis                     ...   31
Number of internal alpha-MOs               ...   10 (5-14)
Number of internal beta-MOs                ...    8 (5-12)
Pair cutoff                                ... 0.000e+00 Eh
Number of AO pairs included in the trafo   ...  496
Total Number of distinct AO pairs          ...  496
Memory devoted for trafo                   ... 2500.0 MB 
Max. Number of MO pairs treated together   ... 660645      
Max. Number of MOs treated per batch       ... 21311      
Number Format for Storage                  ... Double (8 Byte)
AO-integral source                         ... DIRECT
Integral package used                      ... LIBINT

Starting integral evaluation:
<sp|**>:          990 b        0 skpd     0.001 s (  0.001 ms/b)
<sd|**>:          990 b        0 skpd     0.007 s (  0.007 ms/b)
<sf|**>:          660 b        0 skpd     0.009 s (  0.013 ms/b)
<pp|**>:          330 b        0 skpd     0.007 s (  0.021 ms/b)
<pd|**>:          396 b        0 skpd     0.010 s (  0.025 ms/b)
         396 b        0 skpd     0.017 s (  0.044 ms/b)
<pf|**>:          198 b        0 skpd     0.018 s (  0.089 ms/b)
<dd|**>:          198 b        0 skpd     0.018 s (  0.089 ms/b)
<df|**>:          132 b        0 skpd     0.028 s (  0.211 ms/b)
<ff|**>:           66 b        0 skpd     0.017 s (  0.253 ms/b)
Closing buffer AOJ[aa] ( 0.00 GB; CompressionRatio= 0.97)
Closing buffer AOJ[bb] ( 0.00 GB; CompressionRatio= 0.00)
Collecting buffer AOJ 
    ... done with AO integral generation
Number of Alpha-MO pairs included          ...   55
Number of Beta-MO pairs included           ...   36
    ... Now sorting integrals
SORTING ALPHA/ALPHA PAIRS
IBATCH = 1 of  1
Closing buffer JAO[aa] ( 0.00 GB; CompressionRatio= 1.00)
SORTING BETA/BETA PAIRS
IBATCH = 1 of  1
Closing buffer JAO[bb] ( 0.00 GB; CompressionRatio= 1.00)
Collecting buffer JAO 
TOTAL TIME for half transformation         ...     0.353 sec
AO-integral generation                     ...     0.108 sec
Half transformation                        ...     0.024 sec
J-integral sorting                         ...     0.093 sec

-------------------------- SECOND HALF TRANSFORMATION -------------------------
Formation of (ij|kl),(ij|ka), (ij|ab)      ... ok (     0.114 sec)
Formation of (ik|jl),(ik|ja), (ia|jb)      ... ok (     0.167 sec)


-----------------------
SPIN UNRESTRICTED GUESS
-----------------------

Entering MDCI_UHF_Guess, Tailored=0
Spin-components of the MP2 energy:
EMP2(aa)=     -0.071466752
EMP2(bb)=     -0.051904459
EMP2(ab)=     -0.221687459

Initial guess performed in     0.004 sec
E(0)                                       ...  -1506.564996222
E(MP2)                                     ...     -0.345058670
Initial E(tot)                             ...  -1506.910054892
<T|T>                                      ...      0.061409268
Number of pairs included                   ... 153

------------------------------------------------
                  UHF COUPLED CLUSTER ITERATIONS
------------------------------------------------

Number of amplitudes to be optimized       ...        33488

Iter       E(tot)           E(Corr)          Delta-E          Residual     Time      <S|S>**1/2
  0  -1506.910054892     -0.345058670     -0.000000000      0.038266162    0.08      0.000005237
                           *** Turning on DIIS ***
  1  -1506.875955315     -0.310959093      0.034099577      0.009381461    0.05      0.036701619
  2  -1506.884968316     -0.319972094     -0.009013001      0.003608691    0.06      0.030219439
  3  -1506.885659126     -0.320662904     -0.000690810      0.001872279    0.06      0.032797394
  4  -1506.886152465     -0.321156243     -0.000493339      0.000724818    0.06      0.034690170
  5  -1506.886236270     -0.321240047     -0.000083805      0.000235471    0.06      0.035533151
  6  -1506.886248466     -0.321252244     -0.000012197      0.000081591    0.06      0.035812134
  7  -1506.886252866     -0.321256644     -0.000004400      0.000084924    0.06      0.035894090
  8  -1506.886253201     -0.321256979     -0.000000335      0.000089998    0.06      0.035907403
  9  -1506.886252865     -0.321256642      0.000000336      0.000085119    0.06      0.035898930
 10  -1506.886253791     -0.321257569     -0.000000926      0.000031121    0.06      0.035892612
 11  -1506.886254229     -0.321258006     -0.000000438      0.000012021    0.08      0.035913216
 12  -1506.886254399     -0.321258176     -0.000000170      0.000007891    0.07      0.035923416
               --- The Coupled-Cluster iterations have converged ---

----------------------
COUPLED CLUSTER ENERGY
----------------------

E(0)                                       ...  -1506.564996222
E(CORR)                                    ...     -0.321258176
E(TOT)                                     ...  -1506.886254399
Singles norm <S|S>**1/2                    ...      0.035923416 ( 0.022645867, 0.013277550)  
T1 diagnostic                              ...      0.008467230                              

------------------
LARGEST AMPLITUDES
------------------
  13a-> 23a  12b-> 22b       0.037559
  12a-> 22a  11b-> 21b       0.037434
  11a-> 21a  10b-> 20b       0.037113
  10a-> 20a   9b-> 19b       0.036733
  14a-> 18a  12b-> 17b       0.035689
  14a-> 17a  11b-> 17b       0.031792
  14a-> 16a  10b-> 17b       0.031168
  13a-> 23a  11b-> 21b       0.030950
  12a-> 22a  12b-> 22b       0.030946
  14a-> 18a  11b-> 16b       0.030898
   9a-> 19a   9b-> 19b       0.030475
  14a-> 18a  10b-> 15b       0.029635
  14a-> 16a   9b-> 16b       0.029500
  13a-> 23a  10b-> 20b       0.029128
  11a-> 21a  12b-> 22b       0.029102
  14a-> 17a   9b-> 15b       0.028858

----------------------
UHF TRIPLES CORRECTION (Algorithm 1)
----------------------

Multiplier for the singles contribution    ...      1.000000000

SPIN-CASE Alpha-Alpha-Alpha:
10% done
20% done
30% done
40% done
50% done
60% done
70% done
80% done
90% done


SPIN-CASE Beta-Beta-Beta:
10% done
20% done
30% done
40% done
50% done
60% done
70% done
80% done
90% done


SPIN-CASE Alpha-Alpha-Beta:
10% done
20% done
30% done
40% done
50% done
60% done
70% done
80% done
90% done


SPIN-CASE Beta-Beta-Alpha:
10% done
20% done
30% done
40% done
50% done
60% done
70% done
80% done
90% done


Triples Correction (T)                     ...     -0.009671729
    alpha-alpha-alpha ... -0.000548721 (  5.7%)
    alpha-alpha-beta  ... -0.005165017 ( 53.4%)
    alpha-beta -beta  ... -0.003723089 ( 38.5%)
    beta -beta -beta  ... -0.000234903 (  2.4%)
Scaling of triples based on CCSD energies (Peterson et al. Molecular Physics 113, 1551 (2015))
E(T*) = f*E(T) where f = E(F12-CCSD)/E(CCSD) 
f = CCSD (with F12)/ CCSD (without F12)    ...      1.000000000
Scaled triples correction (T)              ...     -0.009671729

Final correlation energy                   ...     -0.330929906
E(CCSD)                                    ...  -1506.886254399
E(CCSD(T))                                 ...  -1506.895926128



        !!!!!!!!!!!!!!!!!!!!!!!!!!!!!!!!!!!!!!!!!!!!!!!!!!!!!!!!!!!!!!!!!!!!!!!!!! 
        !  Warning: Densities are linearized densities                           !
        !!!!!!!!!!!!!!!!!!!!!!!!!!!!!!!!!!!!!!!!!!!!!!!!!!!!!!!!!!!!!!!!!!!!!!!!!! 

NORM  =      1.058926065 sqrt=     1.029041333
W(HF) =      0.944352994
------------------------------------------------------------------------------
                           ORCA POPULATION ANALYSIS
------------------------------------------------------------------------------
Input electron density              ... 28_Ni.mdcip
Input spin density                  ... 28_Ni.mdcir
BaseName (.gbw .S,...)              ... 28_Ni

                    ********************************
                    * MULLIKEN POPULATION ANALYSIS *
                    ********************************

------------------------------------------
MULLIKEN ATOMIC CHARGES AND SPIN DENSITIES
------------------------------------------
   0 Ni:   -0.000000    2.000000
Sum of atomic charges       :   -0.0000000
Sum of atomic spin densities:    2.0000000

---------------------------------------------------
MULLIKEN REDUCED ORBITAL CHARGES AND SPIN DENSITIES
---------------------------------------------------
CHARGE
  0 Nis       :     6.991505  s :     6.991505
      pz      :     4.001224  p :    12.009730
      px      :     4.005459
      py      :     4.003047
      dz2     :     1.090874  d :     8.979748
      dxz     :     1.994282
      dyz     :     1.994759
      dx2y2   :     1.905923
      dxy     :     1.993911
      f0      :     0.002455  f :     0.019016
      f+1     :     0.002640
      f-1     :     0.002554
      f+2     :     0.002852
      f-2     :     0.002875
      f+3     :     0.002820
      f-3     :     0.002820

SPIN
  0 Nis       :     0.990807  s :     0.990807
      pz      :     0.002129  p :     0.003615
      px      :     0.000183
      py      :     0.001302
      dz2     :     0.905847  d :     1.003339
      dxz     :     0.002295
      dyz     :     0.001732
      dx2y2   :     0.090735
      dxy     :     0.002730
      f0      :     0.000878  f :     0.002239
      f+1     :     0.000501
      f-1     :     0.000599
      f+2     :    -0.000020
      f-2     :    -0.000079
      f+3     :     0.000180
      f-3     :     0.000180


                     *******************************
                     * LOEWDIN POPULATION ANALYSIS *
                     *******************************

-----------------------------------------
LOEWDIN ATOMIC CHARGES AND SPIN DENSITIES
-----------------------------------------
   0 Ni:   -0.000000    2.000000

--------------------------------------------------
LOEWDIN REDUCED ORBITAL CHARGES AND SPIN DENSITIES
--------------------------------------------------
CHARGE
  0 Nis       :     6.991505  s :     6.991505
      pz      :     4.001224  p :    12.009730
      px      :     4.005459
      py      :     4.003047
      dz2     :     1.090874  d :     8.979748
      dxz     :     1.994282
      dyz     :     1.994759
      dx2y2   :     1.905923
      dxy     :     1.993911
      f0      :     0.002455  f :     0.019016
      f+1     :     0.002640
      f-1     :     0.002554
      f+2     :     0.002852
      f-2     :     0.002875
      f+3     :     0.002820
      f-3     :     0.002820

SPIN
  0 Nis       :     0.990807  s :     0.990807
      pz      :     0.002129  p :     0.003615
      px      :     0.000183
      py      :     0.001302
      dz2     :     0.905847  d :     1.003339
      dxz     :     0.002295
      dyz     :     0.001732
      dx2y2   :     0.090735
      dxy     :     0.002730
      f0      :     0.000878  f :     0.002239
      f+1     :     0.000501
      f-1     :     0.000599
      f+2     :    -0.000020
      f-2     :    -0.000079
      f+3     :     0.000180
      f-3     :     0.000180


                      *****************************
                      * MAYER POPULATION ANALYSIS *
                      *****************************

  NA   - Mulliken gross atomic population
  ZA   - Total nuclear charge
  QA   - Mulliken gross atomic charge
  VA   - Mayer's total valence
  BVA  - Mayer's bonded valence
  FA   - Mayer's free valence

  ATOM       NA         ZA         QA         VA         BVA        FA
  0 Ni    28.0000    28.0000    -0.0000     2.4072     0.0000     2.4072





------------------------------------------------------------------------------- 
                                     TIMINGS                                   
------------------------------------------------------------------------------- 


Total execution time                   ...        3.545 sec

Fock Matrix Formation                  ...        0.170 sec (  4.8%)
Initial Guess                          ...        0.004 sec (  0.1%)
DIIS Solver                            ...        0.076 sec (  2.1%)
State Vector Update                    ...        0.007 sec (  0.2%)
Sigma-vector construction              ...        0.737 sec ( 20.8%)
  <D|H|D>(0-ext Fock)                  ...        0.001 sec (  0.1% of sigma)
  <D|H|D>(0-ext)                       ...        0.002 sec (  0.3% of sigma)
  <D|H|D>(2-ext)                       ...        0.007 sec (  1.0% of sigma)
  <D|H|D>(4-ext)                       ...        0.187 sec ( 25.4% of sigma)
  <S|H|0>                              ...        0.011 sec (  1.6% of sigma)
  <D|H|S>(1-ext)                       ...        0.006 sec (  0.8% of sigma)
  Fock-dressing                        ...        0.296 sec ( 40.1% of sigma)
  (ik|jl)-dressing                     ...        0.004 sec (  0.5% of sigma)
  (ij|ab),(ia|jb)-dressing             ...        0.158 sec ( 21.5% of sigma)
  Pair energies                        ...        0.002 sec (  0.3% of sigma)
Total Time for computing (T)           ...        0.012 sec (  0.3% of ALL)
  I/O of integral and amplitudes       ...        0.002 sec ( 15.8% of (T))
  N**6 triples energy contributions    ...        0.003 sec ( 27.3% of (T))


-------------------------   --------------------
FINAL SINGLE POINT ENERGY     -1506.895926128092
-------------------------   --------------------


                            ***************************************
                            *     ORCA property calculations      *
                            ***************************************

                                    ---------------------
                                    Active property flags
                                    ---------------------
   (+) Dipole Moment


------------------------------------------------------------------------------
                       ORCA ELECTRIC PROPERTIES CALCULATION
------------------------------------------------------------------------------

Dipole Moment Calculation                       ... on
Quadrupole Moment Calculation                   ... off
Polarizability Calculation                      ... off
GBWName                                         ... 28_Ni.gbw
Electron density file                           ... 28_Ni.scfp
The origin for moment calculation is the CENTER OF MASS  = ( 0.000000,  0.000000  0.000000)

-------------
DIPOLE MOMENT
-------------
                                X             Y             Z
Electronic contribution:     -0.00000      -0.00000       0.00000
Nuclear contribution   :      0.00000       0.00000       0.00000
                        -----------------------------------------
Total Dipole Moment    :     -0.00000      -0.00000       0.00000
                        -----------------------------------------
Magnitude (a.u.)       :      0.00000
Magnitude (Debye)      :      0.00000



--------------------
Rotational spectrum 
--------------------
 
Rotational constants in cm-1:     0.000000     0.000000     0.000000 
Rotational constants in MHz :     0.000000     0.000000     0.000000 

 Dipole components along the rotational axes: 
x,y,z [a.u.] :    -0.000000    -0.000000     0.000000 
x,y,z [Debye]:    -0.000000    -0.000000     0.000000 

 

                           *** MDCI DENSITY ***

------------------------------------------------------------------------------
                       ORCA ELECTRIC PROPERTIES CALCULATION
------------------------------------------------------------------------------

Dipole Moment Calculation                       ... on
Quadrupole Moment Calculation                   ... off
Polarizability Calculation                      ... off
GBWName                                         ... 28_Ni.gbw
Electron density file                           ... 28_Ni.mdcip
The origin for moment calculation is the CENTER OF MASS  = ( 0.000000,  0.000000  0.000000)

-------------
DIPOLE MOMENT
-------------
                                X             Y             Z
Electronic contribution:      0.00000      -0.00000       0.00000
Nuclear contribution   :      0.00000       0.00000       0.00000
                        -----------------------------------------
Total Dipole Moment    :      0.00000      -0.00000       0.00000
                        -----------------------------------------
Magnitude (a.u.)       :      0.00000
Magnitude (Debye)      :      0.00000



--------------------
Rotational spectrum 
--------------------
 
Rotational constants in cm-1:     0.000000     0.000000     0.000000 
Rotational constants in MHz :     0.000000     0.000000     0.000000 

 Dipole components along the rotational axes: 
x,y,z [a.u.] :     0.000000    -0.000000     0.000000 
x,y,z [Debye]:     0.000000    -0.000000     0.000000 

 

Timings for individual modules:

Sum of individual times         ...        8.834 sec (=   0.147 min)
GTO integral calculation        ...        0.927 sec (=   0.015 min)  10.5 %
SCF iterations                  ...        3.881 sec (=   0.065 min)  43.9 %
MDCI module                     ...        4.026 sec (=   0.067 min)  45.6 %
                             ****ORCA TERMINATED NORMALLY****
TOTAL RUN TIME: 0 days 0 hours 0 minutes 9 seconds 646 msec
