
                                 *****************
                                 * O   R   C   A *
                                 *****************

           --- An Ab Initio, DFT and Semiempirical electronic structure package ---

                  #######################################################
                  #                        -***-                        #
                  #          Department of theory and spectroscopy      #
                  #               Directorship: Frank Neese             #
                  #        Max Planck Institute fuer Kohlenforschung    #
                  #                Kaiser Wilhelm Platz 1               #
                  #                 D-45470 Muelheim/Ruhr               #
                  #                      Germany                        #
                  #                                                     #
                  #                  All rights reserved                #
                  #                        -***-                        #
                  #######################################################


                         Program Version 4.2.0 -  RELEASE  -


 With contributions from (in alphabetic order):
   Daniel Aravena         : Magnetic Suceptibility
   Michael Atanasov       : Ab Initio Ligand Field Theory (pilot matlab implementation)
   Alexander A. Auer      : GIAO ZORA, VPT2
   Ute Becker             : Parallelization
   Giovanni Bistoni       : ED, misc. LED, open-shell LED, HFLED
   Martin Brehm           : Molecular dynamics
   Dmytro Bykov           : SCF Hessian
   Vijay G. Chilkuri      : MRCI spin determinant printing, contributions to CSF-ICE
   Dipayan Datta          : RHF DLPNO-CCSD density
   Achintya Kumar Dutta   : EOM-CC, STEOM-CC
   Dmitry Ganyushin       : Spin-Orbit,Spin-Spin,Magnetic field MRCI
   Miquel Garcia          : C-PCM Hessian, Gaussian charge scheme
   Yang Guo               : DLPNO-NEVPT2, CIM, IAO-localization
   Andreas Hansen         : Spin unrestricted coupled pair/coupled cluster methods
   Benjamin Helmich-Paris : CASSCF linear response (MC-RPA)
   Lee Huntington         : MR-EOM, pCC
   Robert Izsak           : Overlap fitted RIJCOSX, COSX-SCS-MP3, EOM
   Christian Kollmar      : KDIIS, OOCD, Brueckner-CCSD(T), CCSD density
   Simone Kossmann        : Meta GGA functionals, TD-DFT gradient, OOMP2, MP2 Hessian
   Martin Krupicka        : AUTO-CI
   Lucas Lang             : DCDCAS
   Dagmar Lenk            : GEPOL surface, SMD
   Dimitrios Liakos       : Extrapolation schemes; Compound Job, initial MDCI parallelization
   Dimitrios Manganas     : Further ROCIS development; embedding schemes
   Dimitrios Pantazis     : SARC Basis sets
   Taras Petrenko         : DFT Hessian,TD-DFT gradient, ASA, ECA, R-Raman, ABS, FL, XAS/XES, NRVS
   Peter Pinski           : DLPNO-MP2, DLPNO-MP2 Gradient
   Christoph Reimann      : Effective Core Potentials
   Marius Retegan         : Local ZFS, SOC
   Christoph Riplinger    : Optimizer, TS searches, QM/MM, DLPNO-CCSD(T), (RO)-DLPNO pert. Triples
   Tobias Risthaus        : Range-separated hybrids, TD-DFT gradient, RPA, STAB
   Michael Roemelt        : Original ROCIS implementation
   Masaaki Saitow         : Open-shell DLPNO-CCSD energy and density
   Barbara Sandhoefer     : DKH picture change effects
   Avijit Sen             : IP-ROCIS
   Kantharuban Sivalingam : CASSCF convergence, NEVPT2, FIC-MRCI
   Bernardo de Souza      : ESD, SOC TD-DFT
   Georgi Stoychev        : AutoAux, RI-MP2 NMR
   Willem Van den Heuvel  : Paramagnetic NMR
   Boris Wezisla          : Elementary symmetry handling
   Frank Wennmohs         : Technical directorship


 We gratefully acknowledge several colleagues who have allowed us to
 interface, adapt or use parts of their codes:
   Stefan Grimme, W. Hujo, H. Kruse,             : VdW corrections, initial TS optimization,
                  C. Bannwarth                     DFT functionals, gCP, sTDA/sTD-DF
   Ed Valeev, F. Pavosevic, A. Kumar             : LibInt (2-el integral package), F12 methods
   Garnet Chan, S. Sharma, J. Yang, R. Olivares  : DMRG
   Ulf Ekstrom                                   : XCFun DFT Library
   Mihaly Kallay                                 : mrcc  (arbitrary order and MRCC methods)
   Andreas Klamt, Michael Diedenhofen            : otool_cosmo (COSMO solvation model)
   Jiri Pittner, Ondrej Demel                    : Mk-CCSD
   Frank Weinhold                                : gennbo (NPA and NBO analysis)
   Christopher J. Cramer and Donald G. Truhlar   : smd solvation model
   Lars Goerigk                                  : TD-DFT with DH, B97 family of functionals
   V. Asgeirsson, H. Jonsson                     : NEB implementation
   FAccTs GmbH                                   : IRC, NEB, NEB-TS, Multilevel, MM, QM/MM, CI optimization
   S Lehtola, MJT Oliveira, MAL Marques          : LibXC Library


 Your calculation uses the libint2 library for the computation of 2-el integrals
 For citations please refer to: http://libint.valeyev.net

 Your ORCA version has been built with support for libXC version: 4.2.3
 For citations please refer to: https://tddft.org/programs/libxc/

 This ORCA versions uses:
   CBLAS   interface :  Fast vector & matrix operations
   LAPACKE interface :  Fast linear algebra routines
   SCALAPACK package :  Parallel linear algebra routines


----- Orbital basis set information -----
Your calculation utilizes the basis: def2-SVP
   F. Weigend and R. Ahlrichs, Phys. Chem. Chem. Phys. 7, 3297 (2005).

================================================================================
                                        WARNINGS
                       Please study these warnings very carefully!
================================================================================


WARNING: your system is open-shell and RHF/RKS was chosen
  ===> : WILL SWITCH to UHF/UKS


WARNING: MDCI localization with Augmented Hessian Foster-Boys
  ===> : Switching off randomization!

WARNING: Post HF methods need fully converged wavefunctions
  ===> : Setting SCFConvForced true
         You can overwrite this default with %scf ConvForced false 


INFO   : the flag for use of LIBINT has been found!

================================================================================
                                       INPUT FILE
================================================================================
NAME = 29_Cu.in
|  1> #
|  2> # 29_Cu CCSD(T)/Def2-SVP
|  3> #
|  4> ! CCSD(T) Def2-SVP tightscf
|  5> 
|  6> *xyz 0 2
|  7>  Cu 0.0 0.0 0.0
|  8> *
|  9> 
| 10> %maxcore 5000 
| 11> 
| 12> %pal
| 13> nprocs 24
| 14> end
| 15> 
| 16> 
| 17>                          ****END OF INPUT****
================================================================================

                       ****************************
                       * Single Point Calculation *
                       ****************************

---------------------------------
CARTESIAN COORDINATES (ANGSTROEM)
---------------------------------
  Cu     0.000000    0.000000    0.000000

----------------------------
CARTESIAN COORDINATES (A.U.)
----------------------------
  NO LB      ZA    FRAG     MASS         X           Y           Z
   0 Cu   29.0000    0    63.550    0.000000    0.000000    0.000000

--------------------------------
INTERNAL COORDINATES (ANGSTROEM)
--------------------------------
 Cu     0   0   0     0.000000000000     0.00000000     0.00000000

---------------------------
INTERNAL COORDINATES (A.U.)
---------------------------
 Cu     0   0   0     0.000000000000     0.00000000     0.00000000

---------------------
BASIS SET INFORMATION
---------------------
There are 1 groups of distinct atoms

 Group   1 Type Cu  : 14s9p5d1f contracted to 5s3p2d1f pattern {63311/531/41/1}

Atom   0Cu   basis set group =>   1


           ************************************************************
           *        Program running with 24 parallel MPI-processes    *
           *              working on a common directory               *
           ************************************************************
------------------------------------------------------------------------------
                           ORCA GTO INTEGRAL CALCULATION
------------------------------------------------------------------------------

                         BASIS SET STATISTICS AND STARTUP INFO

 # of primitive gaussian shells          ...   29
 # of primitive gaussian functions       ...   73
 # of contracted shells                  ...   11
 # of contracted basis functions         ...   31
 Highest angular momentum                ...    3
 Maximum contraction depth               ...    6
 Integral package used                   ... LIBINT
 Integral threshhold            Thresh   ...  2.500e-11
 Primitive cut-off              TCut     ...  2.500e-12


------------------------------ INTEGRAL EVALUATION ----------------------------


 * One electron integrals 
 Pre-screening matrix                    ... done
 Shell pair data                         ... done (   0.000 sec)



           ************************************************************
           *        Program running with 24 parallel MPI-processes    *
           *              working on a common directory               *
           ************************************************************
-------------------------------------------------------------------------------
                                 ORCA SCF
-------------------------------------------------------------------------------

------------
SCF SETTINGS
------------
Hamiltonian:
 Ab initio Hamiltonian  Method          .... Hartree-Fock(GTOs)


General Settings:
 Integral files         IntName         .... 29_Cu
 Hartree-Fock type      HFTyp           .... UHF
 Total Charge           Charge          ....    0
 Multiplicity           Mult            ....    2
 Number of Electrons    NEL             ....   29
 Basis Dimension        Dim             ....   31
 Nuclear Repulsion      ENuc            ....      0.0000000000 Eh

Convergence Acceleration:
 DIIS                   CNVDIIS         .... on
   Start iteration      DIISMaxIt       ....    12
   Startup error        DIISStart       ....  0.200000
   # of expansion vecs  DIISMaxEq       ....     5
   Bias factor          DIISBfac        ....   1.050
   Max. coefficient     DIISMaxC        ....  10.000
 Newton-Raphson         CNVNR           .... off
 SOSCF                  CNVSOSCF        .... off
 Level Shifting         CNVShift        .... on
   Level shift para.    LevelShift      ....    0.2500
   Turn off err/grad.   ShiftErr        ....    0.0010
 Zerner damping         CNVZerner       .... off
 Static damping         CNVDamp         .... on
   Fraction old density DampFac         ....    0.7000
   Max. Damping (<1)    DampMax         ....    0.9800
   Min. Damping (>=0)   DampMin         ....    0.0000
   Turn off err/grad.   DampErr         ....    0.1000
 Fernandez-Rico         CNVRico         .... off

SCF Procedure:
 Maximum # iterations   MaxIter         ....   125
 SCF integral mode      SCFMode         .... Direct
   Integral package                     .... LIBINT
 Reset frequency        DirectResetFreq ....    20
 Integral Threshold     Thresh          ....  2.500e-11 Eh
 Primitive CutOff       TCut            ....  2.500e-12 Eh

Convergence Tolerance:
 Convergence Check Mode ConvCheckMode   .... Total+1el-Energy
 Convergence forced     ConvForced      .... 1
 Energy Change          TolE            ....  1.000e-08 Eh
 1-El. energy change                    ....  1.000e-05 Eh
 DIIS Error             TolErr          ....  5.000e-07


Diagonalization of the overlap matrix:
Smallest eigenvalue                        ... 1.388e-01
Time for diagonalization                   ...    0.001 sec
Threshold for overlap eigenvalues          ... 1.000e-08
Number of eigenvalues below threshold      ... 0
Time for construction of square roots      ...    0.010 sec
Total time needed                          ...    0.010 sec

-------------------
DFT GRID GENERATION
-------------------

General Integration Accuracy     IntAcc      ...  4.340
Radial Grid Type                 RadialGrid  ... Gauss-Chebyshev
Angular Grid (max. acc.)         AngularGrid ... Lebedev-110
Angular grid pruning method      GridPruning ... 3 (G Style)
Weight generation scheme         WeightScheme... Becke
Basis function cutoff            BFCut       ...    1.0000e-11
Integration weight cutoff        WCut        ...    1.0000e-14
Grids for H and He will be reduced by one unit

# of grid points (after initial pruning)     ...   2912 (   0.1 sec)
# of grid points (after weights+screening)   ...   2912 (   0.0 sec)
Grid point division into batches done        ...    0.0 sec
Reduced shell lists constructed in    0.0 sec

Total number of grid points                  ...     2912
Total number of batches                      ...       46
Average number of points per batch           ...       63
Average number of grid points per atom       ...     2912
Average number of shells per batch           ...     2.67 (24.24%)
Average number of basis functions per batch  ...     6.67 (21.51%)
Average number of large shells per batch     ...     2.00 (75.00%)
Average number of large basis fcns per batch ...     3.33 (50.00%)
Maximum spatial batch extension              ...  17.39, 26.34, 26.34 au
Average spatial batch extension              ...   0.76,  1.15,  1.15 au

Time for grid setup =    0.149 sec

------------------------------
INITIAL GUESS: MODEL POTENTIAL
------------------------------
Loading Hartree-Fock densities                     ... done
Calculating cut-offs                               ... done
Setting up the integral package                    ... done
Initializing the effective Hamiltonian             ... done
Starting the Coulomb interaction                   ... done (   0.0 sec)
Reading the grid                                   ... done
Mapping shells                                     ... done
Starting the XC term evaluation                    ... done (   0.0 sec)
Transforming the Hamiltonian                       ... done (   0.0 sec)
Diagonalizing the Hamiltonian                      ... done (   0.0 sec)
Back transforming the eigenvectors                 ... done (   0.0 sec)
Now organizing SCF variables                       ... done
                      ------------------
                      INITIAL GUESS DONE (   0.3 sec)
                      ------------------
--------------
SCF ITERATIONS
--------------
ITER       Energy         Delta-E        Max-DP      RMS-DP      [F,P]     Damp
               ***  Starting incremental Fock matrix formation  ***
  0  -1638.6696484213   0.000000000000 0.08223317  0.00232221  0.0970647 0.7000
  1  -1638.6750817557  -0.005433334401 0.09114999  0.00244148  0.0463727 0.7000
                               ***Turning on DIIS***
  2  -1638.6783149446  -0.003233188857 0.27216319  0.00716755  0.0229306 0.0000
  3  -1638.3523863830   0.325928561566 0.05674326  0.00154461  0.0243377 0.0000
  4  -1638.6914800333  -0.339093650298 0.06804182  0.00182028  0.0069329 0.0000
  5  -1638.7449228090  -0.053442775703 0.06479066  0.00176437  0.0046613 0.0000
  6  -1638.7436008592   0.001321949761 0.03568524  0.00099051  0.0023801 0.0000
  7  -1638.7180851456   0.025515713637 0.01550898  0.00043588  0.0010452 0.0000
  8  -1638.7018177096   0.016267436007 0.01090531  0.00030905  0.0004437 0.0000
  9  -1638.6885479715   0.013269738103 0.00032354  0.00001054  0.0000282 0.0000
 10  -1638.6887320839  -0.000184112403 0.00005478  0.00000381  0.0000085 0.0000
 11  -1638.6886316387   0.000100445179 0.00003557  0.00000318  0.0000043 0.0000
                            ***DIIS convergence achieved***

               *****************************************************
               *                     SUCCESS                       *
               *           SCF CONVERGED AFTER  12 CYCLES          *
               *****************************************************


----------------
TOTAL SCF ENERGY
----------------

Total Energy       :        -1638.68858761 Eh          -44590.98343 eV

Components:
Nuclear Repulsion  :            0.00000000 Eh               0.00000 eV
Electronic Energy  :        -1638.68858761 Eh          -44590.98343 eV
One Electron Energy:        -2289.96090592 Eh          -62313.00418 eV
Two Electron Energy:          651.27231831 Eh           17722.02075 eV

Virial components:
Potential Energy   :        -3277.12464974 Eh          -89175.09529 eV
Kinetic Energy     :         1638.43606213 Eh           44584.11186 eV
Virial Ratio       :            2.00015413


---------------
SCF CONVERGENCE
---------------

  Last Energy change         ...    4.4024e-05  Tolerance :   1.0000e-08
  Last MAX-Density change    ...    3.7032e-06  Tolerance :   1.0000e-07
  Last RMS-Density change    ...    3.5432e-07  Tolerance :   5.0000e-09
  Last DIIS Error            ...    4.9310e-07  Tolerance :   5.0000e-07

             **** THE GBW FILE WAS UPDATED (29_Cu.gbw) ****
             **** DENSITY FILE WAS UPDATED (29_Cu.scfp) ****
             **** ENERGY FILE WAS UPDATED (29_Cu.en.tmp) ****
----------------------
UHF SPIN CONTAMINATION
----------------------

Expectation value of <S**2>     :     0.750546
Ideal value S*(S+1) for S=0.5   :     0.750000
Deviation                       :     0.000546

             **** THE GBW FILE WAS UPDATED (29_Cu.gbw) ****
             **** DENSITY FILE WAS UPDATED (29_Cu.scfp) ****
----------------
ORBITAL ENERGIES
----------------
                 SPIN UP ORBITALS
  NO   OCC          E(Eh)            E(eV) 
   0   1.0000    -328.752985     -8945.8235 
   1   1.0000     -40.789376     -1109.9353 
   2   1.0000     -35.598624      -968.6878 
   3   1.0000     -35.598624      -968.6878 
   4   1.0000     -35.598624      -968.6878 
   5   1.0000      -4.990696      -135.8037 
   6   1.0000      -3.303162       -89.8836 
   7   1.0000      -3.303162       -89.8836 
   8   1.0000      -3.303162       -89.8836 
   9   1.0000      -0.470389       -12.7999 
  10   1.0000      -0.470389       -12.7999 
  11   1.0000      -0.470389       -12.7999 
  12   1.0000      -0.470389       -12.7999 
  13   1.0000      -0.470389       -12.7999 
  14   1.0000      -0.230639        -6.2760 
  15   0.0000       0.141247         3.8435 
  16   0.0000       0.221358         6.0235 
  17   0.0000       0.221358         6.0235 
  18   0.0000       0.221358         6.0235 
  19   0.0000       1.336554        36.3695 
  20   0.0000       1.336554        36.3695 
  21   0.0000       1.336554        36.3695 
  22   0.0000       1.336554        36.3695 
  23   0.0000       1.336554        36.3695 
  24   0.0000       6.361844       173.1146 
  25   0.0000       6.361844       173.1146 
  26   0.0000       6.361844       173.1146 
  27   0.0000       6.361844       173.1146 
  28   0.0000       6.361844       173.1146 
  29   0.0000       6.361844       173.1146 
  30   0.0000       6.361844       173.1146 

                 SPIN DOWN ORBITALS
  NO   OCC          E(Eh)            E(eV) 
   0   1.0000    -328.751004     -8945.7696 
   1   1.0000     -40.788829     -1109.9205 
   2   1.0000     -35.599956      -968.7241 
   3   1.0000     -35.599956      -968.7241 
   4   1.0000     -35.599956      -968.7241 
   5   1.0000      -4.987019      -135.7037 
   6   1.0000      -3.304818       -89.9287 
   7   1.0000      -3.304818       -89.9287 
   8   1.0000      -3.304818       -89.9287 
   9   1.0000      -0.470817       -12.8116 
  10   1.0000      -0.470817       -12.8116 
  11   1.0000      -0.470817       -12.8116 
  12   1.0000      -0.470817       -12.8116 
  13   1.0000      -0.470817       -12.8116 
  14   0.0000       0.017703         0.4817 
  15   0.0000       0.190650         5.1878 
  16   0.0000       0.286482         7.7956 
  17   0.0000       0.286482         7.7956 
  18   0.0000       0.286482         7.7956 
  19   0.0000       1.355971        36.8978 
  20   0.0000       1.355971        36.8978 
  21   0.0000       1.355971        36.8978 
  22   0.0000       1.355971        36.8978 
  23   0.0000       1.355971        36.8978 
  24   0.0000       6.361078       173.0937 
  25   0.0000       6.361078       173.0937 
  26   0.0000       6.361078       173.0937 
  27   0.0000       6.361078       173.0937 
  28   0.0000       6.361078       173.0937 
  29   0.0000       6.361078       173.0937 
  30   0.0000       6.361078       173.0937 

                    ********************************
                    * MULLIKEN POPULATION ANALYSIS *
                    ********************************

--------------------------------------------
MULLIKEN ATOMIC CHARGES AND SPIN POPULATIONS
--------------------------------------------
   0 Cu:    0.000000    1.000000
Sum of atomic charges         :    0.0000000
Sum of atomic spin populations:    1.0000000

-----------------------------------------------------
MULLIKEN REDUCED ORBITAL CHARGES AND SPIN POPULATIONS
-----------------------------------------------------
CHARGE
  0 Cus       :     7.000000  s :     7.000000
      pz      :     4.000000  p :    12.000000
      px      :     4.000000
      py      :     4.000000
      dz2     :     2.000000  d :    10.000000
      dxz     :     2.000000
      dyz     :     2.000000
      dx2y2   :     2.000000
      dxy     :     2.000000
      f0      :     0.000000  f :     0.000000
      f+1     :     0.000000
      f-1     :     0.000000
      f+2     :     0.000000
      f-2     :     0.000000
      f+3     :     0.000000
      f-3     :     0.000000

SPIN
  0 Cus       :     1.000000  s :     1.000000
      pz      :     0.000000  p :     0.000000
      px      :     0.000000
      py      :     0.000000
      dz2     :    -0.000000  d :    -0.000000
      dxz     :    -0.000000
      dyz     :    -0.000000
      dx2y2   :    -0.000000
      dxy     :     0.000000
      f0      :     0.000000  f :     0.000000
      f+1     :     0.000000
      f-1     :     0.000000
      f+2     :     0.000000
      f-2     :    -0.000000
      f+3     :     0.000000
      f-3     :     0.000000


                     *******************************
                     * LOEWDIN POPULATION ANALYSIS *
                     *******************************

-------------------------------------------
LOEWDIN ATOMIC CHARGES AND SPIN POPULATIONS
-------------------------------------------
   0 Cu:    0.000000    1.000000

----------------------------------------------------
LOEWDIN REDUCED ORBITAL CHARGES AND SPIN POPULATIONS
----------------------------------------------------
CHARGE
  0 Cus       :     7.000000  s :     7.000000
      pz      :     4.000000  p :    12.000000
      px      :     4.000000
      py      :     4.000000
      dz2     :     2.000000  d :    10.000000
      dxz     :     2.000000
      dyz     :     2.000000
      dx2y2   :     2.000000
      dxy     :     2.000000
      f0      :     0.000000  f :     0.000000
      f+1     :     0.000000
      f-1     :     0.000000
      f+2     :     0.000000
      f-2     :     0.000000
      f+3     :     0.000000
      f-3     :     0.000000

SPIN
  0 Cus       :     1.000000  s :     1.000000
      pz      :     0.000000  p :     0.000000
      px      :     0.000000
      py      :     0.000000
      dz2     :    -0.000000  d :    -0.000000
      dxz     :    -0.000000
      dyz     :    -0.000000
      dx2y2   :    -0.000000
      dxy     :     0.000000
      f0      :     0.000000  f :     0.000000
      f+1     :     0.000000
      f-1     :     0.000000
      f+2     :     0.000000
      f-2     :    -0.000000
      f+3     :     0.000000
      f-3     :     0.000000


                      *****************************
                      * MAYER POPULATION ANALYSIS *
                      *****************************

  NA   - Mulliken gross atomic population
  ZA   - Total nuclear charge
  QA   - Mulliken gross atomic charge
  VA   - Mayer's total valence
  BVA  - Mayer's bonded valence
  FA   - Mayer's free valence

  ATOM       NA         ZA         QA         VA         BVA        FA
  0 Cu    29.0000    29.0000     0.0000     1.0011     0.0000     1.0011

  Mayer bond orders larger than 0.100000


-------
TIMINGS
-------

Total SCF time: 0 days 0 hours 0 min 3 sec 

Total time                  ....       3.298 sec
Sum of individual times     ....       2.683 sec  ( 81.3%)

Fock matrix formation       ....       1.969 sec  ( 59.7%)
Diagonalization             ....       0.046 sec  (  1.4%)
Density matrix formation    ....       0.001 sec  (  0.0%)
Population analysis         ....       0.155 sec  (  4.7%)
Initial guess               ....       0.135 sec  (  4.1%)
Orbital Transformation      ....       0.000 sec  (  0.0%)
Orbital Orthonormalization  ....       0.000 sec  (  0.0%)
DIIS solution               ....       0.228 sec  (  6.9%)


           ************************************************************
           *        Program running with 24 parallel MPI-processes    *
           *              working on a common directory               *
           ************************************************************


------------------------------------------------------------------------------- 
                              ORCA-MATRIX DRIVEN CI                            
------------------------------------------------------------------------------- 

--------------------------------
AUTOMATIC CHOICE OF INCORE LEVEL
--------------------------------

Memory available                           ...   2500.00 MB
Memory needed for S+T                      ...      0.32 MB
Memory needed for J+K                      ...      0.66 MB
Memory needed for DIIS                     ...      4.51 MB
Memory needed for 3-ext                    ...      0.31 MB
Memory needed for 4-ext                    ...      0.27 MB
Memory needed for triples                  ...      0.16 MB
 -> Final InCoreLevel    ... 5
 -> check shows that triples correction can be computed


Wavefunction type
-----------------
Correlation treatment                      ...      CCSD     
Single excitations                         ... ON
Orbital optimization                       ... OFF
Calculation of Z vector                    ... OFF
Calculation of Brueckner orbitals          ... OFF
Perturbative triple excitations            ... ON
Calculation of F12 correction              ... OFF
Frozen core treatment                      ... chemical core (10 el)
Reference Wavefunction                     ... UHF
  Alpha-MOs occ    :     5 ...   14 ( 10 MO's/ 10 electrons)
  Beta-MOs occ     :     5 ...   13 (  9 MO's/  9 electrons)
  Alpha-MOs virt   :    15 ...   30 ( 16 MO's              )
  Beta-MOs virt    :    14 ...   30 ( 17 MO's              )
Number of AO's                             ...     31
Number of electrons                        ...     29
Number of correlated electrons             ...     19

Algorithmic settings
--------------------
Integral transformation                    ... AO direct full transformation
K(C) Formation                             ... FULL-MO TRAFO
Maximum number of iterations               ...        50
Convergence tolerance (max. residuum)      ... 1.000e-05
Level shift for amplitude update           ... 2.000e-01
Maximum number of DIIS vectors             ...         7
DIIS turned on at iteration                ...         0
Damping before turning on DIIS             ...     0.500
Damping after turning on DIIS              ...     0.000
Pair specific amplitude update             ... OFF
Natural orbital iterations                 ... OFF
Perturbative natural orbital generation    ... OFF
Printlevel                                 ... 2

Memory handling:
----------------
Maximum memory for working arrays          ...   2500 MB
Data storage in matrix containers          ... UNCOMPRESSED
Data type for integral storage             ... DOUBLE
In-Core Storage of quantities:
   Amplitudes+Sigma Vector      ... YES
   J+K operators                ... YES
   DIIS vectors                 ... YES
   3-external integrals         ... YES
   4-external integrals         ... YES


Initializing the integral package          ... done
Warning: reference  - re-canonicalizations have been set to INT 1 VIRT 1

--------------------------
UNRESTRICTED FOCK OPERATOR
--------------------------

<ss|ss>:          120 b            0 skpd (  0.0%)    0.000 s ( 0.001 ms/b)
<ss|sp>:          225 b            0 skpd (  0.0%)    0.000 s ( 0.001 ms/b)
<ss|sd>:          150 b            0 skpd (  0.0%)    0.000 s ( 0.001 ms/b)
<ss|sf>:           75 b            0 skpd (  0.0%)    0.000 s ( 0.003 ms/b)
<ss|pp>:           90 b            0 skpd (  0.0%)    0.000 s ( 0.003 ms/b)
<ss|pd>:           90 b            0 skpd (  0.0%)    0.000 s ( 0.004 ms/b)
<ss|pf>:           45 b            0 skpd (  0.0%)    0.000 s ( 0.003 ms/b)
<ss|dd>:           45 b            0 skpd (  0.0%)    0.000 s ( 0.010 ms/b)
<ss|df>:           30 b            0 skpd (  0.0%)    0.000 s ( 0.007 ms/b)
<ss|ff>:           15 b            0 skpd (  0.0%)    0.000 s ( 0.007 ms/b)
<sp|sp>:          120 b            0 skpd (  0.0%)    0.000 s ( 0.003 ms/b)
<sp|sd>:          150 b            0 skpd (  0.0%)    0.000 s ( 0.002 ms/b)
<sp|sf>:           75 b            0 skpd (  0.0%)    0.000 s ( 0.005 ms/b)
<sp|pp>:           90 b            0 skpd (  0.0%)    0.001 s ( 0.006 ms/b)
<sp|pd>:           90 b            0 skpd (  0.0%)    0.001 s ( 0.007 ms/b)
<sp|pf>:           45 b            0 skpd (  0.0%)    0.000 s ( 0.007 ms/b)
<sp|dd>:           45 b            0 skpd (  0.0%)    0.001 s ( 0.021 ms/b)
<sp|df>: done
<sp|ff>:           15 b           13 skpd ( 86.7%)    0.000 s ( 0.025 ms/b)
<sd|sd>:           55 b            0 skpd (  0.0%)    0.000 s ( 0.005 ms/b)
<sd|sf>:           50 b            0 skpd (  0.0%)    0.000 s ( 0.008 ms/b)
<sd|pp>:           60 b            0 skpd (  0.0%)    0.001 s ( 0.010 ms/b)
<sd|pd>:           60 b            0 skpd (  0.0%)    0.001 s ( 0.014 ms/b)
<sd|pf>: done
<sd|dd>:           30 b            0 skpd (  0.0%)    0.001 s ( 0.042 ms/b)
<sd|df>:           20 b            0 skpd (  0.0%)    0.001 s ( 0.033 ms/b)
<sd|ff>: done
<sf|sf>:           15 b            0 skpd (  0.0%)    0.000 s ( 0.005 ms/b)
<sf|pp>:           30 b            0 skpd (  0.0%)    0.000 s ( 0.009 ms/b)
<sf|pd>: done
<sf|pf>: done
<sf|dd>:           15 b            0 skpd (  0.0%)    0.001 s ( 0.040 ms/b)
<sf|df>: done
<sf|ff>: done
<pp|pp>:           21 b            0 skpd (  0.0%)    0.001 s ( 0.025 ms/b)
<pp|pd>:           36 b            0 skpd (  0.0%)    0.001 s ( 0.021 ms/b)
<pp|pf>:           18 b            0 skpd (  0.0%)    0.000 s ( 0.019 ms/b)
<pp|dd>:           18 b            0 skpd (  0.0%)    0.001 s ( 0.061 ms/b)
<pp|df>:           12 b            0 skpd (  0.0%)    0.001 s ( 0.047 ms/b)
<pp|ff>:            6 b            0 skpd (  0.0%)    0.000 s ( 0.055 ms/b)
<pd|pd>:           21 b            0 skpd (  0.0%)    0.001 s ( 0.047 ms/b)
<pd|pf>:           18 b            0 skpd (  0.0%)    0.001 s ( 0.033 ms/b)
<pd|dd>:           18 b            0 skpd (  0.0%)    0.002 s ( 0.110 ms/b)
<pd|df>:           12 b            0 skpd (  0.0%)    0.001 s ( 0.090 ms/b)
<pd|ff>:            6 b            5 skpd ( 83.3%)    0.000 s ( 0.170 ms/b)
<pf|pf>:            6 b            0 skpd (  0.0%)    0.000 s ( 0.037 ms/b)
<pf|dd>:            9 b            0 skpd (  0.0%)    0.001 s ( 0.090 ms/b)
<pf|df>: done
<pf|ff>:            3 b            2 skpd ( 66.7%)    0.000 s ( 0.132 ms/b)
<dd|dd>:            6 b            0 skpd (  0.0%)    0.002 s ( 0.304 ms/b)
<dd|df>:            6 b            0 skpd (  0.0%)    0.001 s ( 0.170 ms/b)
<dd|ff>:            3 b            0 skpd (  0.0%)    0.001 s ( 0.195 ms/b)
<df|df>:            3 b            0 skpd (  0.0%)    0.001 s ( 0.194 ms/b)
<df|ff>: done
<ff|ff>: done
Recanonicalizing the internal orbitals
Recanonicalizing the virtual orbitals
Time needed for Fock operator              ...            5.358 sec
Reference energy                           ...  -1638.688583830
Warning: for UHF the TrafoType has to be JK
Warning: for UHF the K(C)-option cannot be MO but must be AOX

-------------------------------
PARTIAL EXCHANGE TRANSFORMATION
-------------------------------

Transformation type                        ... two-operators
Generation of integrals (i,mue|j,nue)      ... ON
Generation of integrals (mue,kappa|nue,tau)... ON
Generation of integrals (i,mue|a,nue)      ... ON
Dimension of the basis                     ...   31
Number of internal alpha-MOs               ...   10 (   5-  14)
Number of internal beta-MOs                ...    9 (   5-  13)
Number of external alpha-MOs               ...   16 (  15-  30)
Number of external beta-MOs                ...   17 (  14-  30)
Pair cutoff                                ... 0.000e+00 Eh
Number of AO pairs in the trafo            ...  496
Total Number of distinct AO pairs          ...  496
Memory devoted for trafo                   ... 2500.0 MB 
Max. Number of MO pairs treated together   ... 340978      
Number Format for Storage                  ... Double (8 Byte)
Integral package used                      ... LIBINT

Starting integral evaluation:
    ... done with AO integral generation
Closing buffer AOK[aa] ( 0.00 GB; CompressionRatio= 0.00)
Closing buffer AOK[bb] ( 0.00 GB; CompressionRatio= 0.00)
Closing buffer AOK[ab] ( 0.00 GB; CompressionRatio= 0.00)
Closing buffer AOK[ba] ( 0.00 GB; CompressionRatio= 0.00)
Collecting buffer AOK 
Closing buffer IAAO1[aa] ( 0.00 GB; CompressionRatio= 0.00)
Closing buffer IAAO1[bb] ( 0.00 GB; CompressionRatio= 0.00)
Closing buffer IAAO1[ab] ( 0.00 GB; CompressionRatio= 0.00)
Closing buffer IAAO1[ba] ( 0.00 GB; CompressionRatio= 0.00)
Closing buffer IAAO2[aa] ( 0.00 GB; CompressionRatio= 0.00)
Closing buffer IAAO2[bb] ( 0.00 GB; CompressionRatio= 0.00)
Closing buffer IAAO2[ab] ( 0.00 GB; CompressionRatio= 0.00)
Closing buffer IAAO2[ba] ( 0.00 GB; CompressionRatio= 0.00)
Collecting buffer IAAO 
Closing buffer PRQS    ( 0.00 GB; CompressionRatio= 0.00)
Collecting buffer PRQS 
Number of alpha/alpha MO pairs in trafo    ...   55
Number of beta /beta  MO pairs in trafo    ...   45
Number of alpha/ beta MO pairs in trafo    ...   90
------------------------
SORTING OF (i,mue|j,nue)
------------------------

SORTING OF ALPHA/ALPHA PAIRS
IBATCH = 1 of  1
Closing buffer KAO[aa] ( 0.00 GB; CompressionRatio= 1.00)
Collecting buffer KAO 
SORTING OF BETA /BETA  PAIRS
IBATCH = 1 of  1
Closing buffer KAO[bb] ( 0.00 GB; CompressionRatio= 1.00)
Collecting buffer KAO 
SORTING OF ALPHA/BETA  PAIRS
IBATCH = 1 of  1
Closing buffer KAO[ab] ( 0.00 GB; CompressionRatio= 0.998441558442)
Collecting buffer KAO[ab] 
------------------------
SORTING OF (i,mue|a,nue)
------------------------

Number of alpha/alpha (i,a) pairs in trafo  ...  160
Number of beta /beta  (i,a) pairs in trafo  ...  153
Number of alpha/ beta (i,a) pairs in trafo  ...  170
Number of beta /alpha (i,a) pairs in trafo  ...  144
Setting up the alpha/alpha list             ... done
Setting up the beta /beta  list             ... done
Setting up the alpha/beta  list             ... done
Setting up the beta /alpha list             ... done
    ... Now sorting (i,mue|a,nue)integrals
    ... Integrals (i,b|a,c) will be made on the fly
SORTING OF ALPHA/ALPHA PAIRS
IBATCH = 1 of  1
Closing buffer IPAQ[aa]  0.00 GB; CompressionRatio= 1.00)
SORTING OF BETA /BETA  PAIRS
IBATCH = 1 of  1
Closing buffer IPAQ[bb]( 0.00 GB; CompressionRatio= 1.00)
SORTING OF ALPHA/BETA  PAIRS (NMatSort_ab=8)
IBATCH = 1 of  1
Closing buffer IPAQ[ab]( 0.00 GB; CompressionRatio= 1.00)
SORTING OF BETA/ALPHA  PAIRS
IBATCH = 1 of  1
Closing buffer IPAQ[ba]( 0.00 GB; CompressionRatio= 1.00)
N(AO-Batches) Done                         ...         0 
N(AO-Batches) Skipped                      ...         0 
N(IJ)-pairs Skipped                        ...         0 
TOTAL TIME for half transformation         ...     1.550 sec
AO-integral generation                     ...     0.000 sec
Half transformation                        ...     0.000 sec
K-integral sorting                         ...     0.665 sec
<ss|**>: 
------------------------------
PARTIAL COULOMB TRANSFORMATION
------------------------------

Transformation type                        ... two-operators
Dimension of the basis                     ...   31
Number of internal alpha-MOs               ...   10 (5-14)
Number of internal beta-MOs                ...    9 (5-13)
Pair cutoff                                ... 0.000e+00 Eh
Number of AO pairs included in the trafo   ...  496
Total Number of distinct AO pairs          ...  496
Memory devoted for trafo                   ... 2500.0 MB 
Max. Number of MO pairs treated together   ... 660645      
Max. Number of MOs treated per batch       ... 21311      
Number Format for Storage                  ... Double (8 Byte)
AO-integral source                         ... DIRECT
Integral package used                      ... LIBINT

Starting integral evaluation:
<sp|**>:          990 b        0 skpd     0.001 s (  0.001 ms/b)
<sd|**>:          990 b        0 skpd     0.007 s (  0.007 ms/b)
<sf|**>:          660 b        0 skpd     0.009 s (  0.013 ms/b)
<pp|**>:          330 b        0 skpd     0.007 s (  0.021 ms/b)
<pd|**>:          396 b        0 skpd     0.009 s (  0.024 ms/b)
<pf|**>:          396 b        0 skpd     0.018 s (  0.046 ms/b)
         198 b        0 skpd     0.018 s (  0.091 ms/b)
<dd|**>: <df|**>:          198 b        0 skpd     0.018 s (  0.090 ms/b)
         132 b        0 skpd     0.027 s (  0.208 ms/b)
<ff|**>:           66 b        0 skpd     0.017 s (  0.254 ms/b)
Closing buffer AOJ[aa] ( 0.00 GB; CompressionRatio= 0.97)
Closing buffer AOJ[bb] ( 0.00 GB; CompressionRatio= 0.00)
Collecting buffer AOJ 
    ... done with AO integral generation
Number of Alpha-MO pairs included          ...   55
Number of Beta-MO pairs included           ...   45
    ... Now sorting integrals
SORTING ALPHA/ALPHA PAIRS
IBATCH = 1 of  1
Closing buffer JAO[aa] ( 0.00 GB; CompressionRatio= 1.00)
SORTING BETA/BETA PAIRS
IBATCH = 1 of  1
Closing buffer JAO[bb] ( 0.00 GB; CompressionRatio= 1.00)
Collecting buffer JAO 
TOTAL TIME for half transformation         ...     0.344 sec
AO-integral generation                     ...     0.107 sec
Half transformation                        ...     0.025 sec
J-integral sorting                         ...     0.084 sec

-------------------------- SECOND HALF TRANSFORMATION -------------------------
Formation of (ij|kl),(ij|ka), (ij|ab)      ... ok (     0.122 sec)
Formation of (ik|jl),(ik|ja), (ia|jb)      ... ok (     0.185 sec)


-----------------------
SPIN UNRESTRICTED GUESS
-----------------------

Entering MDCI_UHF_Guess, Tailored=0
Spin-components of the MP2 energy:
EMP2(aa)=     -0.068000873
EMP2(bb)=     -0.063114611
EMP2(ab)=     -0.224128097

Initial guess performed in     0.004 sec
E(0)                                       ...  -1638.688583830
E(MP2)                                     ...     -0.355243581
Initial E(tot)                             ...  -1639.043827411
<T|T>                                      ...      0.068174934
Number of pairs included                   ... 171

------------------------------------------------
                  UHF COUPLED CLUSTER ITERATIONS
------------------------------------------------

Number of amplitudes to be optimized       ...        35580

Iter       E(tot)           E(Corr)          Delta-E          Residual     Time      <S|S>**1/2
  0  -1639.043827411     -0.355243581     -0.000000000      0.049012427    0.08      0.000000155
                           *** Turning on DIIS ***
  1  -1638.991255221     -0.302671391      0.052572190      0.015740439    0.06      0.053839284
  2  -1639.005593954     -0.317010124     -0.014338733      0.003050041    0.06      0.040992230
  3  -1639.005963654     -0.317379824     -0.000369699      0.002029009    0.06      0.043463409
  4  -1639.006453729     -0.317869898     -0.000490075      0.000870289    0.06      0.045271918
  5  -1639.006522558     -0.317938728     -0.000068830      0.000305738    0.06      0.046181089
  6  -1639.006532532     -0.317948702     -0.000009974      0.000097924    0.05      0.046514883
  7  -1639.006537902     -0.317954072     -0.000005369      0.000030744    0.05      0.046617650
  8  -1639.006538191     -0.317954361     -0.000000289      0.000006057    0.05      0.046656600
               --- The Coupled-Cluster iterations have converged ---

----------------------
COUPLED CLUSTER ENERGY
----------------------

E(0)                                       ...  -1638.688583830
E(CORR)                                    ...     -0.317954361
E(TOT)                                     ...  -1639.006538191
Singles norm <S|S>**1/2                    ...      0.046656600 ( 0.025360844, 0.021295756)  
T1 diagnostic                              ...      0.010703758                              

------------------
LARGEST AMPLITUDES
------------------
  11a-> 20a  10b-> 20b       0.032146
  10a-> 21a   9b-> 19b       0.030515
   9a-> 19a  11b-> 21b       0.028706
  14a-> 17a  13b-> 18b       0.028283
  14a-> 15a  -1a-> -1a       0.028267
  11a-> 20a  11b-> 21b       0.025840
  11a-> 20a   9b-> 19b       0.025294
  14a-> 16a  12b-> 16b       0.024678
  11a-> 20a  13b-> 22b       0.024476
   9a-> 19a   9b-> 19b       0.024338
  10a-> 21a  11b-> 21b       0.024184
   9a-> 19a  10b-> 20b       0.023502
  12a-> 22a  13b-> 22b       0.023446
  13a-> 23a  12b-> 23b       0.023446
  10a-> 21a  10b-> 20b       0.023163
   9a-> 19a  12b-> 23b       0.022945

----------------------
UHF TRIPLES CORRECTION (Algorithm 1)
----------------------

Multiplier for the singles contribution    ...      1.000000000

SPIN-CASE Alpha-Alpha-Alpha:
10% done
20% done
30% done
40% done
50% done
60% done
70% done
80% done
90% done


SPIN-CASE Beta-Beta-Beta:
10% done
20% done
30% done
40% done
50% done
60% done
70% done
80% done
90% done


SPIN-CASE Alpha-Alpha-Beta:
10% done
20% done
30% done
40% done
50% done
60% done
70% done
80% done
90% done


SPIN-CASE Beta-Beta-Alpha:
10% done
20% done
30% done
40% done
50% done
60% done
70% done
80% done
90% done


Triples Correction (T)                     ...     -0.014380031
    alpha-alpha-alpha ... -0.000695472 (  4.8%)
    alpha-alpha-beta  ... -0.006982424 ( 48.6%)
    alpha-beta -beta  ... -0.006155851 ( 42.8%)
    beta -beta -beta  ... -0.000546284 (  3.8%)
Scaling of triples based on CCSD energies (Peterson et al. Molecular Physics 113, 1551 (2015))
E(T*) = f*E(T) where f = E(F12-CCSD)/E(CCSD) 
f = CCSD (with F12)/ CCSD (without F12)    ...      1.000000000
Scaled triples correction (T)              ...     -0.014380031

Final correlation energy                   ...     -0.332334392
E(CCSD)                                    ...  -1639.006538191
E(CCSD(T))                                 ...  -1639.020918222



        !!!!!!!!!!!!!!!!!!!!!!!!!!!!!!!!!!!!!!!!!!!!!!!!!!!!!!!!!!!!!!!!!!!!!!!!!! 
        !  Warning: Densities are linearized densities                           !
        !!!!!!!!!!!!!!!!!!!!!!!!!!!!!!!!!!!!!!!!!!!!!!!!!!!!!!!!!!!!!!!!!!!!!!!!!! 

NORM  =      1.060607972 sqrt=     1.029858229
W(HF) =      0.942855444
------------------------------------------------------------------------------
                           ORCA POPULATION ANALYSIS
------------------------------------------------------------------------------
Input electron density              ... 29_Cu.mdcip
Input spin density                  ... 29_Cu.mdcir
BaseName (.gbw .S,...)              ... 29_Cu

                    ********************************
                    * MULLIKEN POPULATION ANALYSIS *
                    ********************************

------------------------------------------
MULLIKEN ATOMIC CHARGES AND SPIN DENSITIES
------------------------------------------
   0 Cu:   -0.000000    1.000000
Sum of atomic charges       :   -0.0000000
Sum of atomic spin densities:    1.0000000

---------------------------------------------------
MULLIKEN REDUCED ORBITAL CHARGES AND SPIN DENSITIES
---------------------------------------------------
CHARGE
  0 Cus       :     6.991787  s :     6.991787
      pz      :     4.004590  p :    12.013770
      px      :     4.004590
      py      :     4.004590
      dz2     :     1.995200  d :     9.975999
      dxz     :     1.995200
      dyz     :     1.995200
      dx2y2   :     1.995200
      dxy     :     1.995200
      f0      :     0.002635  f :     0.018444
      f+1     :     0.002635
      f-1     :     0.002635
      f+2     :     0.002635
      f-2     :     0.002635
      f+3     :     0.002635
      f-3     :     0.002635

SPIN
  0 Cus       :     0.990870  s :     0.990870
      pz      :     0.000299  p :     0.000896
      px      :     0.000299
      py      :     0.000299
      dz2     :     0.001663  d :     0.008314
      dxz     :     0.001663
      dyz     :     0.001663
      dx2y2   :     0.001663
      dxy     :     0.001663
      f0      :    -0.000011  f :    -0.000080
      f+1     :    -0.000011
      f-1     :    -0.000011
      f+2     :    -0.000011
      f-2     :    -0.000011
      f+3     :    -0.000011
      f-3     :    -0.000011


                     *******************************
                     * LOEWDIN POPULATION ANALYSIS *
                     *******************************

-----------------------------------------
LOEWDIN ATOMIC CHARGES AND SPIN DENSITIES
-----------------------------------------
   0 Cu:    0.000000    1.000000

--------------------------------------------------
LOEWDIN REDUCED ORBITAL CHARGES AND SPIN DENSITIES
--------------------------------------------------
CHARGE
  0 Cus       :     6.991787  s :     6.991787
      pz      :     4.004590  p :    12.013770
      px      :     4.004590
      py      :     4.004590
      dz2     :     1.995200  d :     9.975999
      dxz     :     1.995200
      dyz     :     1.995200
      dx2y2   :     1.995200
      dxy     :     1.995200
      f0      :     0.002635  f :     0.018444
      f+1     :     0.002635
      f-1     :     0.002635
      f+2     :     0.002635
      f-2     :     0.002635
      f+3     :     0.002635
      f-3     :     0.002635

SPIN
  0 Cus       :     0.990870  s :     0.990870
      pz      :     0.000299  p :     0.000896
      px      :     0.000299
      py      :     0.000299
      dz2     :     0.001663  d :     0.008314
      dxz     :     0.001663
      dyz     :     0.001663
      dx2y2   :     0.001663
      dxy     :     0.001663
      f0      :    -0.000011  f :    -0.000080
      f+1     :    -0.000011
      f-1     :    -0.000011
      f+2     :    -0.000011
      f-2     :    -0.000011
      f+3     :    -0.000011
      f-3     :    -0.000011


                      *****************************
                      * MAYER POPULATION ANALYSIS *
                      *****************************

  NA   - Mulliken gross atomic population
  ZA   - Total nuclear charge
  QA   - Mulliken gross atomic charge
  VA   - Mayer's total valence
  BVA  - Mayer's bonded valence
  FA   - Mayer's free valence

  ATOM       NA         ZA         QA         VA         BVA        FA
  0 Cu    29.0000    29.0000    -0.0000     1.4339     0.0000     1.4339





------------------------------------------------------------------------------- 
                                     TIMINGS                                   
------------------------------------------------------------------------------- 


Total execution time                   ...        8.595 sec

Fock Matrix Formation                  ...        5.358 sec ( 62.3%)
Initial Guess                          ...        0.004 sec (  0.0%)
DIIS Solver                            ...        0.040 sec (  0.5%)
State Vector Update                    ...        0.004 sec (  0.1%)
Sigma-vector construction              ...        0.484 sec (  5.6%)
  <D|H|D>(0-ext)                       ...        0.002 sec (  0.3% of sigma)
  <D|H|D>(2-ext)                       ...        0.006 sec (  1.2% of sigma)
  <D|H|D>(4-ext)                       ...        0.117 sec ( 24.1% of sigma)
  <S|H|0>                              ...        0.008 sec (  1.7% of sigma)
  <D|H|S>(1-ext)                       ...        0.004 sec (  0.8% of sigma)
  Fock-dressing                        ...        0.180 sec ( 37.1% of sigma)
  (ik|jl)-dressing                     ...        0.003 sec (  0.6% of sigma)
  (ij|ab),(ia|jb)-dressing             ...        0.118 sec ( 24.4% of sigma)
  Pair energies                        ...        0.001 sec (  0.3% of sigma)
Total Time for computing (T)           ...        0.007 sec (  0.1% of ALL)
  I/O of integral and amplitudes       ...        0.002 sec ( 27.5% of (T))
  N**6 triples energy contributions    ...        0.003 sec ( 44.3% of (T))


-------------------------   --------------------
FINAL SINGLE POINT ENERGY     -1639.020918222395
-------------------------   --------------------


                            ***************************************
                            *     ORCA property calculations      *
                            ***************************************

                                    ---------------------
                                    Active property flags
                                    ---------------------
   (+) Dipole Moment


------------------------------------------------------------------------------
                       ORCA ELECTRIC PROPERTIES CALCULATION
------------------------------------------------------------------------------

Dipole Moment Calculation                       ... on
Quadrupole Moment Calculation                   ... off
Polarizability Calculation                      ... off
GBWName                                         ... 29_Cu.gbw
Electron density file                           ... 29_Cu.scfp
The origin for moment calculation is the CENTER OF MASS  = ( 0.000000,  0.000000  0.000000)

-------------
DIPOLE MOMENT
-------------
                                X             Y             Z
Electronic contribution:      0.00000      -0.00000      -0.00000
Nuclear contribution   :      0.00000       0.00000       0.00000
                        -----------------------------------------
Total Dipole Moment    :      0.00000      -0.00000      -0.00000
                        -----------------------------------------
Magnitude (a.u.)       :      0.00000
Magnitude (Debye)      :      0.00000



--------------------
Rotational spectrum 
--------------------
 
Rotational constants in cm-1:     0.000000     0.000000     0.000000 
Rotational constants in MHz :     0.000000     0.000000     0.000000 

 Dipole components along the rotational axes: 
x,y,z [a.u.] :     0.000000    -0.000000    -0.000000 
x,y,z [Debye]:     0.000000    -0.000000    -0.000000 

 

                           *** MDCI DENSITY ***

------------------------------------------------------------------------------
                       ORCA ELECTRIC PROPERTIES CALCULATION
------------------------------------------------------------------------------

Dipole Moment Calculation                       ... on
Quadrupole Moment Calculation                   ... off
Polarizability Calculation                      ... off
GBWName                                         ... 29_Cu.gbw
Electron density file                           ... 29_Cu.mdcip
The origin for moment calculation is the CENTER OF MASS  = ( 0.000000,  0.000000  0.000000)

-------------
DIPOLE MOMENT
-------------
                                X             Y             Z
Electronic contribution:     -0.00000       0.00000       0.00000
Nuclear contribution   :      0.00000       0.00000       0.00000
                        -----------------------------------------
Total Dipole Moment    :     -0.00000       0.00000       0.00000
                        -----------------------------------------
Magnitude (a.u.)       :      0.00000
Magnitude (Debye)      :      0.00000



--------------------
Rotational spectrum 
--------------------
 
Rotational constants in cm-1:     0.000000     0.000000     0.000000 
Rotational constants in MHz :     0.000000     0.000000     0.000000 

 Dipole components along the rotational axes: 
x,y,z [a.u.] :    -0.000000     0.000000     0.000000 
x,y,z [Debye]:    -0.000000     0.000000     0.000000 

 

Timings for individual modules:

Sum of individual times         ...       13.840 sec (=   0.231 min)
GTO integral calculation        ...        1.035 sec (=   0.017 min)   7.5 %
SCF iterations                  ...        3.710 sec (=   0.062 min)  26.8 %
MDCI module                     ...        9.094 sec (=   0.152 min)  65.7 %
                             ****ORCA TERMINATED NORMALLY****
TOTAL RUN TIME: 0 days 0 hours 0 minutes 14 seconds 718 msec
