
                                 *****************
                                 * O   R   C   A *
                                 *****************

           --- An Ab Initio, DFT and Semiempirical electronic structure package ---

                  #######################################################
                  #                        -***-                        #
                  #          Department of theory and spectroscopy      #
                  #               Directorship: Frank Neese             #
                  #        Max Planck Institute fuer Kohlenforschung    #
                  #                Kaiser Wilhelm Platz 1               #
                  #                 D-45470 Muelheim/Ruhr               #
                  #                      Germany                        #
                  #                                                     #
                  #                  All rights reserved                #
                  #                        -***-                        #
                  #######################################################


                         Program Version 4.2.0 -  RELEASE  -


 With contributions from (in alphabetic order):
   Daniel Aravena         : Magnetic Suceptibility
   Michael Atanasov       : Ab Initio Ligand Field Theory (pilot matlab implementation)
   Alexander A. Auer      : GIAO ZORA, VPT2
   Ute Becker             : Parallelization
   Giovanni Bistoni       : ED, misc. LED, open-shell LED, HFLED
   Martin Brehm           : Molecular dynamics
   Dmytro Bykov           : SCF Hessian
   Vijay G. Chilkuri      : MRCI spin determinant printing, contributions to CSF-ICE
   Dipayan Datta          : RHF DLPNO-CCSD density
   Achintya Kumar Dutta   : EOM-CC, STEOM-CC
   Dmitry Ganyushin       : Spin-Orbit,Spin-Spin,Magnetic field MRCI
   Miquel Garcia          : C-PCM Hessian, Gaussian charge scheme
   Yang Guo               : DLPNO-NEVPT2, CIM, IAO-localization
   Andreas Hansen         : Spin unrestricted coupled pair/coupled cluster methods
   Benjamin Helmich-Paris : CASSCF linear response (MC-RPA)
   Lee Huntington         : MR-EOM, pCC
   Robert Izsak           : Overlap fitted RIJCOSX, COSX-SCS-MP3, EOM
   Christian Kollmar      : KDIIS, OOCD, Brueckner-CCSD(T), CCSD density
   Simone Kossmann        : Meta GGA functionals, TD-DFT gradient, OOMP2, MP2 Hessian
   Martin Krupicka        : AUTO-CI
   Lucas Lang             : DCDCAS
   Dagmar Lenk            : GEPOL surface, SMD
   Dimitrios Liakos       : Extrapolation schemes; Compound Job, initial MDCI parallelization
   Dimitrios Manganas     : Further ROCIS development; embedding schemes
   Dimitrios Pantazis     : SARC Basis sets
   Taras Petrenko         : DFT Hessian,TD-DFT gradient, ASA, ECA, R-Raman, ABS, FL, XAS/XES, NRVS
   Peter Pinski           : DLPNO-MP2, DLPNO-MP2 Gradient
   Christoph Reimann      : Effective Core Potentials
   Marius Retegan         : Local ZFS, SOC
   Christoph Riplinger    : Optimizer, TS searches, QM/MM, DLPNO-CCSD(T), (RO)-DLPNO pert. Triples
   Tobias Risthaus        : Range-separated hybrids, TD-DFT gradient, RPA, STAB
   Michael Roemelt        : Original ROCIS implementation
   Masaaki Saitow         : Open-shell DLPNO-CCSD energy and density
   Barbara Sandhoefer     : DKH picture change effects
   Avijit Sen             : IP-ROCIS
   Kantharuban Sivalingam : CASSCF convergence, NEVPT2, FIC-MRCI
   Bernardo de Souza      : ESD, SOC TD-DFT
   Georgi Stoychev        : AutoAux, RI-MP2 NMR
   Willem Van den Heuvel  : Paramagnetic NMR
   Boris Wezisla          : Elementary symmetry handling
   Frank Wennmohs         : Technical directorship


 We gratefully acknowledge several colleagues who have allowed us to
 interface, adapt or use parts of their codes:
   Stefan Grimme, W. Hujo, H. Kruse,             : VdW corrections, initial TS optimization,
                  C. Bannwarth                     DFT functionals, gCP, sTDA/sTD-DF
   Ed Valeev, F. Pavosevic, A. Kumar             : LibInt (2-el integral package), F12 methods
   Garnet Chan, S. Sharma, J. Yang, R. Olivares  : DMRG
   Ulf Ekstrom                                   : XCFun DFT Library
   Mihaly Kallay                                 : mrcc  (arbitrary order and MRCC methods)
   Andreas Klamt, Michael Diedenhofen            : otool_cosmo (COSMO solvation model)
   Jiri Pittner, Ondrej Demel                    : Mk-CCSD
   Frank Weinhold                                : gennbo (NPA and NBO analysis)
   Christopher J. Cramer and Donald G. Truhlar   : smd solvation model
   Lars Goerigk                                  : TD-DFT with DH, B97 family of functionals
   V. Asgeirsson, H. Jonsson                     : NEB implementation
   FAccTs GmbH                                   : IRC, NEB, NEB-TS, Multilevel, MM, QM/MM, CI optimization
   S Lehtola, MJT Oliveira, MAL Marques          : LibXC Library


 Your calculation uses the libint2 library for the computation of 2-el integrals
 For citations please refer to: http://libint.valeyev.net

 Your ORCA version has been built with support for libXC version: 4.2.3
 For citations please refer to: https://tddft.org/programs/libxc/

 This ORCA versions uses:
   CBLAS   interface :  Fast vector & matrix operations
   LAPACKE interface :  Fast linear algebra routines
   SCALAPACK package :  Parallel linear algebra routines


----- Orbital basis set information -----
Your calculation utilizes the basis: def2-SVP
   F. Weigend and R. Ahlrichs, Phys. Chem. Chem. Phys. 7, 3297 (2005).

================================================================================
                                        WARNINGS
                       Please study these warnings very carefully!
================================================================================


WARNING: your system is open-shell and RHF/RKS was chosen
  ===> : WILL SWITCH to UHF/UKS


WARNING: MDCI localization with Augmented Hessian Foster-Boys
  ===> : Switching off randomization!

WARNING: Post HF methods need fully converged wavefunctions
  ===> : Setting SCFConvForced true
         You can overwrite this default with %scf ConvForced false 


INFO   : the flag for use of LIBINT has been found!

================================================================================
                                       INPUT FILE
================================================================================
NAME = 31_Ga.in
|  1> #
|  2> # 31_Ga CCSD(T)/Def2-SVP
|  3> #
|  4> ! CCSD(T) Def2-SVP tightscf
|  5> 
|  6> *xyz 0 2
|  7>  Ga 0.0 0.0 0.0
|  8> *
|  9> 
| 10> %maxcore 5000 
| 11> 
| 12> %pal
| 13> nprocs 24
| 14> end
| 15> 
| 16> 
| 17>                          ****END OF INPUT****
================================================================================

                       ****************************
                       * Single Point Calculation *
                       ****************************

---------------------------------
CARTESIAN COORDINATES (ANGSTROEM)
---------------------------------
  Ga     0.000000    0.000000    0.000000

----------------------------
CARTESIAN COORDINATES (A.U.)
----------------------------
  NO LB      ZA    FRAG     MASS         X           Y           Z
   0 Ga   31.0000    0    69.720    0.000000    0.000000    0.000000

--------------------------------
INTERNAL COORDINATES (ANGSTROEM)
--------------------------------
 Ga     0   0   0     0.000000000000     0.00000000     0.00000000

---------------------------
INTERNAL COORDINATES (A.U.)
---------------------------
 Ga     0   0   0     0.000000000000     0.00000000     0.00000000

---------------------
BASIS SET INFORMATION
---------------------
There are 1 groups of distinct atoms

 Group   1 Type Ga  : 14s10p6d contracted to 5s4p3d pattern {63311/5311/411}

Atom   0Ga   basis set group =>   1


           ************************************************************
           *        Program running with 24 parallel MPI-processes    *
           *              working on a common directory               *
           ************************************************************
------------------------------------------------------------------------------
                           ORCA GTO INTEGRAL CALCULATION
------------------------------------------------------------------------------

                         BASIS SET STATISTICS AND STARTUP INFO

 # of primitive gaussian shells          ...   30
 # of primitive gaussian functions       ...   74
 # of contracted shells                  ...   12
 # of contracted basis functions         ...   32
 Highest angular momentum                ...    2
 Maximum contraction depth               ...    6
 Integral package used                   ... LIBINT
 Integral threshhold            Thresh   ...  2.500e-11
 Primitive cut-off              TCut     ...  2.500e-12


------------------------------ INTEGRAL EVALUATION ----------------------------


 * One electron integrals 
 Pre-screening matrix                    ... done
 Shell pair data                         ... done (   0.000 sec)



           ************************************************************
           *        Program running with 24 parallel MPI-processes    *
           *              working on a common directory               *
           ************************************************************
-------------------------------------------------------------------------------
                                 ORCA SCF
-------------------------------------------------------------------------------

------------
SCF SETTINGS
------------
Hamiltonian:
 Ab initio Hamiltonian  Method          .... Hartree-Fock(GTOs)


General Settings:
 Integral files         IntName         .... 31_Ga
 Hartree-Fock type      HFTyp           .... UHF
 Total Charge           Charge          ....    0
 Multiplicity           Mult            ....    2
 Number of Electrons    NEL             ....   31
 Basis Dimension        Dim             ....   32
 Nuclear Repulsion      ENuc            ....      0.0000000000 Eh

Convergence Acceleration:
 DIIS                   CNVDIIS         .... on
   Start iteration      DIISMaxIt       ....    12
   Startup error        DIISStart       ....  0.200000
   # of expansion vecs  DIISMaxEq       ....     5
   Bias factor          DIISBfac        ....   1.050
   Max. coefficient     DIISMaxC        ....  10.000
 Newton-Raphson         CNVNR           .... off
 SOSCF                  CNVSOSCF        .... off
 Level Shifting         CNVShift        .... on
   Level shift para.    LevelShift      ....    0.2500
   Turn off err/grad.   ShiftErr        ....    0.0010
 Zerner damping         CNVZerner       .... off
 Static damping         CNVDamp         .... on
   Fraction old density DampFac         ....    0.7000
   Max. Damping (<1)    DampMax         ....    0.9800
   Min. Damping (>=0)   DampMin         ....    0.0000
   Turn off err/grad.   DampErr         ....    0.1000
 Fernandez-Rico         CNVRico         .... off

SCF Procedure:
 Maximum # iterations   MaxIter         ....   125
 SCF integral mode      SCFMode         .... Direct
   Integral package                     .... LIBINT
 Reset frequency        DirectResetFreq ....    20
 Integral Threshold     Thresh          ....  2.500e-11 Eh
 Primitive CutOff       TCut            ....  2.500e-12 Eh

Convergence Tolerance:
 Convergence Check Mode ConvCheckMode   .... Total+1el-Energy
 Convergence forced     ConvForced      .... 1
 Energy Change          TolE            ....  1.000e-08 Eh
 1-El. energy change                    ....  1.000e-05 Eh
 DIIS Error             TolErr          ....  5.000e-07


Diagonalization of the overlap matrix:
Smallest eigenvalue                        ... 1.379e-01
Time for diagonalization                   ...    0.001 sec
Threshold for overlap eigenvalues          ... 1.000e-08
Number of eigenvalues below threshold      ... 0
Time for construction of square roots      ...    0.109 sec
Total time needed                          ...    0.110 sec

-------------------
DFT GRID GENERATION
-------------------

General Integration Accuracy     IntAcc      ...  4.340
Radial Grid Type                 RadialGrid  ... Gauss-Chebyshev
Angular Grid (max. acc.)         AngularGrid ... Lebedev-110
Angular grid pruning method      GridPruning ... 3 (G Style)
Weight generation scheme         WeightScheme... Becke
Basis function cutoff            BFCut       ...    1.0000e-11
Integration weight cutoff        WCut        ...    1.0000e-14
Grids for H and He will be reduced by one unit

# of grid points (after initial pruning)     ...   2972 (   0.0 sec)
# of grid points (after weights+screening)   ...   2972 (   0.0 sec)
Grid point division into batches done        ...    0.0 sec
Reduced shell lists constructed in    0.0 sec

Total number of grid points                  ...     2972
Total number of batches                      ...       47
Average number of points per batch           ...       63
Average number of grid points per atom       ...     2972
Average number of shells per batch           ...     3.33 (27.78%)
Average number of basis functions per batch  ...     8.67 (27.08%)
Average number of large shells per batch     ...     3.33 (100.00%)
Average number of large basis fcns per batch ...     8.67 (100.00%)
Maximum spatial batch extension              ...  17.39, 26.34, 26.34 au
Average spatial batch extension              ...   0.74,  1.12,  1.12 au

Time for grid setup =    0.044 sec

------------------------------
INITIAL GUESS: MODEL POTENTIAL
------------------------------
Loading Hartree-Fock densities                     ... done
Calculating cut-offs                               ... done
Setting up the integral package                    ... done
Initializing the effective Hamiltonian             ... done
Starting the Coulomb interaction                   ... done (   0.0 sec)
Reading the grid                                   ... done
Mapping shells                                     ... done
Starting the XC term evaluation                    ... done (   0.0 sec)
Transforming the Hamiltonian                       ... done (   0.0 sec)
Diagonalizing the Hamiltonian                      ... done (   0.0 sec)
Back transforming the eigenvectors                 ... done (   0.0 sec)
Now organizing SCF variables                       ... done
                      ------------------
                      INITIAL GUESS DONE (   0.2 sec)
                      ------------------
--------------
SCF ITERATIONS
--------------
ITER       Energy         Delta-E        Max-DP      RMS-DP      [F,P]     Damp
               ***  Starting incremental Fock matrix formation  ***
  0  -1922.9132376040   0.000000000000 0.01505572  0.00136504  0.2641025 0.7000
  1  -1922.9353337122  -0.022096108156 0.02193380  0.00107486  0.1426590 0.7000
                               ***Turning on DIIS***
  2  -1922.9475214471  -0.012187734911 0.08026761  0.00312329  0.0719805 0.0000
  3  -1923.4668186501  -0.519297202997 0.03593349  0.00149652  0.0506825 0.0000
  4  -1922.9340875269   0.532731123212 0.02440590  0.00085808  0.0056598 0.0000
  5  -1922.9695259664  -0.035438439574 0.01133325  0.00038075  0.0023713 0.0000
  6  -1922.9780262879  -0.008500321450 0.00633071  0.00020444  0.0009066 0.0000
  7  -1922.9743816420   0.003644645933 0.00096881  0.00002901  0.0001074 0.0000
  8  -1922.9740829251   0.000298716821 0.00015857  0.00000584  0.0000342 0.0000
  9  -1922.9740935183  -0.000010593125 0.00007110  0.00000272  0.0000111 0.0000
                            ***DIIS convergence achieved***

               *****************************************************
               *                     SUCCESS                       *
               *           SCF CONVERGED AFTER  10 CYCLES          *
               *****************************************************


----------------
TOTAL SCF ENERGY
----------------

Total Energy       :        -1922.97412970 Eh          -52326.78631 eV

Components:
Nuclear Repulsion  :            0.00000000 Eh               0.00000 eV
Electronic Energy  :        -1922.97412970 Eh          -52326.78631 eV
One Electron Energy:        -2684.47901236 Eh          -73048.38763 eV
Two Electron Energy:          761.50488266 Eh           20721.60132 eV

Virial components:
Potential Energy   :        -3845.88860914 Eh         -104651.94946 eV
Kinetic Energy     :         1922.91447944 Eh           52325.16315 eV
Virial Ratio       :            2.00003102


---------------
SCF CONVERGENCE
---------------

  Last Energy change         ...   -3.6183e-05  Tolerance :   1.0000e-08
  Last MAX-Density change    ...    6.6552e-06  Tolerance :   1.0000e-07
  Last RMS-Density change    ...    2.9051e-07  Tolerance :   5.0000e-09
  Last DIIS Error            ...    9.2789e-07  Tolerance :   5.0000e-07

             **** THE GBW FILE WAS UPDATED (31_Ga.gbw) ****
             **** DENSITY FILE WAS UPDATED (31_Ga.scfp) ****
             **** ENERGY FILE WAS UPDATED (31_Ga.en.tmp) ****
----------------------
UHF SPIN CONTAMINATION
----------------------

Expectation value of <S**2>     :     0.759264
Ideal value S*(S+1) for S=0.5   :     0.750000
Deviation                       :     0.009264

             **** THE GBW FILE WAS UPDATED (31_Ga.gbw) ****
             **** DENSITY FILE WAS UPDATED (31_Ga.scfp) ****
----------------
ORBITAL ENERGIES
----------------
                 SPIN UP ORBITALS
  NO   OCC          E(Eh)            E(eV) 
   0   1.0000    -378.782601    -10307.1986 
   1   1.0000     -48.153049     -1310.3111 
   2   1.0000     -42.491567     -1156.2543 
   3   1.0000     -42.491491     -1156.2522 
   4   1.0000     -42.491491     -1156.2522 
   5   1.0000      -6.393001      -173.9624 
   6   1.0000      -4.483949      -122.0145 
   7   1.0000      -4.483949      -122.0145 
   8   1.0000      -4.482798      -121.9831 
   9   1.0000      -1.195369       -32.5276 
  10   1.0000      -1.195369       -32.5276 
  11   1.0000      -1.189516       -32.3684 
  12   1.0000      -1.189516       -32.3684 
  13   1.0000      -1.187717       -32.3194 
  14   1.0000      -0.453804       -12.3486 
  15   1.0000      -0.214197        -5.8286 
  16   0.0000       0.030263         0.8235 
  17   0.0000       0.030263         0.8235 
  18   0.0000       0.212065         5.7706 
  19   0.0000       0.408564        11.1176 
  20   0.0000       0.435405        11.8480 
  21   0.0000       0.435405        11.8480 
  22   0.0000       0.500561        13.6210 
  23   0.0000       0.504665        13.7326 
  24   0.0000       0.504665        13.7326 
  25   0.0000       0.521992        14.2041 
  26   0.0000       0.521992        14.2041 
  27   0.0000       2.375744        64.6473 
  28   0.0000       2.375744        64.6473 
  29   0.0000       2.383269        64.8520 
  30   0.0000       2.383269        64.8520 
  31   0.0000       2.385739        64.9193 

                 SPIN DOWN ORBITALS
  NO   OCC          E(Eh)            E(eV) 
   0   1.0000    -378.781462    -10307.1676 
   1   1.0000     -48.153420     -1310.3212 
   2   1.0000     -42.491847     -1156.2619 
   3   1.0000     -42.491847     -1156.2619 
   4   1.0000     -42.489316     -1156.1931 
   5   1.0000      -6.391941      -173.9336 
   6   1.0000      -4.485061      -122.0447 
   7   1.0000      -4.485061      -122.0447 
   8   1.0000      -4.474377      -121.7540 
   9   1.0000      -1.196280       -32.5524 
  10   1.0000      -1.196280       -32.5524 
  11   1.0000      -1.188102       -32.3299 
  12   1.0000      -1.188102       -32.3299 
  13   1.0000      -1.185560       -32.2607 
  14   1.0000      -0.391209       -10.6453 
  15   0.0000       0.041836         1.1384 
  16   0.0000       0.041836         1.1384 
  17   0.0000       0.079543         2.1645 
  18   0.0000       0.228330         6.2132 
  19   0.0000       0.440404        11.9840 
  20   0.0000       0.440404        11.9840 
  21   0.0000       0.474618        12.9150 
  22   0.0000       0.525371        14.2961 
  23   0.0000       0.525371        14.2961 
  24   0.0000       0.555285        15.1101 
  25   0.0000       0.555285        15.1101 
  26   0.0000       0.566535        15.4162 
  27   0.0000       2.376540        64.6689 
  28   0.0000       2.376540        64.6689 
  29   0.0000       2.396633        65.2157 
  30   0.0000       2.396633        65.2157 
  31   0.0000       2.403427        65.4006 

                    ********************************
                    * MULLIKEN POPULATION ANALYSIS *
                    ********************************

--------------------------------------------
MULLIKEN ATOMIC CHARGES AND SPIN POPULATIONS
--------------------------------------------
   0 Ga:   -0.000000    1.000000
Sum of atomic charges         :   -0.0000000
Sum of atomic spin populations:    1.0000000

-----------------------------------------------------
MULLIKEN REDUCED ORBITAL CHARGES AND SPIN POPULATIONS
-----------------------------------------------------
CHARGE
  0 Gas       :     7.995594  s :     7.995594
      pz      :     4.004027  p :    13.000000
      px      :     4.000003
      py      :     4.995970
      dz2     :     2.001075  d :    10.004406
      dxz     :     2.000000
      dyz     :     2.000053
      dx2y2   :     2.003278
      dxy     :     2.000000

SPIN
  0 Gas       :    -0.000600  s :    -0.000600
      pz      :     0.004027  p :     1.000000
      px      :     0.000003
      py      :     0.995970
      dz2     :     0.000146  d :     0.000600
      dxz     :     0.000000
      dyz     :     0.000007
      dx2y2   :     0.000446
      dxy     :     0.000000


                     *******************************
                     * LOEWDIN POPULATION ANALYSIS *
                     *******************************

-------------------------------------------
LOEWDIN ATOMIC CHARGES AND SPIN POPULATIONS
-------------------------------------------
   0 Ga:   -0.000000    1.000000

----------------------------------------------------
LOEWDIN REDUCED ORBITAL CHARGES AND SPIN POPULATIONS
----------------------------------------------------
CHARGE
  0 Gas       :     7.995594  s :     7.995594
      pz      :     4.004027  p :    13.000000
      px      :     4.000003
      py      :     4.995970
      dz2     :     2.001075  d :    10.004406
      dxz     :     2.000000
      dyz     :     2.000053
      dx2y2   :     2.003278
      dxy     :     2.000000

SPIN
  0 Gas       :    -0.000600  s :    -0.000600
      pz      :     0.004027  p :     1.000000
      px      :     0.000003
      py      :     0.995970
      dz2     :     0.000146  d :     0.000600
      dxz     :     0.000000
      dyz     :     0.000007
      dx2y2   :     0.000446
      dxy     :     0.000000


                      *****************************
                      * MAYER POPULATION ANALYSIS *
                      *****************************

  NA   - Mulliken gross atomic population
  ZA   - Total nuclear charge
  QA   - Mulliken gross atomic charge
  VA   - Mayer's total valence
  BVA  - Mayer's bonded valence
  FA   - Mayer's free valence

  ATOM       NA         ZA         QA         VA         BVA        FA
  0 Ga    31.0000    31.0000    -0.0000     1.0185     0.0000     1.0185

  Mayer bond orders larger than 0.100000


-------
TIMINGS
-------

Total SCF time: 0 days 0 hours 0 min 2 sec 

Total time                  ....       2.609 sec
Sum of individual times     ....       2.017 sec  ( 77.3%)

Fock matrix formation       ....       1.521 sec  ( 58.3%)
Diagonalization             ....       0.035 sec  (  1.4%)
Density matrix formation    ....       0.002 sec  (  0.1%)
Population analysis         ....       0.056 sec  (  2.1%)
Initial guess               ....       0.141 sec  (  5.4%)
Orbital Transformation      ....       0.000 sec  (  0.0%)
Orbital Orthonormalization  ....       0.000 sec  (  0.0%)
DIIS solution               ....       0.218 sec  (  8.3%)


           ************************************************************
           *        Program running with 24 parallel MPI-processes    *
           *              working on a common directory               *
           ************************************************************


------------------------------------------------------------------------------- 
                              ORCA-MATRIX DRIVEN CI                            
------------------------------------------------------------------------------- 

--------------------------------
AUTOMATIC CHOICE OF INCORE LEVEL
--------------------------------

Memory available                           ...   2500.00 MB
Memory needed for S+T                      ...      0.16 MB
Memory needed for J+K                      ...      0.33 MB
Memory needed for DIIS                     ...      2.30 MB
Memory needed for 3-ext                    ...      0.22 MB
Memory needed for 4-ext                    ...      0.27 MB
Memory needed for triples                  ...      0.16 MB
 -> Final InCoreLevel    ... 5
 -> check shows that triples correction can be computed


Wavefunction type
-----------------
Correlation treatment                      ...      CCSD     
Single excitations                         ... ON
Orbital optimization                       ... OFF
Calculation of Z vector                    ... OFF
Calculation of Brueckner orbitals          ... OFF
Perturbative triple excitations            ... ON
Calculation of F12 correction              ... OFF
Frozen core treatment                      ... chemical core (18 el)
Reference Wavefunction                     ... UHF
  Alpha-MOs occ    :     9 ...   15 (  7 MO's/  7 electrons)
  Beta-MOs occ     :     9 ...   14 (  6 MO's/  6 electrons)
  Alpha-MOs virt   :    16 ...   31 ( 16 MO's              )
  Beta-MOs virt    :    15 ...   31 ( 17 MO's              )
Number of AO's                             ...     32
Number of electrons                        ...     31
Number of correlated electrons             ...     13

Algorithmic settings
--------------------
Integral transformation                    ... AO direct full transformation
K(C) Formation                             ... FULL-MO TRAFO
Maximum number of iterations               ...        50
Convergence tolerance (max. residuum)      ... 1.000e-05
Level shift for amplitude update           ... 2.000e-01
Maximum number of DIIS vectors             ...         7
DIIS turned on at iteration                ...         0
Damping before turning on DIIS             ...     0.500
Damping after turning on DIIS              ...     0.000
Pair specific amplitude update             ... OFF
Natural orbital iterations                 ... OFF
Perturbative natural orbital generation    ... OFF
Printlevel                                 ... 2

Memory handling:
----------------
Maximum memory for working arrays          ...   2500 MB
Data storage in matrix containers          ... UNCOMPRESSED
Data type for integral storage             ... DOUBLE
In-Core Storage of quantities:
   Amplitudes+Sigma Vector      ... YES
   J+K operators                ... YES
   DIIS vectors                 ... YES
   3-external integrals         ... YES
   4-external integrals         ... YES


Initializing the integral package          ... done
Warning: reference  - re-canonicalizations have been set to INT 1 VIRT 1

--------------------------
UNRESTRICTED FOCK OPERATOR
--------------------------

<ss|ss>:          120 b            0 skpd (  0.0%)    0.000 s ( 0.001 ms/b)
<ss|sp>:          300 b            0 skpd (  0.0%)    0.000 s ( 0.001 ms/b)
<ss|sd>:          225 b            0 skpd (  0.0%)    0.000 s ( 0.002 ms/b)
<ss|pp>:          150 b            0 skpd (  0.0%)    0.000 s ( 0.002 ms/b)
<ss|pd>:          180 b            0 skpd (  0.0%)    0.000 s ( 0.001 ms/b)
<ss|dd>:           90 b            0 skpd (  0.0%)    0.000 s ( 0.004 ms/b)
<sp|sp>:          210 b            0 skpd (  0.0%)    0.000 s ( 0.001 ms/b)
<sp|sd>:          300 b            0 skpd (  0.0%)    0.001 s ( 0.003 ms/b)
<sp|pp>:          200 b            0 skpd (  0.0%)    0.000 s ( 0.002 ms/b)
<sp|pd>:          240 b            0 skpd (  0.0%)    0.001 s ( 0.002 ms/b)
<sp|dd>:          120 b            0 skpd (  0.0%)    0.001 s ( 0.007 ms/b)
<sd|sd>:          120 b            0 skpd (  0.0%)    0.001 s ( 0.005 ms/b)
<sd|pp>:          150 b            0 skpd (  0.0%)    0.001 s ( 0.004 ms/b)
<sd|pd>:          180 b            0 skpd (  0.0%)    0.001 s ( 0.005 ms/b)
<sd|dd>:           90 b            0 skpd (  0.0%)    0.001 s ( 0.014 ms/b)
<pp|pp>:           55 b            0 skpd (  0.0%)    0.000 s ( 0.009 ms/b)
<pp|pd>:          120 b            0 skpd (  0.0%)    0.001 s ( 0.006 ms/b)
<pp|dd>:           60 b            0 skpd (  0.0%)    0.001 s ( 0.018 ms/b)
<pd|pd>:           78 b            0 skpd (  0.0%)    0.001 s ( 0.015 ms/b)
<pd|dd>:           72 b            0 skpd (  0.0%)    0.002 s ( 0.030 ms/b)
<dd|dd>:           21 b            0 skpd (  0.0%)    0.002 s ( 0.093 ms/b)
Recanonicalizing the internal orbitals
Recanonicalizing the virtual orbitals
Time needed for Fock operator              ...            0.159 sec
Reference energy                           ...  -1922.974135092
Warning: for UHF the TrafoType has to be JK
Warning: for UHF the K(C)-option cannot be MO but must be AOX

-------------------------------
PARTIAL EXCHANGE TRANSFORMATION
-------------------------------

Transformation type                        ... two-operators
Generation of integrals (i,mue|j,nue)      ... ON
Generation of integrals (mue,kappa|nue,tau)... ON
Generation of integrals (i,mue|a,nue)      ... ON
Dimension of the basis                     ...   32
Number of internal alpha-MOs               ...    7 (   9-  15)
Number of internal beta-MOs                ...    6 (   9-  14)
Number of external alpha-MOs               ...   16 (  16-  31)
Number of external beta-MOs                ...   17 (  15-  31)
Pair cutoff                                ... 0.000e+00 Eh
Number of AO pairs in the trafo            ...  528
Total Number of distinct AO pairs          ...  528
Memory devoted for trafo                   ... 2500.0 MB 
Max. Number of MO pairs treated together   ... 320000      
Number Format for Storage                  ... Double (8 Byte)
Integral package used                      ... LIBINT

Starting integral evaluation:
    ... done with AO integral generation
Closing buffer AOK[aa] ( 0.00 GB; CompressionRatio= 0.00)
Closing buffer AOK[bb] ( 0.00 GB; CompressionRatio= 0.00)
Closing buffer AOK[ab] ( 0.00 GB; CompressionRatio= 0.00)
Closing buffer AOK[ba] ( 0.00 GB; CompressionRatio= 0.00)
Collecting buffer AOK 
Closing buffer IAAO1[aa] ( 0.00 GB; CompressionRatio= 0.00)
Closing buffer IAAO1[bb] ( 0.00 GB; CompressionRatio= 0.00)
Closing buffer IAAO1[ab] ( 0.00 GB; CompressionRatio= 0.00)
Closing buffer IAAO1[ba] ( 0.00 GB; CompressionRatio= 0.00)
Closing buffer IAAO2[aa] ( 0.00 GB; CompressionRatio= 0.00)
Closing buffer IAAO2[bb] ( 0.00 GB; CompressionRatio= 0.00)
Closing buffer IAAO2[ab] ( 0.00 GB; CompressionRatio= 0.00)
Closing buffer IAAO2[ba] ( 0.00 GB; CompressionRatio= 0.00)
Collecting buffer IAAO 
Closing buffer PRQS    ( 0.00 GB; CompressionRatio= 0.00)
Collecting buffer PRQS 
Number of alpha/alpha MO pairs in trafo    ...   28
Number of beta /beta  MO pairs in trafo    ...   21
Number of alpha/ beta MO pairs in trafo    ...   42
------------------------
SORTING OF (i,mue|j,nue)
------------------------

SORTING OF ALPHA/ALPHA PAIRS
IBATCH = 1 of  1
Closing buffer KAO[aa] ( 0.00 GB; CompressionRatio= 1.00)
Collecting buffer KAO 
SORTING OF BETA /BETA  PAIRS
IBATCH = 1 of  1
Closing buffer KAO[bb] ( 0.00 GB; CompressionRatio= 1.00)
Collecting buffer KAO 
SORTING OF ALPHA/BETA  PAIRS
IBATCH = 1 of  1
Closing buffer KAO[ab] ( 0.00 GB; CompressionRatio= 0.998537298879)
Collecting buffer KAO[ab] 
------------------------
SORTING OF (i,mue|a,nue)
------------------------

Number of alpha/alpha (i,a) pairs in trafo  ...  112
Number of beta /beta  (i,a) pairs in trafo  ...  102
Number of alpha/ beta (i,a) pairs in trafo  ...  119
Number of beta /alpha (i,a) pairs in trafo  ...   96
Setting up the alpha/alpha list             ... done
Setting up the beta /beta  list             ... done
Setting up the alpha/beta  list             ... done
Setting up the beta /alpha list             ... done
    ... Now sorting (i,mue|a,nue)integrals
    ... Integrals (i,b|a,c) will be made on the fly
SORTING OF ALPHA/ALPHA PAIRS
IBATCH = 1 of  1
Closing buffer IPAQ[aa]  0.00 GB; CompressionRatio= 1.00)
SORTING OF BETA /BETA  PAIRS
IBATCH = 1 of  1
Closing buffer IPAQ[bb]( 0.00 GB; CompressionRatio= 1.00)
SORTING OF ALPHA/BETA  PAIRS (NMatSort_ab=5)
IBATCH = 1 of  1
Closing buffer IPAQ[ab]( 0.00 GB; CompressionRatio= 1.00)
SORTING OF BETA/ALPHA  PAIRS
IBATCH = 1 of  1
Closing buffer IPAQ[ba]( 0.00 GB; CompressionRatio= 1.00)
N(AO-Batches) Done                         ...         0 
N(AO-Batches) Skipped                      ...         0 
N(IJ)-pairs Skipped                        ...         0 
TOTAL TIME for half transformation         ...     1.481 sec
AO-integral generation                     ...     0.000 sec
Half transformation                        ...     0.000 sec
K-integral sorting                         ...     0.600 sec
<ss|**>: 
------------------------------
PARTIAL COULOMB TRANSFORMATION
------------------------------

Transformation type                        ... two-operators
Dimension of the basis                     ...   32
Number of internal alpha-MOs               ...    7 (9-15)
Number of internal beta-MOs                ...    6 (9-14)
Pair cutoff                                ... 0.000e+00 Eh
Number of AO pairs included in the trafo   ...  528
Total Number of distinct AO pairs          ...  528
Memory devoted for trafo                   ... 2500.0 MB 
Max. Number of MO pairs treated together   ... 620606      
Max. Number of MOs treated per batch       ... 19393      
Number Format for Storage                  ... Double (8 Byte)
AO-integral source                         ... DIRECT
Integral package used                      ... LIBINT

Starting integral evaluation:
<sp|**>:         1170 b        0 skpd     0.001 s (  0.001 ms/b)
<sd|**>:         1560 b        0 skpd     0.009 s (  0.006 ms/b)
<pp|**>:         1170 b        0 skpd     0.014 s (  0.012 ms/b)
<pd|**>:          780 b        0 skpd     0.013 s (  0.017 ms/b)
<dd|**>:          936 b        0 skpd     0.028 s (  0.030 ms/b)
         468 b        0 skpd     0.024 s (  0.051 ms/b)
Closing buffer AOJ[aa] ( 0.00 GB; CompressionRatio= 0.95)
Closing buffer AOJ[bb] ( 0.00 GB; CompressionRatio= 0.00)
Collecting buffer AOJ 
    ... done with AO integral generation
Number of Alpha-MO pairs included          ...   28
Number of Beta-MO pairs included           ...   21
    ... Now sorting integrals
SORTING ALPHA/ALPHA PAIRS
IBATCH = 1 of  1
Closing buffer JAO[aa] ( 0.00 GB; CompressionRatio= 1.00)
SORTING BETA/BETA PAIRS
IBATCH = 1 of  1
Closing buffer JAO[bb] ( 0.00 GB; CompressionRatio= 1.00)
Collecting buffer JAO 
TOTAL TIME for half transformation         ...     0.217 sec
AO-integral generation                     ...     0.039 sec
Half transformation                        ...     0.051 sec
J-integral sorting                         ...     0.094 sec

-------------------------- SECOND HALF TRANSFORMATION -------------------------
Formation of (ij|kl),(ij|ka), (ij|ab)      ... ok (     0.113 sec)
Formation of (ik|jl),(ik|ja), (ia|jb)      ... ok (     0.173 sec)


-----------------------
SPIN UNRESTRICTED GUESS
-----------------------

Entering MDCI_UHF_Guess, Tailored=0
Spin-components of the MP2 energy:
EMP2(aa)=     -0.029291173
EMP2(bb)=     -0.025543022
EMP2(ab)=     -0.118462473

Initial guess performed in     0.002 sec
E(0)                                       ...  -1922.974135092
E(MP2)                                     ...     -0.173296668
Initial E(tot)                             ...  -1923.147431760
<T|T>                                      ...      0.048870157
Number of pairs included                   ... 78

------------------------------------------------
                  UHF COUPLED CLUSTER ITERATIONS
------------------------------------------------

Number of amplitudes to be optimized       ...        16379

Iter       E(tot)           E(Corr)          Delta-E          Residual     Time      <S|S>**1/2
  0  -1923.147431760     -0.173296668     -0.000000000      0.025297091    0.06      0.000001260
                           *** Turning on DIIS ***
  1  -1923.136731179     -0.162596087      0.010700581      0.010573416    0.04      0.031490781
  2  -1923.144316725     -0.170181634     -0.007585546      0.006540968    0.04      0.031240410
  3  -1923.147657889     -0.173522798     -0.003341164      0.001748414    0.04      0.037323123
  4  -1923.148211459     -0.174076367     -0.000553570      0.000525963    0.04      0.038469386
  5  -1923.148261261     -0.174126170     -0.000049802      0.000124370    0.04      0.038753058
  6  -1923.148271491     -0.174136399     -0.000010230      0.000016551    0.04      0.038743828
  7  -1923.148271568     -0.174136476     -0.000000077      0.000004710    0.04      0.038726380
               --- The Coupled-Cluster iterations have converged ---

----------------------
COUPLED CLUSTER ENERGY
----------------------

E(0)                                       ...  -1922.974135092
E(CORR)                                    ...     -0.174136476
E(TOT)                                     ...  -1923.148271568
Singles norm <S|S>**1/2                    ...      0.038726380 ( 0.023758183, 0.014968197)  
T1 diagnostic                              ...      0.010740765                              

------------------
LARGEST AMPLITUDES
------------------
  14a-> 16a  14b-> 16b       0.097445
  14a-> 17a  14b-> 15b       0.097445
  15a-> 22a  14b-> 17b       0.061975
  15a-> 23a  14b-> 15b       0.054732
  15a-> 24a  14b-> 16b       0.054732
  14a-> 16a  14b-> 19b       0.049924
  14a-> 17a  14b-> 20b       0.049924
  14a-> 21a  14b-> 15b       0.048562
  14a-> 20a  14b-> 16b       0.048562
  15a-> 19a  14b-> 18b       0.037423
  15a-> 16a  14b-> 25b       0.034942
  15a-> 17a  14b-> 24b       0.034942
  15a-> 22a  14b-> 21b       0.032210
  14a-> 21a  14b-> 20b       0.032168
  14a-> 20a  14b-> 19b       0.032168
  14a-> 19a  14b-> 21b       0.029183

----------------------
UHF TRIPLES CORRECTION (Algorithm 1)
----------------------

Multiplier for the singles contribution    ...      1.000000000

SPIN-CASE Alpha-Alpha-Alpha:
10% done
20% done
30% done
40% done
50% done
60% done
70% done
80% done
90% done


SPIN-CASE Beta-Beta-Beta:
10% done
20% done
30% done
40% done
50% done
60% done
70% done
80% done
90% done


SPIN-CASE Alpha-Alpha-Beta:
10% done
20% done
30% done
40% done
50% done
60% done
70% done
80% done
90% done


SPIN-CASE Beta-Beta-Alpha:
10% done
20% done
30% done
40% done
50% done
60% done
70% done
80% done
90% done


Triples Correction (T)                     ...     -0.005847625
    alpha-alpha-alpha ... -0.000289981 (  5.0%)
    alpha-alpha-beta  ... -0.003013251 ( 51.5%)
    alpha-beta -beta  ... -0.002328600 ( 39.8%)
    beta -beta -beta  ... -0.000215793 (  3.7%)
Scaling of triples based on CCSD energies (Peterson et al. Molecular Physics 113, 1551 (2015))
E(T*) = f*E(T) where f = E(F12-CCSD)/E(CCSD) 
f = CCSD (with F12)/ CCSD (without F12)    ...      1.000000000
Scaled triples correction (T)              ...     -0.005847625

Final correlation energy                   ...     -0.179984101
E(CCSD)                                    ...  -1923.148271568
E(CCSD(T))                                 ...  -1923.154119193



        !!!!!!!!!!!!!!!!!!!!!!!!!!!!!!!!!!!!!!!!!!!!!!!!!!!!!!!!!!!!!!!!!!!!!!!!!! 
        !  Warning: Densities are linearized densities                           !
        !!!!!!!!!!!!!!!!!!!!!!!!!!!!!!!!!!!!!!!!!!!!!!!!!!!!!!!!!!!!!!!!!!!!!!!!!! 

NORM  =      1.080233642 sqrt=     1.039342889
W(HF) =      0.925725659
------------------------------------------------------------------------------
                           ORCA POPULATION ANALYSIS
------------------------------------------------------------------------------
Input electron density              ... 31_Ga.mdcip
Input spin density                  ... 31_Ga.mdcir
BaseName (.gbw .S,...)              ... 31_Ga

                    ********************************
                    * MULLIKEN POPULATION ANALYSIS *
                    ********************************

------------------------------------------
MULLIKEN ATOMIC CHARGES AND SPIN DENSITIES
------------------------------------------
   0 Ga:   -0.000000    1.000000
Sum of atomic charges       :   -0.0000000
Sum of atomic spin densities:    1.0000000

---------------------------------------------------
MULLIKEN REDUCED ORBITAL CHARGES AND SPIN DENSITIES
---------------------------------------------------
CHARGE
  0 Gas       :     7.910126  s :     7.910126
      pz      :     4.043546  p :    13.072614
      px      :     4.039709
      py      :     4.989359
      dz2     :     2.001264  d :    10.017261
      dxz     :     1.999103
      dyz     :     2.005694
      dx2y2   :     2.005530
      dxy     :     2.005670

SPIN
  0 Gas       :     0.015865  s :     0.015865
      pz      :     0.002428  p :     0.973535
      px      :    -0.001507
      py      :     0.972614
      dz2     :     0.001084  d :     0.010600
      dxz     :     0.000022
      dyz     :     0.003163
      dx2y2   :     0.003181
      dxy     :     0.003150


                     *******************************
                     * LOEWDIN POPULATION ANALYSIS *
                     *******************************

-----------------------------------------
LOEWDIN ATOMIC CHARGES AND SPIN DENSITIES
-----------------------------------------
   0 Ga:   -0.000000    1.000000

--------------------------------------------------
LOEWDIN REDUCED ORBITAL CHARGES AND SPIN DENSITIES
--------------------------------------------------
CHARGE
  0 Gas       :     7.910126  s :     7.910126
      pz      :     4.043546  p :    13.072614
      px      :     4.039709
      py      :     4.989359
      dz2     :     2.001264  d :    10.017261
      dxz     :     1.999103
      dyz     :     2.005694
      dx2y2   :     2.005530
      dxy     :     2.005670

SPIN
  0 Gas       :     0.015865  s :     0.015865
      pz      :     0.002428  p :     0.973535
      px      :    -0.001507
      py      :     0.972614
      dz2     :     0.001084  d :     0.010600
      dxz     :     0.000022
      dyz     :     0.003163
      dx2y2   :     0.003181
      dxy     :     0.003150


                      *****************************
                      * MAYER POPULATION ANALYSIS *
                      *****************************

  NA   - Mulliken gross atomic population
  ZA   - Total nuclear charge
  QA   - Mulliken gross atomic charge
  VA   - Mayer's total valence
  BVA  - Mayer's bonded valence
  FA   - Mayer's free valence

  ATOM       NA         ZA         QA         VA         BVA        FA
  0 Ga    31.0000    31.0000    -0.0000     1.5621     0.0000     1.5621





------------------------------------------------------------------------------- 
                                     TIMINGS                                   
------------------------------------------------------------------------------- 


Total execution time                   ...        2.967 sec

Fock Matrix Formation                  ...        0.159 sec (  5.4%)
Initial Guess                          ...        0.002 sec (  0.1%)
DIIS Solver                            ...        0.026 sec (  0.9%)
State Vector Update                    ...        0.002 sec (  0.1%)
Sigma-vector construction              ...        0.328 sec ( 11.1%)
  <D|H|D>(2-ext)                       ...        0.002 sec (  0.6% of sigma)
  <D|H|D>(4-ext)                       ...        0.107 sec ( 32.7% of sigma)
  <S|H|0>                              ...        0.003 sec (  0.9% of sigma)
  <D|H|S>(1-ext)                       ...        0.002 sec (  0.7% of sigma)
  Fock-dressing                        ...        0.130 sec ( 39.5% of sigma)
  (ij|ab),(ia|jb)-dressing             ...        0.056 sec ( 17.2% of sigma)
Total Time for computing (T)           ...        0.003 sec (  0.1% of ALL)
  N**6 triples energy contributions    ...        0.001 sec ( 35.6% of (T))


-------------------------   --------------------
FINAL SINGLE POINT ENERGY     -1923.154119193098
-------------------------   --------------------


                            ***************************************
                            *     ORCA property calculations      *
                            ***************************************

                                    ---------------------
                                    Active property flags
                                    ---------------------
   (+) Dipole Moment


------------------------------------------------------------------------------
                       ORCA ELECTRIC PROPERTIES CALCULATION
------------------------------------------------------------------------------

Dipole Moment Calculation                       ... on
Quadrupole Moment Calculation                   ... off
Polarizability Calculation                      ... off
GBWName                                         ... 31_Ga.gbw
Electron density file                           ... 31_Ga.scfp
The origin for moment calculation is the CENTER OF MASS  = ( 0.000000,  0.000000  0.000000)

-------------
DIPOLE MOMENT
-------------
                                X             Y             Z
Electronic contribution:      0.00000       0.00000       0.00000
Nuclear contribution   :      0.00000       0.00000       0.00000
                        -----------------------------------------
Total Dipole Moment    :      0.00000       0.00000       0.00000
                        -----------------------------------------
Magnitude (a.u.)       :      0.00000
Magnitude (Debye)      :      0.00000



--------------------
Rotational spectrum 
--------------------
 
Rotational constants in cm-1:     0.000000     0.000000     0.000000 
Rotational constants in MHz :     0.000000     0.000000     0.000000 

 Dipole components along the rotational axes: 
x,y,z [a.u.] :     0.000000     0.000000     0.000000 
x,y,z [Debye]:     0.000000     0.000000     0.000000 

 

                           *** MDCI DENSITY ***

------------------------------------------------------------------------------
                       ORCA ELECTRIC PROPERTIES CALCULATION
------------------------------------------------------------------------------

Dipole Moment Calculation                       ... on
Quadrupole Moment Calculation                   ... off
Polarizability Calculation                      ... off
GBWName                                         ... 31_Ga.gbw
Electron density file                           ... 31_Ga.mdcip
The origin for moment calculation is the CENTER OF MASS  = ( 0.000000,  0.000000  0.000000)

-------------
DIPOLE MOMENT
-------------
                                X             Y             Z
Electronic contribution:     -0.00000       0.00000      -0.00000
Nuclear contribution   :      0.00000       0.00000       0.00000
                        -----------------------------------------
Total Dipole Moment    :     -0.00000       0.00000      -0.00000
                        -----------------------------------------
Magnitude (a.u.)       :      0.00000
Magnitude (Debye)      :      0.00000



--------------------
Rotational spectrum 
--------------------
 
Rotational constants in cm-1:     0.000000     0.000000     0.000000 
Rotational constants in MHz :     0.000000     0.000000     0.000000 

 Dipole components along the rotational axes: 
x,y,z [a.u.] :    -0.000000     0.000000    -0.000000 
x,y,z [Debye]:    -0.000000     0.000000    -0.000000 

 

Timings for individual modules:

Sum of individual times         ...        7.542 sec (=   0.126 min)
GTO integral calculation        ...        1.061 sec (=   0.018 min)  14.1 %
SCF iterations                  ...        3.055 sec (=   0.051 min)  40.5 %
MDCI module                     ...        3.427 sec (=   0.057 min)  45.4 %
                             ****ORCA TERMINATED NORMALLY****
TOTAL RUN TIME: 0 days 0 hours 0 minutes 8 seconds 346 msec
