
                                 *****************
                                 * O   R   C   A *
                                 *****************

           --- An Ab Initio, DFT and Semiempirical electronic structure package ---

                  #######################################################
                  #                        -***-                        #
                  #          Department of theory and spectroscopy      #
                  #               Directorship: Frank Neese             #
                  #        Max Planck Institute fuer Kohlenforschung    #
                  #                Kaiser Wilhelm Platz 1               #
                  #                 D-45470 Muelheim/Ruhr               #
                  #                      Germany                        #
                  #                                                     #
                  #                  All rights reserved                #
                  #                        -***-                        #
                  #######################################################


                         Program Version 4.2.0 -  RELEASE  -


 With contributions from (in alphabetic order):
   Daniel Aravena         : Magnetic Suceptibility
   Michael Atanasov       : Ab Initio Ligand Field Theory (pilot matlab implementation)
   Alexander A. Auer      : GIAO ZORA, VPT2
   Ute Becker             : Parallelization
   Giovanni Bistoni       : ED, misc. LED, open-shell LED, HFLED
   Martin Brehm           : Molecular dynamics
   Dmytro Bykov           : SCF Hessian
   Vijay G. Chilkuri      : MRCI spin determinant printing, contributions to CSF-ICE
   Dipayan Datta          : RHF DLPNO-CCSD density
   Achintya Kumar Dutta   : EOM-CC, STEOM-CC
   Dmitry Ganyushin       : Spin-Orbit,Spin-Spin,Magnetic field MRCI
   Miquel Garcia          : C-PCM Hessian, Gaussian charge scheme
   Yang Guo               : DLPNO-NEVPT2, CIM, IAO-localization
   Andreas Hansen         : Spin unrestricted coupled pair/coupled cluster methods
   Benjamin Helmich-Paris : CASSCF linear response (MC-RPA)
   Lee Huntington         : MR-EOM, pCC
   Robert Izsak           : Overlap fitted RIJCOSX, COSX-SCS-MP3, EOM
   Christian Kollmar      : KDIIS, OOCD, Brueckner-CCSD(T), CCSD density
   Simone Kossmann        : Meta GGA functionals, TD-DFT gradient, OOMP2, MP2 Hessian
   Martin Krupicka        : AUTO-CI
   Lucas Lang             : DCDCAS
   Dagmar Lenk            : GEPOL surface, SMD
   Dimitrios Liakos       : Extrapolation schemes; Compound Job, initial MDCI parallelization
   Dimitrios Manganas     : Further ROCIS development; embedding schemes
   Dimitrios Pantazis     : SARC Basis sets
   Taras Petrenko         : DFT Hessian,TD-DFT gradient, ASA, ECA, R-Raman, ABS, FL, XAS/XES, NRVS
   Peter Pinski           : DLPNO-MP2, DLPNO-MP2 Gradient
   Christoph Reimann      : Effective Core Potentials
   Marius Retegan         : Local ZFS, SOC
   Christoph Riplinger    : Optimizer, TS searches, QM/MM, DLPNO-CCSD(T), (RO)-DLPNO pert. Triples
   Tobias Risthaus        : Range-separated hybrids, TD-DFT gradient, RPA, STAB
   Michael Roemelt        : Original ROCIS implementation
   Masaaki Saitow         : Open-shell DLPNO-CCSD energy and density
   Barbara Sandhoefer     : DKH picture change effects
   Avijit Sen             : IP-ROCIS
   Kantharuban Sivalingam : CASSCF convergence, NEVPT2, FIC-MRCI
   Bernardo de Souza      : ESD, SOC TD-DFT
   Georgi Stoychev        : AutoAux, RI-MP2 NMR
   Willem Van den Heuvel  : Paramagnetic NMR
   Boris Wezisla          : Elementary symmetry handling
   Frank Wennmohs         : Technical directorship


 We gratefully acknowledge several colleagues who have allowed us to
 interface, adapt or use parts of their codes:
   Stefan Grimme, W. Hujo, H. Kruse,             : VdW corrections, initial TS optimization,
                  C. Bannwarth                     DFT functionals, gCP, sTDA/sTD-DF
   Ed Valeev, F. Pavosevic, A. Kumar             : LibInt (2-el integral package), F12 methods
   Garnet Chan, S. Sharma, J. Yang, R. Olivares  : DMRG
   Ulf Ekstrom                                   : XCFun DFT Library
   Mihaly Kallay                                 : mrcc  (arbitrary order and MRCC methods)
   Andreas Klamt, Michael Diedenhofen            : otool_cosmo (COSMO solvation model)
   Jiri Pittner, Ondrej Demel                    : Mk-CCSD
   Frank Weinhold                                : gennbo (NPA and NBO analysis)
   Christopher J. Cramer and Donald G. Truhlar   : smd solvation model
   Lars Goerigk                                  : TD-DFT with DH, B97 family of functionals
   V. Asgeirsson, H. Jonsson                     : NEB implementation
   FAccTs GmbH                                   : IRC, NEB, NEB-TS, Multilevel, MM, QM/MM, CI optimization
   S Lehtola, MJT Oliveira, MAL Marques          : LibXC Library


 Your calculation uses the libint2 library for the computation of 2-el integrals
 For citations please refer to: http://libint.valeyev.net

 Your ORCA version has been built with support for libXC version: 4.2.3
 For citations please refer to: https://tddft.org/programs/libxc/

 This ORCA versions uses:
   CBLAS   interface :  Fast vector & matrix operations
   LAPACKE interface :  Fast linear algebra routines
   SCALAPACK package :  Parallel linear algebra routines


----- Orbital basis set information -----
Your calculation utilizes the basis: def2-SVP
   F. Weigend and R. Ahlrichs, Phys. Chem. Chem. Phys. 7, 3297 (2005).

================================================================================
                                        WARNINGS
                       Please study these warnings very carefully!
================================================================================


WARNING: your system is open-shell and RHF/RKS was chosen
  ===> : WILL SWITCH to UHF/UKS


WARNING: MDCI localization with Augmented Hessian Foster-Boys
  ===> : Switching off randomization!

WARNING: Post HF methods need fully converged wavefunctions
  ===> : Setting SCFConvForced true
         You can overwrite this default with %scf ConvForced false 


INFO   : the flag for use of LIBINT has been found!

================================================================================
                                       INPUT FILE
================================================================================
NAME = 33_As.in
|  1> #
|  2> # 33_As CCSD(T)/Def2-SVP
|  3> #
|  4> ! CCSD(T) Def2-SVP tightscf
|  5> 
|  6> *xyz 0 4
|  7>  As 0.0 0.0 0.0
|  8> *
|  9> 
| 10> %maxcore 5000 
| 11> 
| 12> %pal
| 13> nprocs 24
| 14> end
| 15> 
| 16> 
| 17>                          ****END OF INPUT****
================================================================================

                       ****************************
                       * Single Point Calculation *
                       ****************************

---------------------------------
CARTESIAN COORDINATES (ANGSTROEM)
---------------------------------
  As     0.000000    0.000000    0.000000

----------------------------
CARTESIAN COORDINATES (A.U.)
----------------------------
  NO LB      ZA    FRAG     MASS         X           Y           Z
   0 As   33.0000    0    74.920    0.000000    0.000000    0.000000

--------------------------------
INTERNAL COORDINATES (ANGSTROEM)
--------------------------------
 As     0   0   0     0.000000000000     0.00000000     0.00000000

---------------------------
INTERNAL COORDINATES (A.U.)
---------------------------
 As     0   0   0     0.000000000000     0.00000000     0.00000000

---------------------
BASIS SET INFORMATION
---------------------
There are 1 groups of distinct atoms

 Group   1 Type As  : 14s10p6d contracted to 5s4p3d pattern {63311/5311/411}

Atom   0As   basis set group =>   1


           ************************************************************
           *        Program running with 24 parallel MPI-processes    *
           *              working on a common directory               *
           ************************************************************
------------------------------------------------------------------------------
                           ORCA GTO INTEGRAL CALCULATION
------------------------------------------------------------------------------

                         BASIS SET STATISTICS AND STARTUP INFO

 # of primitive gaussian shells          ...   30
 # of primitive gaussian functions       ...   74
 # of contracted shells                  ...   12
 # of contracted basis functions         ...   32
 Highest angular momentum                ...    2
 Maximum contraction depth               ...    6
 Integral package used                   ... LIBINT
 Integral threshhold            Thresh   ...  2.500e-11
 Primitive cut-off              TCut     ...  2.500e-12


------------------------------ INTEGRAL EVALUATION ----------------------------


 * One electron integrals 
 Pre-screening matrix                    ... done
 Shell pair data                         ... done (   0.000 sec)



           ************************************************************
           *        Program running with 24 parallel MPI-processes    *
           *              working on a common directory               *
           ************************************************************
-------------------------------------------------------------------------------
                                 ORCA SCF
-------------------------------------------------------------------------------

------------
SCF SETTINGS
------------
Hamiltonian:
 Ab initio Hamiltonian  Method          .... Hartree-Fock(GTOs)


General Settings:
 Integral files         IntName         .... 33_As
 Hartree-Fock type      HFTyp           .... UHF
 Total Charge           Charge          ....    0
 Multiplicity           Mult            ....    4
 Number of Electrons    NEL             ....   33
 Basis Dimension        Dim             ....   32
 Nuclear Repulsion      ENuc            ....      0.0000000000 Eh

Convergence Acceleration:
 DIIS                   CNVDIIS         .... on
   Start iteration      DIISMaxIt       ....    12
   Startup error        DIISStart       ....  0.200000
   # of expansion vecs  DIISMaxEq       ....     5
   Bias factor          DIISBfac        ....   1.050
   Max. coefficient     DIISMaxC        ....  10.000
 Newton-Raphson         CNVNR           .... off
 SOSCF                  CNVSOSCF        .... off
 Level Shifting         CNVShift        .... on
   Level shift para.    LevelShift      ....    0.2500
   Turn off err/grad.   ShiftErr        ....    0.0010
 Zerner damping         CNVZerner       .... off
 Static damping         CNVDamp         .... on
   Fraction old density DampFac         ....    0.7000
   Max. Damping (<1)    DampMax         ....    0.9800
   Min. Damping (>=0)   DampMin         ....    0.0000
   Turn off err/grad.   DampErr         ....    0.1000
 Fernandez-Rico         CNVRico         .... off

SCF Procedure:
 Maximum # iterations   MaxIter         ....   125
 SCF integral mode      SCFMode         .... Direct
   Integral package                     .... LIBINT
 Reset frequency        DirectResetFreq ....    20
 Integral Threshold     Thresh          ....  2.500e-11 Eh
 Primitive CutOff       TCut            ....  2.500e-12 Eh

Convergence Tolerance:
 Convergence Check Mode ConvCheckMode   .... Total+1el-Energy
 Convergence forced     ConvForced      .... 1
 Energy Change          TolE            ....  1.000e-08 Eh
 1-El. energy change                    ....  1.000e-05 Eh
 DIIS Error             TolErr          ....  5.000e-07


Diagonalization of the overlap matrix:
Smallest eigenvalue                        ... 1.221e-01
Time for diagonalization                   ...    0.001 sec
Threshold for overlap eigenvalues          ... 1.000e-08
Number of eigenvalues below threshold      ... 0
Time for construction of square roots      ...    0.011 sec
Total time needed                          ...    0.012 sec

-------------------
DFT GRID GENERATION
-------------------

General Integration Accuracy     IntAcc      ...  4.340
Radial Grid Type                 RadialGrid  ... Gauss-Chebyshev
Angular Grid (max. acc.)         AngularGrid ... Lebedev-110
Angular grid pruning method      GridPruning ... 3 (G Style)
Weight generation scheme         WeightScheme... Becke
Basis function cutoff            BFCut       ...    1.0000e-11
Integration weight cutoff        WCut        ...    1.0000e-14
Grids for H and He will be reduced by one unit

# of grid points (after initial pruning)     ...   2912 (   0.0 sec)
# of grid points (after weights+screening)   ...   2912 (   0.0 sec)
Grid point division into batches done        ...    0.0 sec
Reduced shell lists constructed in    0.0 sec

Total number of grid points                  ...     2912
Total number of batches                      ...       46
Average number of points per batch           ...       63
Average number of grid points per atom       ...     2912
Average number of shells per batch           ...     3.33 (27.78%)
Average number of basis functions per batch  ...     8.67 (27.08%)
Average number of large shells per batch     ...     3.33 (100.00%)
Average number of large basis fcns per batch ...     8.67 (100.00%)
Maximum spatial batch extension              ...  14.23, 21.55, 21.55 au
Average spatial batch extension              ...   0.62,  0.94,  0.94 au

Time for grid setup =    0.047 sec

------------------------------
INITIAL GUESS: MODEL POTENTIAL
------------------------------
Loading Hartree-Fock densities                     ... done
Calculating cut-offs                               ... done
Setting up the integral package                    ... done
Initializing the effective Hamiltonian             ... done
Starting the Coulomb interaction                   ... done (   0.0 sec)
Reading the grid                                   ... done
Mapping shells                                     ... done
Starting the XC term evaluation                    ... done (   0.0 sec)
Transforming the Hamiltonian                       ... done (   0.0 sec)
Diagonalizing the Hamiltonian                      ... done (   0.0 sec)
Back transforming the eigenvectors                 ... done (   0.0 sec)
Now organizing SCF variables                       ... done
                      ------------------
                      INITIAL GUESS DONE (   0.2 sec)
                      ------------------
--------------
SCF ITERATIONS
--------------
ITER       Energy         Delta-E        Max-DP      RMS-DP      [F,P]     Damp
               ***  Starting incremental Fock matrix formation  ***
  0  -2233.8881548513   0.000000000000 0.01890276  0.00095181  0.1939068 0.7000
  1  -2233.8980878129  -0.009932961552 0.02065712  0.00081281  0.1114828 0.7000
                               ***Turning on DIIS***
  2  -2233.9040081777  -0.005920364836 0.06266477  0.00230452  0.0611042 0.0000
  3  -2234.1537044370  -0.249696259268 0.02223098  0.00091853  0.0308581 0.0000
  4  -2233.8860457894   0.267658647566 0.01025181  0.00037971  0.0033074 0.0000
  5  -2233.9139671972  -0.027921407739 0.00489352  0.00016281  0.0009807 0.0000
  6  -2233.9169557151  -0.002988517923 0.00116961  0.00003473  0.0001468 0.0000
  7  -2233.9168993079   0.000056407188 0.00041703  0.00001231  0.0000268 0.0000
  8  -2233.9168818379   0.000017470039 0.00010465  0.00000318  0.0000046 0.0000
                            ***DIIS convergence achieved***

               *****************************************************
               *                     SUCCESS                       *
               *           SCF CONVERGED AFTER   9 CYCLES          *
               *****************************************************


----------------
TOTAL SCF ENERGY
----------------

Total Energy       :        -2233.91691609 Eh          -60787.96969 eV

Components:
Nuclear Repulsion  :            0.00000000 Eh               0.00000 eV
Electronic Energy  :        -2233.91691609 Eh          -60787.96969 eV
One Electron Energy:        -3114.39537384 Eh          -84747.00658 eV
Two Electron Energy:          880.47845775 Eh           23959.03689 eV

Virial components:
Potential Energy   :        -4467.79343501 Eh         -121574.84011 eV
Kinetic Energy     :         2233.87651892 Eh           60786.87042 eV
Virial Ratio       :            2.00001808


---------------
SCF CONVERGENCE
---------------

  Last Energy change         ...   -3.4256e-05  Tolerance :   1.0000e-08
  Last MAX-Density change    ...    1.7191e-05  Tolerance :   1.0000e-07
  Last RMS-Density change    ...    5.7099e-07  Tolerance :   5.0000e-09
  Last DIIS Error            ...    6.0149e-07  Tolerance :   5.0000e-07

             **** THE GBW FILE WAS UPDATED (33_As.gbw) ****
             **** DENSITY FILE WAS UPDATED (33_As.scfp) ****
             **** ENERGY FILE WAS UPDATED (33_As.en.tmp) ****
----------------------
UHF SPIN CONTAMINATION
----------------------

Expectation value of <S**2>     :     3.750759
Ideal value S*(S+1) for S=1.5   :     3.750000
Deviation                       :     0.000759

             **** THE GBW FILE WAS UPDATED (33_As.gbw) ****
             **** DENSITY FILE WAS UPDATED (33_As.scfp) ****
----------------
ORBITAL ENERGIES
----------------
                 SPIN UP ORBITALS
  NO   OCC          E(Eh)            E(eV) 
   0   1.0000    -432.545165    -11770.1523 
   1   1.0000     -56.290903     -1531.7533 
   2   1.0000     -50.151532     -1364.6926 
   3   1.0000     -50.151532     -1364.6926 
   4   1.0000     -50.151532     -1364.6926 
   5   1.0000      -8.032058      -218.5634 
   6   1.0000      -5.888839      -160.2435 
   7   1.0000      -5.888839      -160.2435 
   8   1.0000      -5.888839      -160.2435 
   9   1.0000      -2.114606       -57.5414 
  10   1.0000      -2.114606       -57.5414 
  11   1.0000      -2.114606       -57.5414 
  12   1.0000      -2.114606       -57.5414 
  13   1.0000      -2.114606       -57.5414 
  14   1.0000      -0.811729       -22.0883 
  15   1.0000      -0.368234       -10.0201 
  16   1.0000      -0.368234       -10.0201 
  17   1.0000      -0.368234       -10.0201 
  18   0.0000       0.303611         8.2617 
  19   0.0000       0.563195        15.3253 
  20   0.0000       0.563195        15.3253 
  21   0.0000       0.563195        15.3253 
  22   0.0000       0.563195        15.3253 
  23   0.0000       0.563195        15.3253 
  24   0.0000       0.586781        15.9671 
  25   0.0000       0.586781        15.9671 
  26   0.0000       0.586781        15.9671 
  27   0.0000       3.100511        84.3692 
  28   0.0000       3.100511        84.3692 
  29   0.0000       3.100511        84.3692 
  30   0.0000       3.100511        84.3692 
  31   0.0000       3.100511        84.3692 

                 SPIN DOWN ORBITALS
  NO   OCC          E(Eh)            E(eV) 
   0   1.0000    -432.537321    -11769.9389 
   1   1.0000     -56.288419     -1531.6858 
   2   1.0000     -50.144363     -1364.4975 
   3   1.0000     -50.144363     -1364.4975 
   4   1.0000     -50.144363     -1364.4975 
   5   1.0000      -8.017953      -218.1796 
   6   1.0000      -5.869179      -159.7085 
   7   1.0000      -5.869179      -159.7085 
   8   1.0000      -5.869179      -159.7085 
   9   1.0000      -2.104911       -57.2775 
  10   1.0000      -2.104911       -57.2775 
  11   1.0000      -2.104911       -57.2775 
  12   1.0000      -2.104911       -57.2775 
  13   1.0000      -2.104911       -57.2775 
  14   1.0000      -0.550907       -14.9909 
  15   0.0000       0.058903         1.6028 
  16   0.0000       0.058903         1.6028 
  17   0.0000       0.058903         1.6028 
  18   0.0000       0.358786         9.7631 
  19   0.0000       0.676876        18.4187 
  20   0.0000       0.676876        18.4187 
  21   0.0000       0.676876        18.4187 
  22   0.0000       0.702693        19.1213 
  23   0.0000       0.702693        19.1213 
  24   0.0000       0.702693        19.1213 
  25   0.0000       0.702693        19.1213 
  26   0.0000       0.702693        19.1213 
  27   0.0000       3.143020        85.5259 
  28   0.0000       3.143020        85.5259 
  29   0.0000       3.143020        85.5259 
  30   0.0000       3.143020        85.5259 
  31   0.0000       3.143020        85.5259 

                    ********************************
                    * MULLIKEN POPULATION ANALYSIS *
                    ********************************

--------------------------------------------
MULLIKEN ATOMIC CHARGES AND SPIN POPULATIONS
--------------------------------------------
   0 As:   -0.000000    3.000000
Sum of atomic charges         :   -0.0000000
Sum of atomic spin populations:    3.0000000

-----------------------------------------------------
MULLIKEN REDUCED ORBITAL CHARGES AND SPIN POPULATIONS
-----------------------------------------------------
CHARGE
  0 Ass       :     8.000000  s :     8.000000
      pz      :     5.000000  p :    15.000000
      px      :     5.000000
      py      :     5.000000
      dz2     :     2.000000  d :    10.000000
      dxz     :     2.000000
      dyz     :     2.000000
      dx2y2   :     2.000000
      dxy     :     2.000000

SPIN
  0 Ass       :    -0.000000  s :    -0.000000
      pz      :     1.000000  p :     3.000000
      px      :     1.000000
      py      :     1.000000
      dz2     :     0.000000  d :     0.000000
      dxz     :     0.000000
      dyz     :    -0.000000
      dx2y2   :    -0.000000
      dxy     :     0.000000


                     *******************************
                     * LOEWDIN POPULATION ANALYSIS *
                     *******************************

-------------------------------------------
LOEWDIN ATOMIC CHARGES AND SPIN POPULATIONS
-------------------------------------------
   0 As:   -0.000000    3.000000

----------------------------------------------------
LOEWDIN REDUCED ORBITAL CHARGES AND SPIN POPULATIONS
----------------------------------------------------
CHARGE
  0 Ass       :     8.000000  s :     8.000000
      pz      :     5.000000  p :    15.000000
      px      :     5.000000
      py      :     5.000000
      dz2     :     2.000000  d :    10.000000
      dxz     :     2.000000
      dyz     :     2.000000
      dx2y2   :     2.000000
      dxy     :     2.000000

SPIN
  0 Ass       :    -0.000000  s :    -0.000000
      pz      :     1.000000  p :     3.000000
      px      :     1.000000
      py      :     1.000000
      dz2     :     0.000000  d :     0.000000
      dxz     :     0.000000
      dyz     :    -0.000000
      dx2y2   :    -0.000000
      dxy     :     0.000000


                      *****************************
                      * MAYER POPULATION ANALYSIS *
                      *****************************

  NA   - Mulliken gross atomic population
  ZA   - Total nuclear charge
  QA   - Mulliken gross atomic charge
  VA   - Mayer's total valence
  BVA  - Mayer's bonded valence
  FA   - Mayer's free valence

  ATOM       NA         ZA         QA         VA         BVA        FA
  0 As    33.0000    33.0000    -0.0000     3.0015     0.0000     3.0015

  Mayer bond orders larger than 0.100000


-------
TIMINGS
-------

Total SCF time: 0 days 0 hours 0 min 2 sec 

Total time                  ....       2.451 sec
Sum of individual times     ....       1.882 sec  ( 76.8%)

Fock matrix formation       ....       1.310 sec  ( 53.5%)
Diagonalization             ....       0.038 sec  (  1.5%)
Density matrix formation    ....       0.002 sec  (  0.1%)
Population analysis         ....       0.248 sec  ( 10.1%)
Initial guess               ....       0.139 sec  (  5.7%)
Orbital Transformation      ....       0.000 sec  (  0.0%)
Orbital Orthonormalization  ....       0.000 sec  (  0.0%)
DIIS solution               ....       0.098 sec  (  4.0%)


           ************************************************************
           *        Program running with 24 parallel MPI-processes    *
           *              working on a common directory               *
           ************************************************************


------------------------------------------------------------------------------- 
                              ORCA-MATRIX DRIVEN CI                            
------------------------------------------------------------------------------- 

--------------------------------
AUTOMATIC CHOICE OF INCORE LEVEL
--------------------------------

Memory available                           ...   2500.00 MB
Memory needed for S+T                      ...      0.20 MB
Memory needed for J+K                      ...      0.41 MB
Memory needed for DIIS                     ...      2.83 MB
Memory needed for 3-ext                    ...      0.19 MB
Memory needed for 4-ext                    ...      0.16 MB
Memory needed for triples                  ...      0.10 MB
 -> Final InCoreLevel    ... 5
 -> check shows that triples correction can be computed


Wavefunction type
-----------------
Correlation treatment                      ...      CCSD     
Single excitations                         ... ON
Orbital optimization                       ... OFF
Calculation of Z vector                    ... OFF
Calculation of Brueckner orbitals          ... OFF
Perturbative triple excitations            ... ON
Calculation of F12 correction              ... OFF
Frozen core treatment                      ... chemical core (18 el)
Reference Wavefunction                     ... UHF
  Alpha-MOs occ    :     9 ...   17 (  9 MO's/  9 electrons)
  Beta-MOs occ     :     9 ...   14 (  6 MO's/  6 electrons)
  Alpha-MOs virt   :    18 ...   31 ( 14 MO's              )
  Beta-MOs virt    :    15 ...   31 ( 17 MO's              )
Number of AO's                             ...     32
Number of electrons                        ...     33
Number of correlated electrons             ...     15

Algorithmic settings
--------------------
Integral transformation                    ... AO direct full transformation
K(C) Formation                             ... FULL-MO TRAFO
Maximum number of iterations               ...        50
Convergence tolerance (max. residuum)      ... 1.000e-05
Level shift for amplitude update           ... 2.000e-01
Maximum number of DIIS vectors             ...         7
DIIS turned on at iteration                ...         0
Damping before turning on DIIS             ...     0.500
Damping after turning on DIIS              ...     0.000
Pair specific amplitude update             ... OFF
Natural orbital iterations                 ... OFF
Perturbative natural orbital generation    ... OFF
Printlevel                                 ... 2

Memory handling:
----------------
Maximum memory for working arrays          ...   2500 MB
Data storage in matrix containers          ... UNCOMPRESSED
Data type for integral storage             ... DOUBLE
In-Core Storage of quantities:
   Amplitudes+Sigma Vector      ... YES
   J+K operators                ... YES
   DIIS vectors                 ... YES
   3-external integrals         ... YES
   4-external integrals         ... YES


Initializing the integral package          ... done
Warning: reference  - re-canonicalizations have been set to INT 1 VIRT 1

--------------------------
UNRESTRICTED FOCK OPERATOR
--------------------------

<ss|ss>:          120 b            0 skpd (  0.0%)    0.000 s ( 0.002 ms/b)
<ss|sp>:          300 b            0 skpd (  0.0%)    0.000 s ( 0.001 ms/b)
<ss|sd>:          225 b            0 skpd (  0.0%)    0.000 s ( 0.001 ms/b)
<ss|pp>:          150 b            0 skpd (  0.0%)    0.001 s ( 0.004 ms/b)
<ss|pd>:          180 b            0 skpd (  0.0%)    0.000 s ( 0.002 ms/b)
<ss|dd>:           90 b            0 skpd (  0.0%)    0.001 s ( 0.010 ms/b)
<sp|sp>:          210 b            0 skpd (  0.0%)    0.000 s ( 0.002 ms/b)
<sp|sd>:          300 b            0 skpd (  0.0%)    0.001 s ( 0.002 ms/b)
<sp|pp>:          200 b            0 skpd (  0.0%)    0.001 s ( 0.006 ms/b)
<sp|pd>:          240 b            0 skpd (  0.0%)    0.001 s ( 0.004 ms/b)
<sp|dd>:          120 b            0 skpd (  0.0%)    0.002 s ( 0.018 ms/b)
<sd|sd>:          120 b            0 skpd (  0.0%)    0.001 s ( 0.005 ms/b)
<sd|pp>:          150 b            0 skpd (  0.0%)    0.001 s ( 0.009 ms/b)
<sd|pd>:          180 b            0 skpd (  0.0%)    0.001 s ( 0.007 ms/b)
<sd|dd>:           90 b            0 skpd (  0.0%)    0.003 s ( 0.033 ms/b)
<pp|pp>:           55 b            0 skpd (  0.0%)    0.001 s ( 0.022 ms/b)
<pp|pd>:          120 b            0 skpd (  0.0%)    0.001 s ( 0.009 ms/b)
<pp|dd>:           60 b            0 skpd (  0.0%)    0.003 s ( 0.042 ms/b)
<pd|pd>:           78 b            0 skpd (  0.0%)    0.002 s ( 0.027 ms/b)
<pd|dd>:           72 b            0 skpd (  0.0%)    0.005 s ( 0.068 ms/b)
<dd|dd>:           21 b            0 skpd (  0.0%)    0.004 s ( 0.206 ms/b)
Recanonicalizing the internal orbitals
Recanonicalizing the virtual orbitals
Time needed for Fock operator              ...            0.070 sec
Reference energy                           ...  -2233.916922846
Warning: for UHF the TrafoType has to be JK
Warning: for UHF the K(C)-option cannot be MO but must be AOX

-------------------------------
PARTIAL EXCHANGE TRANSFORMATION
-------------------------------

Transformation type                        ... two-operators
Generation of integrals (i,mue|j,nue)      ... ON
Generation of integrals (mue,kappa|nue,tau)... ON
Generation of integrals (i,mue|a,nue)      ... ON
Dimension of the basis                     ...   32
Number of internal alpha-MOs               ...    9 (   9-  17)
Number of internal beta-MOs                ...    6 (   9-  14)
Number of external alpha-MOs               ...   14 (  18-  31)
Number of external beta-MOs                ...   17 (  15-  31)
Pair cutoff                                ... 0.000e+00 Eh
Number of AO pairs in the trafo            ...  528
Total Number of distinct AO pairs          ...  528
Memory devoted for trafo                   ... 2500.0 MB 
Max. Number of MO pairs treated together   ... 320000      
Number Format for Storage                  ... Double (8 Byte)
Integral package used                      ... LIBINT

Starting integral evaluation:
    ... done with AO integral generation
Closing buffer AOK[aa] ( 0.00 GB; CompressionRatio= 0.00)
Closing buffer AOK[bb] ( 0.00 GB; CompressionRatio= 0.00)
Closing buffer AOK[ab] ( 0.00 GB; CompressionRatio= 0.00)
Closing buffer AOK[ba] ( 0.00 GB; CompressionRatio= 0.00)
Collecting buffer AOK 
Closing buffer IAAO1[aa] ( 0.00 GB; CompressionRatio= 0.00)
Closing buffer IAAO1[bb] ( 0.00 GB; CompressionRatio= 0.00)
Closing buffer IAAO1[ab] ( 0.00 GB; CompressionRatio= 0.00)
Closing buffer IAAO1[ba] ( 0.00 GB; CompressionRatio= 0.00)
Closing buffer IAAO2[aa] ( 0.00 GB; CompressionRatio= 0.00)
Closing buffer IAAO2[bb] ( 0.00 GB; CompressionRatio= 0.00)
Closing buffer IAAO2[ab] ( 0.00 GB; CompressionRatio= 0.00)
Closing buffer IAAO2[ba] ( 0.00 GB; CompressionRatio= 0.00)
Collecting buffer IAAO 
Closing buffer PRQS    ( 0.00 GB; CompressionRatio= 0.00)
Collecting buffer PRQS 
Number of alpha/alpha MO pairs in trafo    ...   45
Number of beta /beta  MO pairs in trafo    ...   21
Number of alpha/ beta MO pairs in trafo    ...   54
------------------------
SORTING OF (i,mue|j,nue)
------------------------

SORTING OF ALPHA/ALPHA PAIRS
IBATCH = 1 of  1
Closing buffer KAO[aa] ( 0.00 GB; CompressionRatio= 1.00)
Collecting buffer KAO 
SORTING OF BETA /BETA  PAIRS
IBATCH = 1 of  1
Closing buffer KAO[bb] ( 0.00 GB; CompressionRatio= 1.00)
Collecting buffer KAO 
SORTING OF ALPHA/BETA  PAIRS
IBATCH = 1 of  1
Closing buffer KAO[ab] ( 0.00 GB; CompressionRatio= 0.998537298879)
Collecting buffer KAO[ab] 
------------------------
SORTING OF (i,mue|a,nue)
------------------------

Number of alpha/alpha (i,a) pairs in trafo  ...  126
Number of beta /beta  (i,a) pairs in trafo  ...  102
Number of alpha/ beta (i,a) pairs in trafo  ...  153
Number of beta /alpha (i,a) pairs in trafo  ...   84
Setting up the alpha/alpha list             ... done
Setting up the beta /beta  list             ... done
Setting up the alpha/beta  list             ... done
Setting up the beta /alpha list             ... done
    ... Now sorting (i,mue|a,nue)integrals
    ... Integrals (i,b|a,c) will be made on the fly
SORTING OF ALPHA/ALPHA PAIRS
IBATCH = 1 of  1
Closing buffer IPAQ[aa]  0.00 GB; CompressionRatio= 1.00)
SORTING OF BETA /BETA  PAIRS
IBATCH = 1 of  1
Closing buffer IPAQ[bb]( 0.00 GB; CompressionRatio= 1.00)
SORTING OF ALPHA/BETA  PAIRS (NMatSort_ab=7)
IBATCH = 1 of  1
Closing buffer IPAQ[ab]( 0.00 GB; CompressionRatio= 1.00)
SORTING OF BETA/ALPHA  PAIRS
IBATCH = 1 of  1
Closing buffer IPAQ[ba]( 0.00 GB; CompressionRatio= 1.00)
N(AO-Batches) Done                         ...         0 
N(AO-Batches) Skipped                      ...         0 
N(IJ)-pairs Skipped                        ...         0 
TOTAL TIME for half transformation         ...     1.569 sec
AO-integral generation                     ...     0.000 sec
Half transformation                        ...     0.000 sec
K-integral sorting                         ...     0.641 sec
<ss|**>: 
------------------------------
PARTIAL COULOMB TRANSFORMATION
------------------------------

Transformation type                        ... two-operators
Dimension of the basis                     ...   32
Number of internal alpha-MOs               ...    9 (9-17)
Number of internal beta-MOs                ...    6 (9-14)
Pair cutoff                                ... 0.000e+00 Eh
Number of AO pairs included in the trafo   ...  528
Total Number of distinct AO pairs          ...  528
Memory devoted for trafo                   ... 2500.0 MB 
Max. Number of MO pairs treated together   ... 620606      
Max. Number of MOs treated per batch       ... 19393      
Number Format for Storage                  ... Double (8 Byte)
AO-integral source                         ... DIRECT
Integral package used                      ... LIBINT

Starting integral evaluation:
<sp|**>:         1170 b        0 skpd     0.001 s (  0.001 ms/b)
<sd|**>:         1560 b        0 skpd     0.009 s (  0.006 ms/b)
<pp|**>:         1170 b        0 skpd     0.016 s (  0.014 ms/b)
<pd|**>:          780 b        0 skpd     0.013 s (  0.016 ms/b)
         936 b        0 skpd     0.028 s (  0.030 ms/b)
<dd|**>:          468 b        0 skpd     0.025 s (  0.053 ms/b)
Closing buffer AOJ[aa] ( 0.00 GB; CompressionRatio= 0.97)
Closing buffer AOJ[bb] ( 0.00 GB; CompressionRatio= 0.00)
Collecting buffer AOJ 
    ... done with AO integral generation
Number of Alpha-MO pairs included          ...   45
Number of Beta-MO pairs included           ...   21
    ... Now sorting integrals
SORTING ALPHA/ALPHA PAIRS
IBATCH = 1 of  1
Closing buffer JAO[aa] ( 0.00 GB; CompressionRatio= 1.00)
SORTING BETA/BETA PAIRS
IBATCH = 1 of  1
Closing buffer JAO[bb] ( 0.00 GB; CompressionRatio= 1.00)
Collecting buffer JAO 
TOTAL TIME for half transformation         ...     0.317 sec
AO-integral generation                     ...     0.043 sec
Half transformation                        ...     0.050 sec
J-integral sorting                         ...     0.082 sec

-------------------------- SECOND HALF TRANSFORMATION -------------------------
Formation of (ij|kl),(ij|ka), (ij|ab)      ... ok (     0.117 sec)
Formation of (ik|jl),(ik|ja), (ia|jb)      ... ok (     0.194 sec)


-----------------------
SPIN UNRESTRICTED GUESS
-----------------------

Entering MDCI_UHF_Guess, Tailored=0
Spin-components of the MP2 energy:
EMP2(aa)=     -0.039644361
EMP2(bb)=     -0.020654203
EMP2(ab)=     -0.117230483

Initial guess performed in     0.002 sec
E(0)                                       ...  -2233.916922846
E(MP2)                                     ...     -0.177529047
Initial E(tot)                             ...  -2234.094451894
<T|T>                                      ...      0.045124862
Number of pairs included                   ... 105

------------------------------------------------
                  UHF COUPLED CLUSTER ITERATIONS
------------------------------------------------

Number of amplitudes to be optimized       ...        18654

Iter       E(tot)           E(Corr)          Delta-E          Residual     Time      <S|S>**1/2
  0  -2234.094451894     -0.177529047     -0.000000000      0.021274530    0.06      0.000000719
                           *** Turning on DIIS ***
  1  -2234.093348847     -0.176426001      0.001103046      0.005346998    0.04      0.016389022
  2  -2234.098241690     -0.181318844     -0.004892843      0.002282646    0.04      0.015989362
  3  -2234.099730776     -0.182807930     -0.001489085      0.000509834    0.04      0.017300492
  4  -2234.099818961     -0.182896115     -0.000088185      0.000082800    0.04      0.017411264
  5  -2234.099816389     -0.182893543      0.000002572      0.000036667    0.04      0.017418568
  6  -2234.099817771     -0.182894925     -0.000001381      0.000012728    0.04      0.017411557
  7  -2234.099817760     -0.182894914      0.000000011      0.000002801    0.04      0.017408142
               --- The Coupled-Cluster iterations have converged ---

----------------------
COUPLED CLUSTER ENERGY
----------------------

E(0)                                       ...  -2233.916922846
E(CORR)                                    ...     -0.182894914
E(TOT)                                     ...  -2234.099817760
Singles norm <S|S>**1/2                    ...      0.017408142 ( 0.010711821, 0.006696321)  
T1 diagnostic                              ...      0.004494763                              

------------------
LARGEST AMPLITUDES
------------------
  16a-> 23a  14b-> 17b       0.054372
  15a-> 22a  14b-> 15b       0.051562
  15a-> 20a  14b-> 17b       0.051460
  15a-> 21a  14b-> 16b       0.049740
  17a-> 19a  14b-> 17b       0.046359
  17a-> 22a  14b-> 16b       0.046066
  16a-> 19a  14b-> 16b       0.042225
  17a-> 21a  14b-> 15b       0.039213
  16a-> 20a  14b-> 15b       0.034726
  17a-> 20a  14b-> 15b       0.033277
  17a-> 19a  16a-> 23a       0.032588
  17a-> 23a  16a-> 19a       0.032588
  17a-> 21a  15a-> 22a       0.031449
  17a-> 22a  15a-> 21a       0.031449
  16a-> 20a  15a-> 23a       0.029040
  16a-> 23a  15a-> 20a       0.029040

----------------------
UHF TRIPLES CORRECTION (Algorithm 1)
----------------------

Multiplier for the singles contribution    ...      1.000000000

SPIN-CASE Alpha-Alpha-Alpha:
10% done
20% done
30% done
40% done
50% done
60% done
70% done
80% done
90% done


SPIN-CASE Beta-Beta-Beta:
10% done
20% done
30% done
40% done
50% done
60% done
70% done
80% done
90% done


SPIN-CASE Alpha-Alpha-Beta:
10% done
20% done
30% done
40% done
50% done
60% done
70% done
80% done
90% done


SPIN-CASE Beta-Beta-Alpha:
10% done
20% done
30% done
40% done
50% done
60% done
70% done
80% done
90% done


Triples Correction (T)                     ...     -0.003659874
    alpha-alpha-alpha ... -0.000251466 (  6.9%)
    alpha-alpha-beta  ... -0.002201432 ( 60.2%)
    alpha-beta -beta  ... -0.001103059 ( 30.1%)
    beta -beta -beta  ... -0.000103916 (  2.8%)
Scaling of triples based on CCSD energies (Peterson et al. Molecular Physics 113, 1551 (2015))
E(T*) = f*E(T) where f = E(F12-CCSD)/E(CCSD) 
f = CCSD (with F12)/ CCSD (without F12)    ...      1.000000000
Scaled triples correction (T)              ...     -0.003659874

Final correlation energy                   ...     -0.186554787
E(CCSD)                                    ...  -2234.099817760
E(CCSD(T))                                 ...  -2234.103477634



        !!!!!!!!!!!!!!!!!!!!!!!!!!!!!!!!!!!!!!!!!!!!!!!!!!!!!!!!!!!!!!!!!!!!!!!!!! 
        !  Warning: Densities are linearized densities                           !
        !!!!!!!!!!!!!!!!!!!!!!!!!!!!!!!!!!!!!!!!!!!!!!!!!!!!!!!!!!!!!!!!!!!!!!!!!! 

NORM  =      1.062069944 sqrt=     1.030567778
W(HF) =      0.941557574
------------------------------------------------------------------------------
                           ORCA POPULATION ANALYSIS
------------------------------------------------------------------------------
Input electron density              ... 33_As.mdcip
Input spin density                  ... 33_As.mdcir
BaseName (.gbw .S,...)              ... 33_As

                    ********************************
                    * MULLIKEN POPULATION ANALYSIS *
                    ********************************

------------------------------------------
MULLIKEN ATOMIC CHARGES AND SPIN DENSITIES
------------------------------------------
   0 As:    0.000000    3.000000
Sum of atomic charges       :    0.0000000
Sum of atomic spin densities:    3.0000000

---------------------------------------------------
MULLIKEN REDUCED ORBITAL CHARGES AND SPIN DENSITIES
---------------------------------------------------
CHARGE
  0 Ass       :     7.957343  s :     7.957343
      pz      :     4.998027  p :    14.994081
      px      :     4.998027
      py      :     4.998027
      dz2     :     2.009715  d :    10.048576
      dxz     :     2.009715
      dyz     :     2.009715
      dx2y2   :     2.009715
      dxy     :     2.009715

SPIN
  0 Ass       :     0.032681  s :     0.032681
      pz      :     0.974125  p :     2.922375
      px      :     0.974125
      py      :     0.974125
      dz2     :     0.008989  d :     0.044945
      dxz     :     0.008989
      dyz     :     0.008989
      dx2y2   :     0.008989
      dxy     :     0.008989


                     *******************************
                     * LOEWDIN POPULATION ANALYSIS *
                     *******************************

-----------------------------------------
LOEWDIN ATOMIC CHARGES AND SPIN DENSITIES
-----------------------------------------
   0 As:   -0.000000    3.000000

--------------------------------------------------
LOEWDIN REDUCED ORBITAL CHARGES AND SPIN DENSITIES
--------------------------------------------------
CHARGE
  0 Ass       :     7.957343  s :     7.957343
      pz      :     4.998027  p :    14.994081
      px      :     4.998027
      py      :     4.998027
      dz2     :     2.009715  d :    10.048576
      dxz     :     2.009715
      dyz     :     2.009715
      dx2y2   :     2.009715
      dxy     :     2.009715

SPIN
  0 Ass       :     0.032681  s :     0.032681
      pz      :     0.974125  p :     2.922375
      px      :     0.974125
      py      :     0.974125
      dz2     :     0.008989  d :     0.044945
      dxz     :     0.008989
      dyz     :     0.008989
      dx2y2   :     0.008989
      dxy     :     0.008989


                      *****************************
                      * MAYER POPULATION ANALYSIS *
                      *****************************

  NA   - Mulliken gross atomic population
  ZA   - Total nuclear charge
  QA   - Mulliken gross atomic charge
  VA   - Mayer's total valence
  BVA  - Mayer's bonded valence
  FA   - Mayer's free valence

  ATOM       NA         ZA         QA         VA         BVA        FA
  0 As    33.0000    33.0000     0.0000     3.3207     0.0000     3.3207





------------------------------------------------------------------------------- 
                                     TIMINGS                                   
------------------------------------------------------------------------------- 


Total execution time                   ...        3.021 sec

Fock Matrix Formation                  ...        0.070 sec (  2.3%)
Initial Guess                          ...        0.002 sec (  0.1%)
DIIS Solver                            ...        0.022 sec (  0.7%)
State Vector Update                    ...        0.002 sec (  0.1%)
Sigma-vector construction              ...        0.301 sec ( 10.0%)
  <D|H|D>(2-ext)                       ...        0.003 sec (  0.9% of sigma)
  <D|H|D>(4-ext)                       ...        0.103 sec ( 34.2% of sigma)
  <S|H|0>                              ...        0.002 sec (  0.8% of sigma)
  <D|H|S>(1-ext)                       ...        0.002 sec (  0.8% of sigma)
  Fock-dressing                        ...        0.105 sec ( 34.9% of sigma)
  (ik|jl)-dressing                     ...        0.001 sec (  0.5% of sigma)
  (ij|ab),(ia|jb)-dressing             ...        0.059 sec ( 19.7% of sigma)
Total Time for computing (T)           ...        0.003 sec (  0.1% of ALL)
  N**6 triples energy contributions    ...        0.001 sec ( 38.5% of (T))


-------------------------   --------------------
FINAL SINGLE POINT ENERGY     -2234.103477633544
-------------------------   --------------------


                            ***************************************
                            *     ORCA property calculations      *
                            ***************************************

                                    ---------------------
                                    Active property flags
                                    ---------------------
   (+) Dipole Moment


------------------------------------------------------------------------------
                       ORCA ELECTRIC PROPERTIES CALCULATION
------------------------------------------------------------------------------

Dipole Moment Calculation                       ... on
Quadrupole Moment Calculation                   ... off
Polarizability Calculation                      ... off
GBWName                                         ... 33_As.gbw
Electron density file                           ... 33_As.scfp
The origin for moment calculation is the CENTER OF MASS  = ( 0.000000,  0.000000  0.000000)

-------------
DIPOLE MOMENT
-------------
                                X             Y             Z
Electronic contribution:      0.00000      -0.00000       0.00000
Nuclear contribution   :      0.00000       0.00000       0.00000
                        -----------------------------------------
Total Dipole Moment    :      0.00000      -0.00000       0.00000
                        -----------------------------------------
Magnitude (a.u.)       :      0.00000
Magnitude (Debye)      :      0.00000



--------------------
Rotational spectrum 
--------------------
 
Rotational constants in cm-1:     0.000000     0.000000     0.000000 
Rotational constants in MHz :     0.000000     0.000000     0.000000 

 Dipole components along the rotational axes: 
x,y,z [a.u.] :     0.000000    -0.000000     0.000000 
x,y,z [Debye]:     0.000000    -0.000000     0.000000 

 

                           *** MDCI DENSITY ***

------------------------------------------------------------------------------
                       ORCA ELECTRIC PROPERTIES CALCULATION
------------------------------------------------------------------------------

Dipole Moment Calculation                       ... on
Quadrupole Moment Calculation                   ... off
Polarizability Calculation                      ... off
GBWName                                         ... 33_As.gbw
Electron density file                           ... 33_As.mdcip
The origin for moment calculation is the CENTER OF MASS  = ( 0.000000,  0.000000  0.000000)

-------------
DIPOLE MOMENT
-------------
                                X             Y             Z
Electronic contribution:     -0.00000      -0.00000       0.00000
Nuclear contribution   :      0.00000       0.00000       0.00000
                        -----------------------------------------
Total Dipole Moment    :     -0.00000      -0.00000       0.00000
                        -----------------------------------------
Magnitude (a.u.)       :      0.00000
Magnitude (Debye)      :      0.00000



--------------------
Rotational spectrum 
--------------------
 
Rotational constants in cm-1:     0.000000     0.000000     0.000000 
Rotational constants in MHz :     0.000000     0.000000     0.000000 

 Dipole components along the rotational axes: 
x,y,z [a.u.] :    -0.000000    -0.000000     0.000000 
x,y,z [Debye]:    -0.000000    -0.000000     0.000000 

 

Timings for individual modules:

Sum of individual times         ...        7.221 sec (=   0.120 min)
GTO integral calculation        ...        0.821 sec (=   0.014 min)  11.4 %
SCF iterations                  ...        2.892 sec (=   0.048 min)  40.0 %
MDCI module                     ...        3.508 sec (=   0.058 min)  48.6 %
                             ****ORCA TERMINATED NORMALLY****
TOTAL RUN TIME: 0 days 0 hours 0 minutes 8 seconds 77 msec
