
                                 *****************
                                 * O   R   C   A *
                                 *****************

           --- An Ab Initio, DFT and Semiempirical electronic structure package ---

                  #######################################################
                  #                        -***-                        #
                  #          Department of theory and spectroscopy      #
                  #               Directorship: Frank Neese             #
                  #        Max Planck Institute fuer Kohlenforschung    #
                  #                Kaiser Wilhelm Platz 1               #
                  #                 D-45470 Muelheim/Ruhr               #
                  #                      Germany                        #
                  #                                                     #
                  #                  All rights reserved                #
                  #                        -***-                        #
                  #######################################################


                         Program Version 4.2.0 -  RELEASE  -


 With contributions from (in alphabetic order):
   Daniel Aravena         : Magnetic Suceptibility
   Michael Atanasov       : Ab Initio Ligand Field Theory (pilot matlab implementation)
   Alexander A. Auer      : GIAO ZORA, VPT2
   Ute Becker             : Parallelization
   Giovanni Bistoni       : ED, misc. LED, open-shell LED, HFLED
   Martin Brehm           : Molecular dynamics
   Dmytro Bykov           : SCF Hessian
   Vijay G. Chilkuri      : MRCI spin determinant printing, contributions to CSF-ICE
   Dipayan Datta          : RHF DLPNO-CCSD density
   Achintya Kumar Dutta   : EOM-CC, STEOM-CC
   Dmitry Ganyushin       : Spin-Orbit,Spin-Spin,Magnetic field MRCI
   Miquel Garcia          : C-PCM Hessian, Gaussian charge scheme
   Yang Guo               : DLPNO-NEVPT2, CIM, IAO-localization
   Andreas Hansen         : Spin unrestricted coupled pair/coupled cluster methods
   Benjamin Helmich-Paris : CASSCF linear response (MC-RPA)
   Lee Huntington         : MR-EOM, pCC
   Robert Izsak           : Overlap fitted RIJCOSX, COSX-SCS-MP3, EOM
   Christian Kollmar      : KDIIS, OOCD, Brueckner-CCSD(T), CCSD density
   Simone Kossmann        : Meta GGA functionals, TD-DFT gradient, OOMP2, MP2 Hessian
   Martin Krupicka        : AUTO-CI
   Lucas Lang             : DCDCAS
   Dagmar Lenk            : GEPOL surface, SMD
   Dimitrios Liakos       : Extrapolation schemes; Compound Job, initial MDCI parallelization
   Dimitrios Manganas     : Further ROCIS development; embedding schemes
   Dimitrios Pantazis     : SARC Basis sets
   Taras Petrenko         : DFT Hessian,TD-DFT gradient, ASA, ECA, R-Raman, ABS, FL, XAS/XES, NRVS
   Peter Pinski           : DLPNO-MP2, DLPNO-MP2 Gradient
   Christoph Reimann      : Effective Core Potentials
   Marius Retegan         : Local ZFS, SOC
   Christoph Riplinger    : Optimizer, TS searches, QM/MM, DLPNO-CCSD(T), (RO)-DLPNO pert. Triples
   Tobias Risthaus        : Range-separated hybrids, TD-DFT gradient, RPA, STAB
   Michael Roemelt        : Original ROCIS implementation
   Masaaki Saitow         : Open-shell DLPNO-CCSD energy and density
   Barbara Sandhoefer     : DKH picture change effects
   Avijit Sen             : IP-ROCIS
   Kantharuban Sivalingam : CASSCF convergence, NEVPT2, FIC-MRCI
   Bernardo de Souza      : ESD, SOC TD-DFT
   Georgi Stoychev        : AutoAux, RI-MP2 NMR
   Willem Van den Heuvel  : Paramagnetic NMR
   Boris Wezisla          : Elementary symmetry handling
   Frank Wennmohs         : Technical directorship


 We gratefully acknowledge several colleagues who have allowed us to
 interface, adapt or use parts of their codes:
   Stefan Grimme, W. Hujo, H. Kruse,             : VdW corrections, initial TS optimization,
                  C. Bannwarth                     DFT functionals, gCP, sTDA/sTD-DF
   Ed Valeev, F. Pavosevic, A. Kumar             : LibInt (2-el integral package), F12 methods
   Garnet Chan, S. Sharma, J. Yang, R. Olivares  : DMRG
   Ulf Ekstrom                                   : XCFun DFT Library
   Mihaly Kallay                                 : mrcc  (arbitrary order and MRCC methods)
   Andreas Klamt, Michael Diedenhofen            : otool_cosmo (COSMO solvation model)
   Jiri Pittner, Ondrej Demel                    : Mk-CCSD
   Frank Weinhold                                : gennbo (NPA and NBO analysis)
   Christopher J. Cramer and Donald G. Truhlar   : smd solvation model
   Lars Goerigk                                  : TD-DFT with DH, B97 family of functionals
   V. Asgeirsson, H. Jonsson                     : NEB implementation
   FAccTs GmbH                                   : IRC, NEB, NEB-TS, Multilevel, MM, QM/MM, CI optimization
   S Lehtola, MJT Oliveira, MAL Marques          : LibXC Library


 Your calculation uses the libint2 library for the computation of 2-el integrals
 For citations please refer to: http://libint.valeyev.net

 Your ORCA version has been built with support for libXC version: 4.2.3
 For citations please refer to: https://tddft.org/programs/libxc/

 This ORCA versions uses:
   CBLAS   interface :  Fast vector & matrix operations
   LAPACKE interface :  Fast linear algebra routines
   SCALAPACK package :  Parallel linear algebra routines


----- Orbital basis set information -----
Your calculation utilizes the basis: def2-SVP
   F. Weigend and R. Ahlrichs, Phys. Chem. Chem. Phys. 7, 3297 (2005).

================================================================================
                                        WARNINGS
                       Please study these warnings very carefully!
================================================================================


WARNING: your system is open-shell and RHF/RKS was chosen
  ===> : WILL SWITCH to UHF/UKS


WARNING: MDCI localization with Augmented Hessian Foster-Boys
  ===> : Switching off randomization!

WARNING: Post HF methods need fully converged wavefunctions
  ===> : Setting SCFConvForced true
         You can overwrite this default with %scf ConvForced false 


INFO   : the flag for use of LIBINT has been found!

================================================================================
                                       INPUT FILE
================================================================================
NAME = 35_Br.in
|  1> #
|  2> # 35_Br CCSD(T)/Def2-SVP
|  3> #
|  4> ! CCSD(T) Def2-SVP tightscf
|  5> 
|  6> *xyz 0 2
|  7>  Br 0.0 0.0 0.0
|  8> *
|  9> 
| 10> %maxcore 5000 
| 11> 
| 12> %pal
| 13> nprocs 24
| 14> end
| 15> 
| 16> 
| 17>                          ****END OF INPUT****
================================================================================

                       ****************************
                       * Single Point Calculation *
                       ****************************

---------------------------------
CARTESIAN COORDINATES (ANGSTROEM)
---------------------------------
  Br     0.000000    0.000000    0.000000

----------------------------
CARTESIAN COORDINATES (A.U.)
----------------------------
  NO LB      ZA    FRAG     MASS         X           Y           Z
   0 Br   35.0000    0    79.900    0.000000    0.000000    0.000000

--------------------------------
INTERNAL COORDINATES (ANGSTROEM)
--------------------------------
 Br     0   0   0     0.000000000000     0.00000000     0.00000000

---------------------------
INTERNAL COORDINATES (A.U.)
---------------------------
 Br     0   0   0     0.000000000000     0.00000000     0.00000000

---------------------
BASIS SET INFORMATION
---------------------
There are 1 groups of distinct atoms

 Group   1 Type Br  : 14s10p6d contracted to 5s4p3d pattern {63311/5311/411}

Atom   0Br   basis set group =>   1


           ************************************************************
           *        Program running with 24 parallel MPI-processes    *
           *              working on a common directory               *
           ************************************************************
------------------------------------------------------------------------------
                           ORCA GTO INTEGRAL CALCULATION
------------------------------------------------------------------------------

                         BASIS SET STATISTICS AND STARTUP INFO

 # of primitive gaussian shells          ...   30
 # of primitive gaussian functions       ...   74
 # of contracted shells                  ...   12
 # of contracted basis functions         ...   32
 Highest angular momentum                ...    2
 Maximum contraction depth               ...    6
 Integral package used                   ... LIBINT
 Integral threshhold            Thresh   ...  2.500e-11
 Primitive cut-off              TCut     ...  2.500e-12


------------------------------ INTEGRAL EVALUATION ----------------------------


 * One electron integrals 
 Pre-screening matrix                    ... done
 Shell pair data                         ... done (   0.000 sec)



           ************************************************************
           *        Program running with 24 parallel MPI-processes    *
           *              working on a common directory               *
           ************************************************************
-------------------------------------------------------------------------------
                                 ORCA SCF
-------------------------------------------------------------------------------

------------
SCF SETTINGS
------------
Hamiltonian:
 Ab initio Hamiltonian  Method          .... Hartree-Fock(GTOs)


General Settings:
 Integral files         IntName         .... 35_Br
 Hartree-Fock type      HFTyp           .... UHF
 Total Charge           Charge          ....    0
 Multiplicity           Mult            ....    2
 Number of Electrons    NEL             ....   35
 Basis Dimension        Dim             ....   32
 Nuclear Repulsion      ENuc            ....      0.0000000000 Eh

Convergence Acceleration:
 DIIS                   CNVDIIS         .... on
   Start iteration      DIISMaxIt       ....    12
   Startup error        DIISStart       ....  0.200000
   # of expansion vecs  DIISMaxEq       ....     5
   Bias factor          DIISBfac        ....   1.050
   Max. coefficient     DIISMaxC        ....  10.000
 Newton-Raphson         CNVNR           .... off
 SOSCF                  CNVSOSCF        .... off
 Level Shifting         CNVShift        .... on
   Level shift para.    LevelShift      ....    0.2500
   Turn off err/grad.   ShiftErr        ....    0.0010
 Zerner damping         CNVZerner       .... off
 Static damping         CNVDamp         .... on
   Fraction old density DampFac         ....    0.7000
   Max. Damping (<1)    DampMax         ....    0.9800
   Min. Damping (>=0)   DampMin         ....    0.0000
   Turn off err/grad.   DampErr         ....    0.1000
 Fernandez-Rico         CNVRico         .... off

SCF Procedure:
 Maximum # iterations   MaxIter         ....   125
 SCF integral mode      SCFMode         .... Direct
   Integral package                     .... LIBINT
 Reset frequency        DirectResetFreq ....    20
 Integral Threshold     Thresh          ....  2.500e-11 Eh
 Primitive CutOff       TCut            ....  2.500e-12 Eh

Convergence Tolerance:
 Convergence Check Mode ConvCheckMode   .... Total+1el-Energy
 Convergence forced     ConvForced      .... 1
 Energy Change          TolE            ....  1.000e-08 Eh
 1-El. energy change                    ....  1.000e-05 Eh
 DIIS Error             TolErr          ....  5.000e-07


Diagonalization of the overlap matrix:
Smallest eigenvalue                        ... 1.118e-01
Time for diagonalization                   ...    0.001 sec
Threshold for overlap eigenvalues          ... 1.000e-08
Number of eigenvalues below threshold      ... 0
Time for construction of square roots      ...    0.012 sec
Total time needed                          ...    0.013 sec

-------------------
DFT GRID GENERATION
-------------------

General Integration Accuracy     IntAcc      ...  4.340
Radial Grid Type                 RadialGrid  ... Gauss-Chebyshev
Angular Grid (max. acc.)         AngularGrid ... Lebedev-110
Angular grid pruning method      GridPruning ... 3 (G Style)
Weight generation scheme         WeightScheme... Becke
Basis function cutoff            BFCut       ...    1.0000e-11
Integration weight cutoff        WCut        ...    1.0000e-14
Grids for H and He will be reduced by one unit

# of grid points (after initial pruning)     ...   2890 (   0.0 sec)
# of grid points (after weights+screening)   ...   2890 (   0.0 sec)
Grid point division into batches done        ...    0.0 sec
Reduced shell lists constructed in    0.0 sec

Total number of grid points                  ...     2890
Total number of batches                      ...       46
Average number of points per batch           ...       62
Average number of grid points per atom       ...     2890
Average number of shells per batch           ...     3.33 (27.78%)
Average number of basis functions per batch  ...     8.67 (27.08%)
Average number of large shells per batch     ...     3.33 (100.00%)
Average number of large basis fcns per batch ...     8.67 (100.00%)
Maximum spatial batch extension              ...  14.66, 21.55, 21.55 au
Average spatial batch extension              ...   0.64,  0.94,  0.94 au

Time for grid setup =    0.048 sec

------------------------------
INITIAL GUESS: MODEL POTENTIAL
------------------------------
Loading Hartree-Fock densities                     ... done
Calculating cut-offs                               ... done
Setting up the integral package                    ... done
Initializing the effective Hamiltonian             ... done
Starting the Coulomb interaction                   ... done (   0.0 sec)
Reading the grid                                   ... done
Mapping shells                                     ... done
Starting the XC term evaluation                    ... done (   0.0 sec)
Transforming the Hamiltonian                       ... done (   0.0 sec)
Diagonalizing the Hamiltonian                      ... done (   0.0 sec)
Back transforming the eigenvectors                 ... done (   0.0 sec)
Now organizing SCF variables                       ... done
                      ------------------
                      INITIAL GUESS DONE (   0.2 sec)
                      ------------------
--------------
SCF ITERATIONS
--------------
ITER       Energy         Delta-E        Max-DP      RMS-DP      [F,P]     Damp
               ***  Starting incremental Fock matrix formation  ***
  0  -2572.0599638512   0.000000000000 0.01975336  0.00090612  0.1614490 0.7000
  1  -2572.0667510826  -0.006787231408 0.01937637  0.00081500  0.0985852 0.7000
                               ***Turning on DIIS***
  2  -2572.0712942148  -0.004543132233 0.05428996  0.00221105  0.0590415 0.0000
  3  -2572.1608667664  -0.089572551606 0.01332290  0.00056849  0.0195280 0.0000
  4  -2572.0606553264   0.100211439958 0.00475421  0.00019459  0.0031036 0.0000
  5  -2572.0817501195  -0.021094793012 0.00230262  0.00009140  0.0007776 0.0000
  6  -2572.0821588547  -0.000408735243 0.00078664  0.00003286  0.0002481 0.0000
  7  -2572.0822404044  -0.000081549749 0.00009574  0.00000484  0.0000293 0.0000
  8  -2572.0822007809   0.000039623542 0.00002661  0.00000100  0.0000026 0.0000
                            ***DIIS convergence achieved***

               *****************************************************
               *                     SUCCESS                       *
               *           SCF CONVERGED AFTER   9 CYCLES          *
               *****************************************************


----------------
TOTAL SCF ENERGY
----------------

Total Energy       :        -2572.08220159 Eh          -69989.91492 eV

Components:
Nuclear Repulsion  :            0.00000000 Eh               0.00000 eV
Electronic Energy  :        -2572.08220159 Eh          -69989.91492 eV
One Electron Energy:        -3581.61265301 Eh          -97460.63509 eV
Two Electron Energy:         1009.53045143 Eh           27470.72017 eV

Virial components:
Potential Energy   :        -5144.15696697 Eh         -139979.62750 eV
Kinetic Energy     :         2572.07476538 Eh           69989.71257 eV
Virial Ratio       :            2.00000289


---------------
SCF CONVERGENCE
---------------

  Last Energy change         ...   -8.0737e-07  Tolerance :   1.0000e-08
  Last MAX-Density change    ...    6.0817e-06  Tolerance :   1.0000e-07
  Last RMS-Density change    ...    3.0783e-07  Tolerance :   5.0000e-09
  Last DIIS Error            ...    2.9096e-07  Tolerance :   5.0000e-07

             **** THE GBW FILE WAS UPDATED (35_Br.gbw) ****
             **** DENSITY FILE WAS UPDATED (35_Br.scfp) ****
             **** ENERGY FILE WAS UPDATED (35_Br.en.tmp) ****
----------------------
UHF SPIN CONTAMINATION
----------------------

Expectation value of <S**2>     :     0.755906
Ideal value S*(S+1) for S=0.5   :     0.750000
Deviation                       :     0.005906

             **** THE GBW FILE WAS UPDATED (35_Br.gbw) ****
             **** DENSITY FILE WAS UPDATED (35_Br.scfp) ****
----------------
ORBITAL ENERGIES
----------------
                 SPIN UP ORBITALS
  NO   OCC          E(Eh)            E(eV) 
   0   1.0000    -490.006362    -13333.7510 
   1   1.0000     -65.173220     -1773.4535 
   2   1.0000     -58.550145     -1593.2305 
   3   1.0000     -58.542682     -1593.0274 
   4   1.0000     -58.542682     -1593.0274 
   5   1.0000      -9.866594      -268.4837 
   6   1.0000      -7.494500      -203.9357 
   7   1.0000      -7.469589      -203.2579 
   8   1.0000      -7.469589      -203.2579 
   9   1.0000      -3.228267       -87.8456 
  10   1.0000      -3.222460       -87.6876 
  11   1.0000      -3.222460       -87.6876 
  12   1.0000      -3.205314       -87.2210 
  13   1.0000      -3.205314       -87.2210 
  14   1.0000      -1.040034       -28.3008 
  15   1.0000      -0.515561       -14.0291 
  16   1.0000      -0.449044       -12.2191 
  17   1.0000      -0.449044       -12.2191 
  18   0.0000       0.445987        12.1359 
  19   0.0000       0.662459        18.0264 
  20   0.0000       0.675534        18.3822 
  21   0.0000       0.675534        18.3822 
  22   0.0000       0.719491        19.5784 
  23   0.0000       0.719491        19.5784 
  24   0.0000       0.762415        20.7464 
  25   0.0000       0.807779        21.9808 
  26   0.0000       0.807779        21.9808 
  27   0.0000       3.832357       104.2837 
  28   0.0000       3.843325       104.5822 
  29   0.0000       3.843325       104.5822 
  30   0.0000       3.876812       105.4934 
  31   0.0000       3.876812       105.4934 

                 SPIN DOWN ORBITALS
  NO   OCC          E(Eh)            E(eV) 
   0   1.0000    -490.002015    -13333.6327 
   1   1.0000     -65.171063     -1773.3948 
   2   1.0000     -58.541491     -1592.9949 
   3   1.0000     -58.541491     -1592.9949 
   4   1.0000     -58.538886     -1592.9241 
   5   1.0000      -9.858472      -268.2627 
   6   1.0000      -7.467336      -203.1966 
   7   1.0000      -7.467336      -203.1966 
   8   1.0000      -7.466099      -203.1629 
   9   1.0000      -3.217753       -87.5595 
  10   1.0000      -3.214423       -87.4689 
  11   1.0000      -3.214423       -87.4689 
  12   1.0000      -3.204693       -87.2041 
  13   1.0000      -3.204693       -87.2041 
  14   1.0000      -0.933974       -25.4147 
  15   1.0000      -0.427371       -11.6293 
  16   1.0000      -0.427371       -11.6293 
  17   0.0000      -0.038828        -1.0566 
  18   0.0000       0.467143        12.7116 
  19   0.0000       0.726610        19.7721 
  20   0.0000       0.726610        19.7721 
  21   0.0000       0.755082        20.5468 
  22   0.0000       0.755082        20.5468 
  23   0.0000       0.766693        20.8628 
  24   0.0000       0.816987        22.2313 
  25   0.0000       0.816987        22.2313 
  26   0.0000       0.846980        23.0475 
  27   0.0000       3.864709       105.1641 
  28   0.0000       3.868643       105.2711 
  29   0.0000       3.868643       105.2711 
  30   0.0000       3.880402       105.5911 
  31   0.0000       3.880402       105.5911 

                    ********************************
                    * MULLIKEN POPULATION ANALYSIS *
                    ********************************

--------------------------------------------
MULLIKEN ATOMIC CHARGES AND SPIN POPULATIONS
--------------------------------------------
   0 Br:   -0.000000    1.000000
Sum of atomic charges         :   -0.0000000
Sum of atomic spin populations:    1.0000000

-----------------------------------------------------
MULLIKEN REDUCED ORBITAL CHARGES AND SPIN POPULATIONS
-----------------------------------------------------
CHARGE
  0 Brs       :     7.997103  s :     7.997103
      pz      :     5.999979  p :    17.000000
      px      :     5.984593
      py      :     5.015428
      dz2     :     2.000724  d :    10.002897
      dxz     :     2.000000
      dyz     :     2.000000
      dx2y2   :     2.002041
      dxy     :     2.000132

SPIN
  0 Brs       :     0.000443  s :     0.000443
      pz      :     0.000021  p :     1.000000
      px      :     0.015407
      py      :     0.984572
      dz2     :    -0.000111  d :    -0.000443
      dxz     :    -0.000000
      dyz     :    -0.000000
      dx2y2   :    -0.000312
      dxy     :    -0.000020


                     *******************************
                     * LOEWDIN POPULATION ANALYSIS *
                     *******************************

-------------------------------------------
LOEWDIN ATOMIC CHARGES AND SPIN POPULATIONS
-------------------------------------------
   0 Br:   -0.000000    1.000000

----------------------------------------------------
LOEWDIN REDUCED ORBITAL CHARGES AND SPIN POPULATIONS
----------------------------------------------------
CHARGE
  0 Brs       :     7.997103  s :     7.997103
      pz      :     5.999979  p :    17.000000
      px      :     5.984593
      py      :     5.015428
      dz2     :     2.000724  d :    10.002897
      dxz     :     2.000000
      dyz     :     2.000000
      dx2y2   :     2.002041
      dxy     :     2.000132

SPIN
  0 Brs       :     0.000443  s :     0.000443
      pz      :     0.000021  p :     1.000000
      px      :     0.015407
      py      :     0.984572
      dz2     :    -0.000111  d :    -0.000443
      dxz     :    -0.000000
      dyz     :    -0.000000
      dx2y2   :    -0.000312
      dxy     :    -0.000020


                      *****************************
                      * MAYER POPULATION ANALYSIS *
                      *****************************

  NA   - Mulliken gross atomic population
  ZA   - Total nuclear charge
  QA   - Mulliken gross atomic charge
  VA   - Mayer's total valence
  BVA  - Mayer's bonded valence
  FA   - Mayer's free valence

  ATOM       NA         ZA         QA         VA         BVA        FA
  0 Br    35.0000    35.0000    -0.0000     1.0118     0.0000     1.0118

  Mayer bond orders larger than 0.100000


-------
TIMINGS
-------

Total SCF time: 0 days 0 hours 0 min 2 sec 

Total time                  ....       2.514 sec
Sum of individual times     ....       2.137 sec  ( 85.0%)

Fock matrix formation       ....       1.550 sec  ( 61.6%)
Diagonalization             ....       0.028 sec  (  1.1%)
Density matrix formation    ....       0.002 sec  (  0.1%)
Population analysis         ....       0.152 sec  (  6.0%)
Initial guess               ....       0.146 sec  (  5.8%)
Orbital Transformation      ....       0.000 sec  (  0.0%)
Orbital Orthonormalization  ....       0.000 sec  (  0.0%)
DIIS solution               ....       0.213 sec  (  8.5%)


           ************************************************************
           *        Program running with 24 parallel MPI-processes    *
           *              working on a common directory               *
           ************************************************************


------------------------------------------------------------------------------- 
                              ORCA-MATRIX DRIVEN CI                            
------------------------------------------------------------------------------- 

--------------------------------
AUTOMATIC CHOICE OF INCORE LEVEL
--------------------------------

Memory available                           ...   2500.00 MB
Memory needed for S+T                      ...      0.20 MB
Memory needed for J+K                      ...      0.41 MB
Memory needed for DIIS                     ...      2.83 MB
Memory needed for 3-ext                    ...      0.19 MB
Memory needed for 4-ext                    ...      0.16 MB
Memory needed for triples                  ...      0.10 MB
 -> Final InCoreLevel    ... 5
 -> check shows that triples correction can be computed


Wavefunction type
-----------------
Correlation treatment                      ...      CCSD     
Single excitations                         ... ON
Orbital optimization                       ... OFF
Calculation of Z vector                    ... OFF
Calculation of Brueckner orbitals          ... OFF
Perturbative triple excitations            ... ON
Calculation of F12 correction              ... OFF
Frozen core treatment                      ... chemical core (18 el)
Reference Wavefunction                     ... UHF
  Alpha-MOs occ    :     9 ...   17 (  9 MO's/  9 electrons)
  Beta-MOs occ     :     9 ...   16 (  8 MO's/  8 electrons)
  Alpha-MOs virt   :    18 ...   31 ( 14 MO's              )
  Beta-MOs virt    :    17 ...   31 ( 15 MO's              )
Number of AO's                             ...     32
Number of electrons                        ...     35
Number of correlated electrons             ...     17

Algorithmic settings
--------------------
Integral transformation                    ... AO direct full transformation
K(C) Formation                             ... FULL-MO TRAFO
Maximum number of iterations               ...        50
Convergence tolerance (max. residuum)      ... 1.000e-05
Level shift for amplitude update           ... 2.000e-01
Maximum number of DIIS vectors             ...         7
DIIS turned on at iteration                ...         0
Damping before turning on DIIS             ...     0.500
Damping after turning on DIIS              ...     0.000
Pair specific amplitude update             ... OFF
Natural orbital iterations                 ... OFF
Perturbative natural orbital generation    ... OFF
Printlevel                                 ... 2

Memory handling:
----------------
Maximum memory for working arrays          ...   2500 MB
Data storage in matrix containers          ... UNCOMPRESSED
Data type for integral storage             ... DOUBLE
In-Core Storage of quantities:
   Amplitudes+Sigma Vector      ... YES
   J+K operators                ... YES
   DIIS vectors                 ... YES
   3-external integrals         ... YES
   4-external integrals         ... YES


Initializing the integral package          ... done
Warning: reference  - re-canonicalizations have been set to INT 1 VIRT 1

--------------------------
UNRESTRICTED FOCK OPERATOR
--------------------------

<ss|ss>:          120 b            0 skpd (  0.0%)    0.000 s ( 0.002 ms/b)
<ss|sp>:          300 b            0 skpd (  0.0%)    0.000 s ( 0.001 ms/b)
<ss|sd>:          225 b            0 skpd (  0.0%)    0.000 s ( 0.002 ms/b)
<ss|pp>:          150 b            0 skpd (  0.0%)    0.000 s ( 0.003 ms/b)
<ss|pd>:          180 b            0 skpd (  0.0%)    0.000 s ( 0.002 ms/b)
<ss|dd>:           90 b            0 skpd (  0.0%)    0.001 s ( 0.009 ms/b)
<sp|sp>:          210 b            0 skpd (  0.0%)    0.000 s ( 0.002 ms/b)
<sp|sd>:          300 b            0 skpd (  0.0%)    0.001 s ( 0.002 ms/b)
<sp|pp>:          200 b            0 skpd (  0.0%)    0.001 s ( 0.005 ms/b)
<sp|pd>:          240 b            0 skpd (  0.0%)    0.001 s ( 0.003 ms/b)
<sp|dd>:          120 b            0 skpd (  0.0%)    0.002 s ( 0.015 ms/b)
<sd|sd>:          120 b            0 skpd (  0.0%)    0.001 s ( 0.004 ms/b)
<sd|pp>:          150 b            0 skpd (  0.0%)    0.001 s ( 0.008 ms/b)
<sd|pd>:          180 b            0 skpd (  0.0%)    0.001 s ( 0.006 ms/b)
<sd|dd>:           90 b            0 skpd (  0.0%)    0.003 s ( 0.029 ms/b)
<pp|pp>:           55 b            0 skpd (  0.0%)    0.001 s ( 0.019 ms/b)
<pp|pd>:          120 b            0 skpd (  0.0%)    0.001 s ( 0.008 ms/b)
<pp|dd>:           60 b            0 skpd (  0.0%)    0.002 s ( 0.035 ms/b)
<pd|pd>:           78 b            0 skpd (  0.0%)    0.002 s ( 0.024 ms/b)
<pd|dd>:           72 b            0 skpd (  0.0%)    0.004 s ( 0.061 ms/b)
<dd|dd>:           21 b            0 skpd (  0.0%)    0.004 s ( 0.176 ms/b)
Recanonicalizing the internal orbitals
Recanonicalizing the virtual orbitals
Time needed for Fock operator              ...            0.162 sec
Reference energy                           ...  -2572.082201922
Warning: for UHF the TrafoType has to be JK
Warning: for UHF the K(C)-option cannot be MO but must be AOX

-------------------------------
PARTIAL EXCHANGE TRANSFORMATION
-------------------------------

Transformation type                        ... two-operators
Generation of integrals (i,mue|j,nue)      ... ON
Generation of integrals (mue,kappa|nue,tau)... ON
Generation of integrals (i,mue|a,nue)      ... ON
Dimension of the basis                     ...   32
Number of internal alpha-MOs               ...    9 (   9-  17)
Number of internal beta-MOs                ...    8 (   9-  16)
Number of external alpha-MOs               ...   14 (  18-  31)
Number of external beta-MOs                ...   15 (  17-  31)
Pair cutoff                                ... 0.000e+00 Eh
Number of AO pairs in the trafo            ...  528
Total Number of distinct AO pairs          ...  528
Memory devoted for trafo                   ... 2500.0 MB 
Max. Number of MO pairs treated together   ... 320000      
Number Format for Storage                  ... Double (8 Byte)
Integral package used                      ... LIBINT

Starting integral evaluation:
    ... done with AO integral generation
Closing buffer AOK[aa] ( 0.00 GB; CompressionRatio= 0.00)
Closing buffer AOK[bb] ( 0.00 GB; CompressionRatio= 0.00)
Closing buffer AOK[ab] ( 0.00 GB; CompressionRatio= 0.00)
Closing buffer AOK[ba] ( 0.00 GB; CompressionRatio= 0.00)
Collecting buffer AOK 
Closing buffer IAAO1[aa] ( 0.00 GB; CompressionRatio= 0.00)
Closing buffer IAAO1[bb] ( 0.00 GB; CompressionRatio= 0.00)
Closing buffer IAAO1[ab] ( 0.00 GB; CompressionRatio= 0.00)
Closing buffer IAAO1[ba] ( 0.00 GB; CompressionRatio= 0.00)
Closing buffer IAAO2[aa] ( 0.00 GB; CompressionRatio= 0.00)
Closing buffer IAAO2[bb] ( 0.00 GB; CompressionRatio= 0.00)
Closing buffer IAAO2[ab] ( 0.00 GB; CompressionRatio= 0.00)
Closing buffer IAAO2[ba] ( 0.00 GB; CompressionRatio= 0.00)
Collecting buffer IAAO 
Closing buffer PRQS    ( 0.00 GB; CompressionRatio= 0.00)
Collecting buffer PRQS 
Number of alpha/alpha MO pairs in trafo    ...   45
Number of beta /beta  MO pairs in trafo    ...   36
Number of alpha/ beta MO pairs in trafo    ...   72
------------------------
SORTING OF (i,mue|j,nue)
------------------------

SORTING OF ALPHA/ALPHA PAIRS
IBATCH = 1 of  1
Closing buffer KAO[aa] ( 0.00 GB; CompressionRatio= 1.00)
Collecting buffer KAO 
SORTING OF BETA /BETA  PAIRS
IBATCH = 1 of  1
Closing buffer KAO[bb] ( 0.00 GB; CompressionRatio= 1.00)
Collecting buffer KAO 
SORTING OF ALPHA/BETA  PAIRS
IBATCH = 1 of  1
Closing buffer KAO[ab] ( 0.00 GB; CompressionRatio= 0.998537298879)
Collecting buffer KAO[ab] 
------------------------
SORTING OF (i,mue|a,nue)
------------------------

Number of alpha/alpha (i,a) pairs in trafo  ...  126
Number of beta /beta  (i,a) pairs in trafo  ...  120
Number of alpha/ beta (i,a) pairs in trafo  ...  135
Number of beta /alpha (i,a) pairs in trafo  ...  112
Setting up the alpha/alpha list             ... done
Setting up the beta /beta  list             ... done
Setting up the alpha/beta  list             ... done
Setting up the beta /alpha list             ... done
    ... Now sorting (i,mue|a,nue)integrals
    ... Integrals (i,b|a,c) will be made on the fly
SORTING OF ALPHA/ALPHA PAIRS
IBATCH = 1 of  1
Closing buffer IPAQ[aa]  0.00 GB; CompressionRatio= 1.00)
SORTING OF BETA /BETA  PAIRS
IBATCH = 1 of  1
Closing buffer IPAQ[bb]( 0.00 GB; CompressionRatio= 1.00)
SORTING OF ALPHA/BETA  PAIRS (NMatSort_ab=6)
IBATCH = 1 of  1
Closing buffer IPAQ[ab]( 0.00 GB; CompressionRatio= 1.00)
SORTING OF BETA/ALPHA  PAIRS
IBATCH = 1 of  1
Closing buffer IPAQ[ba]( 0.00 GB; CompressionRatio= 1.00)
N(AO-Batches) Done                         ...         0 
N(AO-Batches) Skipped                      ...         0 
N(IJ)-pairs Skipped                        ...         0 
TOTAL TIME for half transformation         ...     1.552 sec
AO-integral generation                     ...     0.000 sec
Half transformation                        ...     0.000 sec
K-integral sorting                         ...     0.595 sec
<ss|**>: 
------------------------------
PARTIAL COULOMB TRANSFORMATION
------------------------------

Transformation type                        ... two-operators
Dimension of the basis                     ...   32
Number of internal alpha-MOs               ...    9 (9-17)
Number of internal beta-MOs                ...    8 (9-16)
Pair cutoff                                ... 0.000e+00 Eh
Number of AO pairs included in the trafo   ...  528
Total Number of distinct AO pairs          ...  528
Memory devoted for trafo                   ... 2500.0 MB 
Max. Number of MO pairs treated together   ... 620606      
Max. Number of MOs treated per batch       ... 19393      
Number Format for Storage                  ... Double (8 Byte)
AO-integral source                         ... DIRECT
Integral package used                      ... LIBINT

Starting integral evaluation:
<sp|**>:         1170 b        0 skpd     0.001 s (  0.001 ms/b)
<sd|**>:         1560 b        0 skpd     0.009 s (  0.006 ms/b)
<pp|**>:         1170 b        0 skpd     0.015 s (  0.013 ms/b)
<pd|**>:          780 b        0 skpd     0.013 s (  0.016 ms/b)
         936 b        0 skpd     0.026 s (  0.028 ms/b)
<dd|**>:          468 b        0 skpd     0.023 s (  0.049 ms/b)
Closing buffer AOJ[aa] ( 0.00 GB; CompressionRatio= 0.97)
Closing buffer AOJ[bb] ( 0.00 GB; CompressionRatio= 0.00)
Collecting buffer AOJ 
    ... done with AO integral generation
Number of Alpha-MO pairs included          ...   45
Number of Beta-MO pairs included           ...   36
    ... Now sorting integrals
SORTING ALPHA/ALPHA PAIRS
IBATCH = 1 of  1
Closing buffer JAO[aa] ( 0.00 GB; CompressionRatio= 1.00)
SORTING BETA/BETA PAIRS
IBATCH = 1 of  1
Closing buffer JAO[bb] ( 0.00 GB; CompressionRatio= 1.00)
Collecting buffer JAO 
TOTAL TIME for half transformation         ...     0.201 sec
AO-integral generation                     ...     0.041 sec
Half transformation                        ...     0.047 sec
J-integral sorting                         ...     0.081 sec

-------------------------- SECOND HALF TRANSFORMATION -------------------------
Formation of (ij|kl),(ij|ka), (ij|ab)      ... ok (     0.125 sec)
Formation of (ik|jl),(ik|ja), (ia|jb)      ... ok (     0.190 sec)


-----------------------
SPIN UNRESTRICTED GUESS
-----------------------

Entering MDCI_UHF_Guess, Tailored=0
Spin-components of the MP2 energy:
EMP2(aa)=     -0.037773143
EMP2(bb)=     -0.027997965
EMP2(ab)=     -0.140865531

Initial guess performed in     0.002 sec
E(0)                                       ...  -2572.082201922
E(MP2)                                     ...     -0.206636639
Initial E(tot)                             ...  -2572.288838561
<T|T>                                      ...      0.048761049
Number of pairs included                   ... 136

------------------------------------------------
                  UHF COUPLED CLUSTER ITERATIONS
------------------------------------------------

Number of amplitudes to be optimized       ...        21907

Iter       E(tot)           E(Corr)          Delta-E          Residual     Time      <S|S>**1/2
  0  -2572.288838561     -0.206636639     -0.000000000      0.019046313    0.07      0.000001346
                           *** Turning on DIIS ***
  1  -2572.290466825     -0.208264903     -0.001628264      0.008720266    0.04      0.012247686
  2  -2572.294227794     -0.212025872     -0.003760968      0.004002766    0.05      0.013674260
  3  -2572.295339437     -0.213137515     -0.001111643      0.000809489    0.05      0.015299742
  4  -2572.295428479     -0.213226557     -0.000089042      0.000128642    0.05      0.015575356
  5  -2572.295428088     -0.213226166      0.000000391      0.000029861    0.05      0.015592620
  6  -2572.295429537     -0.213227615     -0.000001449      0.000008984    0.05      0.015594240
               --- The Coupled-Cluster iterations have converged ---

----------------------
COUPLED CLUSTER ENERGY
----------------------

E(0)                                       ...  -2572.082201922
E(CORR)                                    ...     -0.213227615
E(TOT)                                     ...  -2572.295429537
Singles norm <S|S>**1/2                    ...      0.015594240 ( 0.005675852, 0.009918388)  
T1 diagnostic                              ...      0.003782159                              

------------------
LARGEST AMPLITUDES
------------------
  15a-> 19a  14b-> 17b       0.051208
  17a-> 20a  14b-> 17b       0.044336
  16a-> 21a  14b-> 17b       0.044336
  17a-> 22a  16a-> 23a       0.037701
  17a-> 23a  16a-> 22a       0.037701
  16b-> 19b  15b-> 20b       0.036161
  16b-> 20b  15b-> 19b       0.036161
  17a-> 19a  15a-> 20a       0.030074
  17a-> 20a  15a-> 19a       0.030074
  16a-> 21a  15a-> 19a       0.030074
  16a-> 19a  15a-> 21a       0.030074
  17a-> 20a  16b-> 21b       0.029708
  16a-> 21a  15b-> 22b       0.029708
  17a-> 25a  15b-> 24b       0.028888
  16a-> 26a  16b-> 25b       0.028888
  16a-> 23a  16b-> 20b       0.028692

----------------------
UHF TRIPLES CORRECTION (Algorithm 1)
----------------------

Multiplier for the singles contribution    ...      1.000000000

SPIN-CASE Alpha-Alpha-Alpha:
10% done
20% done
30% done
40% done
50% done
60% done
70% done
80% done
90% done


SPIN-CASE Beta-Beta-Beta:
10% done
20% done
30% done
40% done
50% done
60% done
70% done
80% done
90% done


SPIN-CASE Alpha-Alpha-Beta:
10% done
20% done
30% done
40% done
50% done
60% done
70% done
80% done
90% done


SPIN-CASE Beta-Beta-Alpha:
10% done
20% done
30% done
40% done
50% done
60% done
70% done
80% done
90% done


Triples Correction (T)                     ...     -0.003096013
    alpha-alpha-alpha ... -0.000155653 (  5.0%)
    alpha-alpha-beta  ... -0.001575105 ( 50.9%)
    alpha-beta -beta  ... -0.001260230 ( 40.7%)
    beta -beta -beta  ... -0.000105024 (  3.4%)
Scaling of triples based on CCSD energies (Peterson et al. Molecular Physics 113, 1551 (2015))
E(T*) = f*E(T) where f = E(F12-CCSD)/E(CCSD) 
f = CCSD (with F12)/ CCSD (without F12)    ...      1.000000000
Scaled triples correction (T)              ...     -0.003096013

Final correlation energy                   ...     -0.216323628
E(CCSD)                                    ...  -2572.295429537
E(CCSD(T))                                 ...  -2572.298525550



        !!!!!!!!!!!!!!!!!!!!!!!!!!!!!!!!!!!!!!!!!!!!!!!!!!!!!!!!!!!!!!!!!!!!!!!!!! 
        !  Warning: Densities are linearized densities                           !
        !!!!!!!!!!!!!!!!!!!!!!!!!!!!!!!!!!!!!!!!!!!!!!!!!!!!!!!!!!!!!!!!!!!!!!!!!! 

NORM  =      1.060619701 sqrt=     1.029863923
W(HF) =      0.942845017
------------------------------------------------------------------------------
                           ORCA POPULATION ANALYSIS
------------------------------------------------------------------------------
Input electron density              ... 35_Br.mdcip
Input spin density                  ... 35_Br.mdcir
BaseName (.gbw .S,...)              ... 35_Br

                    ********************************
                    * MULLIKEN POPULATION ANALYSIS *
                    ********************************

------------------------------------------
MULLIKEN ATOMIC CHARGES AND SPIN DENSITIES
------------------------------------------
   0 Br:   -0.000000    1.000000
Sum of atomic charges       :   -0.0000000
Sum of atomic spin densities:    1.0000000

---------------------------------------------------
MULLIKEN REDUCED ORBITAL CHARGES AND SPIN DENSITIES
---------------------------------------------------
CHARGE
  0 Brs       :     7.983191  s :     7.983191
      pz      :     5.972980  p :    16.946260
      px      :     5.958013
      py      :     5.015266
      dz2     :     2.014636  d :    10.070550
      dxz     :     2.015170
      dyz     :     2.013626
      dx2y2   :     2.013523
      dxy     :     2.013596

SPIN
  0 Brs       :     0.006523  s :     0.006523
      pz      :    -0.000506  p :     0.977826
      px      :     0.014563
      py      :     0.963769
      dz2     :     0.001326  d :     0.015650
      dxz     :    -0.000475
      dyz     :     0.004809
      dx2y2   :     0.005085
      dxy     :     0.004906


                     *******************************
                     * LOEWDIN POPULATION ANALYSIS *
                     *******************************

-----------------------------------------
LOEWDIN ATOMIC CHARGES AND SPIN DENSITIES
-----------------------------------------
   0 Br:   -0.000000    1.000000

--------------------------------------------------
LOEWDIN REDUCED ORBITAL CHARGES AND SPIN DENSITIES
--------------------------------------------------
CHARGE
  0 Brs       :     7.983191  s :     7.983191
      pz      :     5.972980  p :    16.946260
      px      :     5.958013
      py      :     5.015266
      dz2     :     2.014636  d :    10.070550
      dxz     :     2.015170
      dyz     :     2.013626
      dx2y2   :     2.013523
      dxy     :     2.013596

SPIN
  0 Brs       :     0.006523  s :     0.006523
      pz      :    -0.000506  p :     0.977826
      px      :     0.014563
      py      :     0.963769
      dz2     :     0.001326  d :     0.015650
      dxz     :    -0.000475
      dyz     :     0.004809
      dx2y2   :     0.005085
      dxy     :     0.004906


                      *****************************
                      * MAYER POPULATION ANALYSIS *
                      *****************************

  NA   - Mulliken gross atomic population
  ZA   - Total nuclear charge
  QA   - Mulliken gross atomic charge
  VA   - Mayer's total valence
  BVA  - Mayer's bonded valence
  FA   - Mayer's free valence

  ATOM       NA         ZA         QA         VA         BVA        FA
  0 Br    35.0000    35.0000    -0.0000     1.4350     0.0000     1.4350





------------------------------------------------------------------------------- 
                                     TIMINGS                                   
------------------------------------------------------------------------------- 


Total execution time                   ...        3.115 sec

Fock Matrix Formation                  ...        0.162 sec (  5.2%)
Initial Guess                          ...        0.002 sec (  0.1%)
DIIS Solver                            ...        0.027 sec (  0.9%)
State Vector Update                    ...        0.003 sec (  0.1%)
Sigma-vector construction              ...        0.318 sec ( 10.2%)
  <D|H|D>(2-ext)                       ...        0.003 sec (  0.9% of sigma)
  <D|H|D>(4-ext)                       ...        0.119 sec ( 37.5% of sigma)
  <S|H|0>                              ...        0.004 sec (  1.1% of sigma)
  <D|H|S>(1-ext)                       ...        0.002 sec (  0.7% of sigma)
  Fock-dressing                        ...        0.112 sec ( 35.1% of sigma)
  (ik|jl)-dressing                     ...        0.001 sec (  0.4% of sigma)
  (ij|ab),(ia|jb)-dressing             ...        0.051 sec ( 16.1% of sigma)
Total Time for computing (T)           ...        0.005 sec (  0.2% of ALL)
  I/O of integral and amplitudes       ...        0.001 sec ( 21.8% of (T))
  N**6 triples energy contributions    ...        0.002 sec ( 33.3% of (T))


-------------------------   --------------------
FINAL SINGLE POINT ENERGY     -2572.298525549548
-------------------------   --------------------


                            ***************************************
                            *     ORCA property calculations      *
                            ***************************************

                                    ---------------------
                                    Active property flags
                                    ---------------------
   (+) Dipole Moment


------------------------------------------------------------------------------
                       ORCA ELECTRIC PROPERTIES CALCULATION
------------------------------------------------------------------------------

Dipole Moment Calculation                       ... on
Quadrupole Moment Calculation                   ... off
Polarizability Calculation                      ... off
GBWName                                         ... 35_Br.gbw
Electron density file                           ... 35_Br.scfp
The origin for moment calculation is the CENTER OF MASS  = ( 0.000000,  0.000000  0.000000)

-------------
DIPOLE MOMENT
-------------
                                X             Y             Z
Electronic contribution:     -0.00000      -0.00000       0.00000
Nuclear contribution   :      0.00000       0.00000       0.00000
                        -----------------------------------------
Total Dipole Moment    :     -0.00000      -0.00000       0.00000
                        -----------------------------------------
Magnitude (a.u.)       :      0.00000
Magnitude (Debye)      :      0.00000



--------------------
Rotational spectrum 
--------------------
 
Rotational constants in cm-1:     0.000000     0.000000     0.000000 
Rotational constants in MHz :     0.000000     0.000000     0.000000 

 Dipole components along the rotational axes: 
x,y,z [a.u.] :    -0.000000    -0.000000     0.000000 
x,y,z [Debye]:    -0.000000    -0.000000     0.000000 

 

                           *** MDCI DENSITY ***

------------------------------------------------------------------------------
                       ORCA ELECTRIC PROPERTIES CALCULATION
------------------------------------------------------------------------------

Dipole Moment Calculation                       ... on
Quadrupole Moment Calculation                   ... off
Polarizability Calculation                      ... off
GBWName                                         ... 35_Br.gbw
Electron density file                           ... 35_Br.mdcip
The origin for moment calculation is the CENTER OF MASS  = ( 0.000000,  0.000000  0.000000)

-------------
DIPOLE MOMENT
-------------
                                X             Y             Z
Electronic contribution:      0.00000      -0.00000       0.00000
Nuclear contribution   :      0.00000       0.00000       0.00000
                        -----------------------------------------
Total Dipole Moment    :      0.00000      -0.00000       0.00000
                        -----------------------------------------
Magnitude (a.u.)       :      0.00000
Magnitude (Debye)      :      0.00000



--------------------
Rotational spectrum 
--------------------
 
Rotational constants in cm-1:     0.000000     0.000000     0.000000 
Rotational constants in MHz :     0.000000     0.000000     0.000000 

 Dipole components along the rotational axes: 
x,y,z [a.u.] :     0.000000    -0.000000     0.000000 
x,y,z [Debye]:     0.000000    -0.000000     0.000000 

 

Timings for individual modules:

Sum of individual times         ...        7.381 sec (=   0.123 min)
GTO integral calculation        ...        0.825 sec (=   0.014 min)  11.2 %
SCF iterations                  ...        2.954 sec (=   0.049 min)  40.0 %
MDCI module                     ...        3.603 sec (=   0.060 min)  48.8 %
                             ****ORCA TERMINATED NORMALLY****
TOTAL RUN TIME: 0 days 0 hours 0 minutes 8 seconds 254 msec
